<event>
 5    1  0.8459321E-003  0.9986268E+02  0.7546771E-02  0.1432740E+00
         -2   -1    0    0    0  501 -0.00000000000E+00  0.00000000000E+00  0.12946690267E+03  0.12946690267E+03  0.00000000000E+00 0.  1.
          2   -1    0    0  502    0  0.00000000000E+00 -0.00000000000E+00 -0.44025107300E+03  0.44025107300E+03  0.00000000000E+00 0. -1.
         25    1    1    2    0    0 -0.80790139508E+02 -0.93827910450E+02 -0.49697674271E+02  0.18282664535E+03  0.12500000000E+03 0.  0.
          1    1    1    2  502    0  0.68065935313E+02  0.69437436183E+02 -0.31320876261E+03  0.32795465856E+03  0.00000000000E+00 0. -1.
         -1    1    1    2    0  501  0.12724204195E+02  0.24390474267E+02  0.52122266559E+02  0.58936671764E+02  0.00000000000E+00 0.  1.
<mgrwt>
<rscale>  0 0.52413959E+02</rscale>
<asrwt>0</asrwt>
<pdfrwt beam="2">  1        2 0.67730935E-01 0.99862676E+02</pdfrwt>
<pdfrwt beam="1">  1       -2 0.19917985E-01 0.27510009E+02</pdfrwt>
<totfact> 0.13943492E+03</totfact>
</mgrwt>
</event>
<event>
 5    1  0.8459321E-003  0.5474212E+02  0.7546771E-02  0.1447871E+00
          1   -1    0    0  501    0 -0.00000000000E+00  0.00000000000E+00  0.22634749322E+04  0.22634749322E+04  0.00000000000E+00 0. -1.
          2   -1    0    0  502    0  0.00000000000E+00 -0.00000000000E+00 -0.11606167264E+04  0.11606167264E+04  0.00000000000E+00 0. -1.
         25    1    1    2    0    0 -0.61656095805E+02  0.68735303086E-01 -0.86517123848E+03  0.87632628100E+03  0.12500000000E+03 0.  0.
          2    1    1    2  501    0  0.20602744192E+02 -0.39805735466E+02  0.22548571043E+04  0.22553025364E+04  0.00000000000E+00 0. -1.
          3    1    1    2  502    0  0.41053351613E+02  0.39737000163E+02 -0.28682766012E+03  0.29246284118E+03  0.00000000000E+00 0. -1.
<mgrwt>
<rscale>  0 0.49534087E+02</rscale>
<asrwt>0</asrwt>
<pdfrwt beam="2">  1        2 0.17855642E+00 0.54742124E+02</pdfrwt>
<pdfrwt beam="1">  1        1 0.34822691E+00 0.44821531E+02</pdfrwt>
<totfact> 0.92691299E+00</totfact>
</mgrwt>
</event>
<event>
 5    1  0.8459321E-003  0.9683275E+02  0.7546771E-02  0.1393208E+00
          2   -1    0    0  502    0  0.00000000000E+00  0.00000000000E+00  0.93785725505E+03  0.93785725505E+03  0.00000000000E+00 0. -1.
         -2   -1    0    0    0  501 -0.00000000000E+00 -0.00000000000E+00 -0.59107365476E+03  0.59107365476E+03  0.00000000000E+00 0.  1.
         25    1    1    2    0    0 -0.13043920694E+03  0.64706980813E+01 -0.33925302996E+02  0.18393526803E+03  0.12500000000E+03 0.  0.
          1    1    1    2  502    0  0.37152235463E+02  0.10373060652E+02  0.85775514988E+03  0.85862202752E+03  0.00000000000E+00 0. -1.
         -1    1    1    2    0  501  0.93286971477E+02 -0.16843758733E+02 -0.47704624660E+03  0.48637361426E+03  0.00000000000E+00 0.  1.
<mgrwt>
<rscale>  0 0.61115838E+02</rscale>
<asrwt>0</asrwt>
<pdfrwt beam="1">  1        2 0.14428573E+00 0.38573164E+02</pdfrwt>
<pdfrwt beam="2">  1       -2 0.90934408E-01 0.96832751E+02</pdfrwt>
<totfact> 0.35016710E+01</totfact>
</mgrwt>
</event>
<event>
 5    1  0.8459321E-003  0.6185757E+02  0.7546771E-02  0.1424993E+00
          2   -1    0    0  502    0  0.00000000000E+00  0.00000000000E+00  0.60636572780E+03  0.60636572780E+03  0.00000000000E+00 0. -1.
         -2   -1    0    0    0  501 -0.00000000000E+00 -0.00000000000E+00 -0.15223327881E+03  0.15223327881E+03  0.00000000000E+00 0.  1.
         25    1    1    2    0    0 -0.53901305614E+02 -0.90115730086E+02  0.15656384608E+03  0.22619335413E+03  0.12500000000E+03 0.  0.
          1    1    1    2  502    0  0.37340188315E+02  0.46020524986E+02  0.40803492921E+03  0.41231624009E+03  0.00000000000E+00 0. -1.
         -1    1    1    2    0  501  0.16561117300E+02  0.44095205100E+02 -0.11046632630E+03  0.12008941238E+03  0.00000000000E+00 0.  1.
<mgrwt>
<rscale>  0 0.53978273E+02</rscale>
<asrwt>0</asrwt>
<pdfrwt beam="1">  1        2 0.93287034E-01 0.61857565E+02</pdfrwt>
<pdfrwt beam="2">  1       -2 0.23420505E-01 0.47102630E+02</pdfrwt>
<totfact> 0.78225135E+02</totfact>
</mgrwt>
</event>
<event>
 5    1  0.8459321E-003  0.3989248E+02  0.7546771E-02  0.1586539E+00
          1   -1    0    0  501    0 -0.00000000000E+00  0.00000000000E+00  0.14375887866E+03  0.14375887866E+03  0.00000000000E+00 0. -1.
          2   -1    0    0  502    0  0.00000000000E+00 -0.00000000000E+00 -0.14696628261E+04  0.14696628261E+04  0.00000000000E+00 0. -1.
         25    1    1    2    0    0 -0.22605369107E+02  0.51265204687E+02 -0.20195473305E+03  0.24402835517E+03  0.12500000000E+03 0.  0.
          2    1    1    2  501    0 -0.57828351057E+01 -0.23499846463E+02  0.12120936524E+03  0.12360175641E+03  0.00000000000E+00 0. -1.
          1    1    1    2  502    0  0.28388204212E+02 -0.27765358224E+02 -0.12451585797E+04  0.12457915932E+04  0.00000000000E+00 0. -1.
<mgrwt>
<rscale>  0 0.31071438E+02</rscale>
<asrwt>0</asrwt>
<pdfrwt beam="2">  1        2 0.22610197E+00 0.39892480E+02</pdfrwt>
<pdfrwt beam="1">  1        1 0.22116751E-01 0.24200908E+02</pdfrwt>
<totfact> 0.46393592E+02</totfact>
</mgrwt>
</event>
<event>
 5    1  0.8459321E-003  0.2143589E+03  0.7546771E-02  0.1195685E+00
          2   -1    0    0  502    0  0.00000000000E+00  0.00000000000E+00  0.98427458384E+03  0.98427458384E+03  0.00000000000E+00 0. -1.
          1   -1    0    0  501    0 -0.00000000000E+00 -0.00000000000E+00 -0.40944708035E+03  0.40944708035E+03  0.00000000000E+00 0. -1.
         25    1    1    2    0    0 -0.10072242088E+03  0.57949050176E+02  0.40437888618E+03  0.43891956219E+03  0.12500000000E+03 0.  0.
          2    1    1    2  501    0  0.21066290427E+03 -0.69877007637E+02 -0.35454562739E+03  0.41828729043E+03  0.00000000000E+00 0. -1.
          1    1    1    2  502    0 -0.10994048339E+03  0.11927957461E+02  0.52499424470E+03  0.53651481157E+03  0.00000000000E+00 0. -1.
<mgrwt>
<rscale>  0 0.15396434E+03</rscale>
<asrwt>0</asrwt>
<pdfrwt beam="1">  1        2 0.15142686E+00 0.11058565E+03</pdfrwt>
<pdfrwt beam="2">  1        1 0.62991859E-01 0.21435891E+03</pdfrwt>
<totfact> 0.22642846E+02</totfact>
</mgrwt>
</event>
<event>
 5    1  0.8459321E-003  0.2013521E+03  0.7546771E-02  0.1172800E+00
         -1   -1    0    0    0  501 -0.00000000000E+00  0.00000000000E+00  0.25910850595E+03  0.25910850595E+03  0.00000000000E+00 0.  1.
          1   -1    0    0  502    0  0.00000000000E+00 -0.00000000000E+00 -0.73842581794E+03  0.73842581794E+03  0.00000000000E+00 0. -1.
         25    1    1    2    0    0  0.19723023485E+03 -0.18215456730E+03  0.13124394689E+01  0.29615329548E+03  0.12500000000E+03 0.  0.
          2    1    1    2  502    0 -0.45610640018E+02  0.19259004097E+03 -0.50958408928E+03  0.54666918553E+03  0.00000000000E+00 0. -1.
         -2    1    1    2    0  501 -0.15161959484E+03 -0.10435473665E+02  0.28954337814E+02  0.15471184288E+03  0.00000000000E+00 0.  1.
<mgrwt>
<rscale>  0 0.17493184E+03</rscale>
<asrwt>0</asrwt>
<pdfrwt beam="2">  1        1 0.11360397E+00 0.20135210E+03</pdfrwt>
<pdfrwt beam="1">  1       -1 0.39862847E-01 0.15197829E+03</pdfrwt>
<totfact> 0.16564643E+02</totfact>
</mgrwt>
</event>
<event>
 5    1  0.8459321E-003  0.1932179E+03  0.7546771E-02  0.1257491E+00
          2   -1    0    0  502    0  0.00000000000E+00  0.00000000000E+00  0.66003889488E+03  0.66003889488E+03  0.00000000000E+00 0. -1.
          1   -1    0    0  501    0 -0.00000000000E+00 -0.00000000000E+00 -0.29671549561E+04  0.29671549561E+04  0.00000000000E+00 0. -1.
         25    1    1    2    0    0 -0.61717095722E+02  0.12307581219E+03 -0.19179446314E+03  0.26714559989E+03  0.12500000000E+03 0.  0.
          2    1    1    2  501    0  0.11107719505E+03 -0.16467360443E+03 -0.27323961736E+04  0.27396066120E+04  0.00000000000E+00 0. -1.
          1    1    1    2  502    0 -0.49360099326E+02  0.41597792237E+02  0.61707457551E+03  0.62044163905E+03  0.00000000000E+00 0. -1.
<mgrwt>
<rscale>  0 0.11167971E+03</rscale>
<asrwt>0</asrwt>
<pdfrwt beam="1">  1        2 0.10154445E+00 0.64550722E+02</pdfrwt>
<pdfrwt beam="2">  1        1 0.45648538E+00 0.19321792E+03</pdfrwt>
<totfact> 0.51761820E+00</totfact>
</mgrwt>
</event>
<event>
 5    1  0.8459321E-003  0.2245386E+02  0.7546771E-02  0.1717291E+00
         -1   -1    0    0    0  501 -0.00000000000E+00  0.00000000000E+00  0.32003265365E+03  0.32003265365E+03  0.00000000000E+00 0.  1.
          1   -1    0    0  502    0  0.00000000000E+00 -0.00000000000E+00 -0.23033558906E+02  0.23033558906E+02  0.00000000000E+00 0. -1.
         25    1    1    2    0    0  0.24899710138E+02 -0.20769802437E+01  0.21085842720E+03  0.24639518204E+03  0.12500000000E+03 0.  0.
          2    1    1    2  502    0 -0.11571684463E+02 -0.16994856524E+02  0.38162257274E+02  0.43348436071E+02  0.00000000000E+00 0. -1.
         -2    1    1    2    0  501 -0.13328025675E+02  0.19071836768E+02  0.47978410270E+02  0.53322594443E+02  0.00000000000E+00 0.  1.
<mgrwt>
<rscale>  0 0.21486271E+02</rscale>
<asrwt>0</asrwt>
<pdfrwt beam="2">  1        1 0.35436247E-02 0.20560375E+02</pdfrwt>
<pdfrwt beam="1">  1       -1 0.49235790E-01 0.22453863E+02</pdfrwt>
<totfact> 0.84648905E+03</totfact>
</mgrwt>
</event>
<event>
 5    1  0.8459321E-003  0.9714174E+02  0.7546771E-02  0.1434815E+00
         -2   -1    0    0    0  501 -0.00000000000E+00  0.00000000000E+00  0.32773185593E+02  0.32773185593E+02  0.00000000000E+00 0.  1.
          2   -1    0    0  502    0  0.00000000000E+00 -0.00000000000E+00 -0.68560817268E+03  0.68560817268E+03  0.00000000000E+00 0. -1.
         25    1    1    2    0    0 -0.85362835655E+02 -0.27140752513E+02 -0.44064989318E+03  0.46671271947E+03  0.12500000000E+03 0.  0.
          1    1    1    2  502    0  0.92984557629E+02  0.53918722961E+02 -0.16924351087E+03  0.20049120334E+03  0.00000000000E+00 0. -1.
         -1    1    1    2    0  501 -0.76217219734E+01 -0.26777970448E+02 -0.42941583037E+02  0.51177435466E+02  0.00000000000E+00 0.  1.
<mgrwt>
<rscale>  0 0.52005519E+02</rscale>
<asrwt>0</asrwt>
<pdfrwt beam="2">  1        2 0.10547817E+00 0.97141744E+02</pdfrwt>
<pdfrwt beam="1">  1       -2 0.50420290E-02 0.27841522E+02</pdfrwt>
<totfact> 0.67940456E+03</totfact>
</mgrwt>
</event>
<event>
 5    1  0.8459321E-003  0.5438135E+02  0.7546771E-02  0.1546236E+00
          1   -1    0    0  502    0  0.00000000000E+00  0.00000000000E+00  0.35285257032E+04  0.35285257032E+04  0.00000000000E+00 0. -1.
         -1   -1    0    0    0  501 -0.00000000000E+00 -0.00000000000E+00 -0.45852993067E+01  0.45852993067E+01  0.00000000000E+00 0.  1.
         25    1    1    2    0    0  0.30522046217E+02  0.65049964955E+02  0.17274593761E+04  0.17334658893E+04  0.12500000000E+03 0.  0.
          2    1    1    2  502    0 -0.37960653264E+01 -0.22554760405E+02  0.13742424417E+04  0.13744327615E+04  0.00000000000E+00 0. -1.
         -2    1    1    2    0  501 -0.26725980891E+02 -0.42495204550E+02  0.42223858607E+03  0.42521235169E+03  0.00000000000E+00 0.  1.
<mgrwt>
<rscale>  0 0.35267675E+02</rscale>
<asrwt>0</asrwt>
<pdfrwt beam="1">  1        1 0.54284794E+00 0.22871977E+02</pdfrwt>
<pdfrwt beam="2">  1       -1 0.70543348E-03 0.54381345E+02</pdfrwt>
<totfact> 0.11893942E+03</totfact>
</mgrwt>
</event>
<event>
 5    1  0.8459321E-003  0.8510537E+02  0.7546771E-02  0.1350729E+00
          1   -1    0    0  501    0 -0.00000000000E+00  0.00000000000E+00  0.55760224518E+03  0.55760224518E+03  0.00000000000E+00 0. -1.
          2   -1    0    0  502    0  0.00000000000E+00 -0.00000000000E+00 -0.70233659268E+03  0.70233659268E+03  0.00000000000E+00 0. -1.
         25    1    1    2    0    0  0.19845379067E+02  0.56862052811E+02 -0.41447015189E+02  0.14481017640E+03  0.12500000000E+03 0.  0.
          2    1    1    2  501    0  0.38924689272E+02 -0.77606113290E+02  0.50058019857E+03  0.50805351633E+03  0.00000000000E+00 0. -1.
          1    1    1    2  502    0 -0.58770068340E+02  0.20744060478E+02 -0.60386753089E+03  0.60707514513E+03  0.00000000000E+00 0. -1.
<mgrwt>
<rscale>  0 0.72829094E+02</rscale>
<asrwt>0</asrwt>
<pdfrwt beam="2">  1        2 0.10805178E+00 0.62323647E+02</pdfrwt>
<pdfrwt beam="1">  1        1 0.85784961E-01 0.85105369E+02</pdfrwt>
<totfact> 0.24080139E+02</totfact>
</mgrwt>
</event>
<event>
 5    1  0.8459321E-003  0.9248241E+02  0.7546771E-02  0.1383660E+00
          2   -1    0    0  502    0  0.00000000000E+00  0.00000000000E+00  0.23047399058E+04  0.23047399058E+04  0.00000000000E+00 0. -1.
         -2   -1    0    0    0  501 -0.00000000000E+00 -0.00000000000E+00 -0.17424088156E+02  0.17424088156E+02  0.00000000000E+00 0.  1.
         25    1    1    2    0    0 -0.85235337017E+02  0.53317394016E+02  0.86927368964E+03  0.88395110423E+03  0.12500000000E+03 0.  0.
          1    1    1    2  502    0  0.35860783275E+02  0.24826263315E+02  0.12073293907E+04  0.12081169632E+04  0.00000000000E+00 0. -1.
         -1    1    1    2    0  501  0.49374553741E+02 -0.78143657331E+02  0.21071273732E+03  0.23009592654E+03  0.00000000000E+00 0.  1.
<mgrwt>
<rscale>  0 0.63511381E+02</rscale>
<asrwt>0</asrwt>
<pdfrwt beam="1">  1        2 0.35457513E+00 0.43615813E+02</pdfrwt>
<pdfrwt beam="2">  1       -2 0.26806308E-02 0.92482410E+02</pdfrwt>
<totfact> 0.28642969E+03</totfact>
</mgrwt>
</event>
<event>
 5    1  0.8459321E-003  0.8079039E+02  0.7546771E-02  0.1389713E+00
          2   -1    0    0  502    0  0.00000000000E+00  0.00000000000E+00  0.48685079183E+03  0.48685079183E+03  0.00000000000E+00 0. -1.
          1   -1    0    0  501    0 -0.00000000000E+00 -0.00000000000E+00 -0.10498326178E+04  0.10498326178E+04  0.00000000000E+00 0. -1.
         25    1    1    2    0    0 -0.15847121856E+02 -0.11577659684E+03  0.40530439026E+02  0.17584956108E+03  0.12500000000E+03 0.  0.
          2    1    1    2  501    0 -0.14335188825E+02  0.79038391299E+02 -0.97902907217E+03  0.98231893451E+03  0.00000000000E+00 0. -1.
          1    1    1    2  502    0  0.30182310681E+02  0.36738205537E+02  0.37551680721E+03  0.37851491400E+03  0.00000000000E+00 0. -1.
<mgrwt>
<rscale>  0 0.61978210E+02</rscale>
<asrwt>0</asrwt>
<pdfrwt beam="1">  1        2 0.74900122E-01 0.47546479E+02</pdfrwt>
<pdfrwt beam="2">  1        1 0.16151271E+00 0.80790390E+02</pdfrwt>
<totfact> 0.14299132E+02</totfact>
</mgrwt>
</event>
<event>
 5    1  0.8459321E-003  0.1169725E+03  0.7546771E-02  0.1356940E+00
          1   -1    0    0  501    0 -0.00000000000E+00  0.00000000000E+00  0.50524096544E+03  0.50524096544E+03  0.00000000000E+00 0. -1.
          2   -1    0    0  502    0  0.00000000000E+00 -0.00000000000E+00 -0.32493781086E+03  0.32493781086E+03  0.00000000000E+00 0. -1.
         25    1    1    2    0    0  0.96499648329E+02 -0.11107172945E+03  0.26357923659E+03  0.32672331593E+03  0.12500000000E+03 0.  0.
          2    1    1    2  501    0 -0.27039912169E+01  0.42932381519E+02  0.19621411428E+03  0.20087428803E+03  0.00000000000E+00 0. -1.
          1    1    1    2  502    0 -0.93795657112E+02  0.68139347932E+02 -0.27949019628E+03  0.30258117233E+03  0.00000000000E+00 0. -1.
<mgrwt>
<rscale>  0 0.70935592E+02</rscale>
<asrwt>0</asrwt>
<pdfrwt beam="2">  1        2 0.49990432E-01 0.11697249E+03</pdfrwt>
<pdfrwt beam="1">  1        1 0.77729380E-01 0.43017449E+02</pdfrwt>
<totfact> 0.63436999E+02</totfact>
</mgrwt>
</event>
<event>
 5    1  0.8459321E-003  0.3118628E+02  0.7546771E-02  0.1612293E+00
          1   -1    0    0  501    0 -0.00000000000E+00  0.00000000000E+00  0.55234721029E+02  0.55234721029E+02  0.00000000000E+00 0. -1.
          2   -1    0    0  502    0  0.00000000000E+00 -0.00000000000E+00 -0.46236271626E+03  0.46236271626E+03  0.00000000000E+00 0. -1.
         25    1    1    2    0    0  0.49255742254E+01  0.20548588922E+02 -0.76968623634E+02  0.14830938882E+03  0.12500000000E+03 0.  0.
          2    1    1    2  501    0  0.24705128114E+02 -0.96144919154E+01  0.95019394925E+01  0.28161474820E+02  0.00000000000E+00 0. -1.
          1    1    1    2  502    0 -0.29630702340E+02 -0.10934097006E+02 -0.33966131108E+03  0.34112657364E+03  0.00000000000E+00 0. -1.
<mgrwt>
<rscale>  0 0.28753248E+02</rscale>
<asrwt>0</asrwt>
<pdfrwt beam="2">  1        2 0.71132726E-01 0.31186280E+02</pdfrwt>
<pdfrwt beam="1">  1        1 0.84976493E-02 0.26510032E+02</pdfrwt>
<totfact> 0.63080626E+03</totfact>
</mgrwt>
</event>
<event>
 5    1  0.8459321E-003  0.3469674E+02  0.7546771E-02  0.1575064E+00
         -2   -1    0    0    0  501 -0.00000000000E+00  0.00000000000E+00  0.85266402378E+02  0.85266402378E+02  0.00000000000E+00 0.  1.
          2   -1    0    0  502    0  0.00000000000E+00 -0.00000000000E+00 -0.14268128497E+03  0.14268128497E+03  0.00000000000E+00 0. -1.
         25    1    1    2    0    0  0.11140284658E+02  0.57199890858E+01 -0.53424954986E+02  0.13651391882E+03  0.12500000000E+03 0.  0.
          1    1    1    2  502    0 -0.22846756966E+02 -0.33195614781E+02 -0.31252252248E+02  0.50996337272E+02  0.00000000000E+00 0. -1.
         -1    1    1    2    0  501  0.11706472308E+02  0.27475625695E+02  0.27262324644E+02  0.40437431251E+02  0.00000000000E+00 0.  1.
<mgrwt>
<rscale>  0 0.32190642E+02</rscale>
<asrwt>0</asrwt>
<pdfrwt beam="2">  1        2 0.21950967E-01 0.34696738E+02</pdfrwt>
<pdfrwt beam="1">  1       -2 0.13117908E-01 0.29865557E+02</pdfrwt>
<totfact> 0.86346752E+03</totfact>
</mgrwt>
</event>
<event>
 5    1  0.8459321E-003  0.6847799E+02  0.7546771E-02  0.1387809E+00
          1   -1    0    0  501    0 -0.00000000000E+00  0.00000000000E+00  0.67131431098E+03  0.67131431098E+03  0.00000000000E+00 0. -1.
          2   -1    0    0  502    0  0.00000000000E+00 -0.00000000000E+00 -0.49505066214E+03  0.49505066214E+03  0.00000000000E+00 0. -1.
         25    1    1    2    0    0 -0.31559232254E+02  0.59555424348E+02 -0.39690866005E+02  0.14745575117E+03  0.12500000000E+03 0.  0.
          2    1    1    2  501    0 -0.36429082523E+02 -0.43790058785E+02  0.61306844025E+03  0.61570898949E+03  0.00000000000E+00 0. -1.
          1    1    1    2  502    0  0.67988314777E+02 -0.15765365563E+02 -0.39711392541E+03  0.40320023246E+03  0.00000000000E+00 0. -1.
<mgrwt>
<rscale>  0 0.62455025E+02</rscale>
<asrwt>0</asrwt>
<pdfrwt beam="2">  1        2 0.76161641E-01 0.68477993E+02</pdfrwt>
<pdfrwt beam="1">  1        1 0.10327912E+00 0.56961806E+02</pdfrwt>
<totfact> 0.27957734E+02</totfact>
</mgrwt>
</event>
<event>
 5    1  0.8459321E-003  0.7323858E+02  0.7546771E-02  0.1396869E+00
         -2   -1    0    0    0  501  0.00000000000E+00  0.00000000000E+00  0.11197734513E+04  0.11197734513E+04  0.00000000000E+00 0.  1.
         -1   -1    0    0    0  502 -0.00000000000E+00 -0.00000000000E+00 -0.23850172334E+02  0.23850172334E+02  0.00000000000E+00 0.  1.
         25    1    1    2    0    0 -0.88506769013E+01  0.79275709213E+02  0.87708880829E+03  0.88953513151E+03  0.12500000000E+03 0.  0.
         -2    1    1    2    0  502 -0.36591396494E+02 -0.59567190585E+02  0.77727899250E+02  0.10454093367E+03  0.00000000000E+00 0.  1.
         -1    1    1    2    0  501  0.45442073395E+02 -0.19708518628E+02  0.14110657144E+03  0.14954755847E+03  0.00000000000E+00 0.  1.
<mgrwt>
<rscale>  0 0.60229935E+02</rscale>
<asrwt>0</asrwt>
<pdfrwt beam="1">  1       -2 0.17227280E+00 0.73238581E+02</pdfrwt>
<pdfrwt beam="2">  1       -1 0.36692582E-02 0.49531886E+02</pdfrwt>
<totfact> 0.40908782E+02</totfact>
</mgrwt>
</event>
<event>
 5    1  0.8459321E-003  0.5547358E+02  0.7546771E-02  0.1450620E+00
          1   -1    0    0  501    0 -0.00000000000E+00  0.00000000000E+00  0.68809555010E+02  0.68809555010E+02  0.00000000000E+00 0. -1.
          2   -1    0    0  502    0  0.00000000000E+00 -0.00000000000E+00 -0.64916441287E+03  0.64916441287E+03  0.00000000000E+00 0. -1.
         25    1    1    2    0    0  0.43186850416E+02 -0.56926308200E+02 -0.20997519738E+03  0.25459829561E+03  0.12500000000E+03 0.  0.
          2    1    1    2  501    0 -0.43310166944E+02  0.16776166760E+01  0.34094606896E+02  0.55145509135E+02  0.00000000000E+00 0. -1.
          1    1    1    2  502    0  0.12331652767E+00  0.55248691523E+02 -0.40447426738E+03  0.40823016313E+03  0.00000000000E+00 0. -1.
<mgrwt>
<rscale>  0 0.49034392E+02</rscale>
<asrwt>0</asrwt>
<pdfrwt beam="2">  1        2 0.99871449E-01 0.55473577E+02</pdfrwt>
<pdfrwt beam="1">  1        1 0.10586085E-01 0.43342646E+02</pdfrwt>
<totfact> 0.34475162E+03</totfact>
</mgrwt>
</event>
<event>
 5    1  0.8459321E-003  0.5844007E+02  0.7546771E-02  0.1433367E+00
          2   -1    0    0  502    0  0.00000000000E+00  0.00000000000E+00  0.31373447573E+04  0.31373447573E+04  0.00000000000E+00 0. -1.
          1   -1    0    0  501    0 -0.00000000000E+00 -0.00000000000E+00 -0.15494719153E+03  0.15494719153E+03  0.00000000000E+00 0. -1.
         25    1    1    2    0    0  0.37141793553E+02 -0.81426949475E+02  0.17670614123E+03  0.23422194875E+03  0.12500000000E+03 0.  0.
          2    1    1    2  501    0 -0.40574137978E+02  0.23297617013E+02 -0.12155293476E+03  0.13024651849E+03  0.00000000000E+00 0. -1.
          1    1    1    2  502    0  0.34323444249E+01  0.58129332462E+02  0.29272443593E+04  0.29278234815E+04  0.00000000000E+00 0. -1.
<mgrwt>
<rscale>  0 0.52290015E+02</rscale>
<asrwt>0</asrwt>
<pdfrwt beam="1">  1        2 0.48266838E+00 0.58440068E+02</pdfrwt>
<pdfrwt beam="2">  1        1 0.23838032E-01 0.46787174E+02</pdfrwt>
<totfact> 0.58701678E+01</totfact>
</mgrwt>
</event>
<event>
 5    1  0.8459321E-003  0.1359399E+03  0.7546771E-02  0.1377335E+00
          2   -1    0    0  502    0  0.00000000000E+00  0.00000000000E+00  0.15563761844E+04  0.15563761844E+04  0.00000000000E+00 0. -1.
          1   -1    0    0  501    0 -0.00000000000E+00 -0.00000000000E+00 -0.62944854366E+03  0.62944854366E+03  0.00000000000E+00 0. -1.
         25    1    1    2    0    0  0.57308961727E+02  0.10856650664E+03  0.30009683122E+02  0.17775428135E+03  0.12500000000E+03 0.  0.
          2    1    1    2  501    0 -0.20981110521E+02  0.23148911529E+02 -0.55192028387E+03  0.55280383397E+03  0.00000000000E+00 0. -1.
          1    1    1    2  502    0 -0.36327851206E+02 -0.13171541816E+03  0.14488382415E+04  0.14552666127E+04  0.00000000000E+00 0. -1.
<mgrwt>
<rscale>  0 0.65169550E+02</rscale>
<asrwt>0</asrwt>
<pdfrwt beam="1">  1        2 0.23944249E+00 0.13593990E+03</pdfrwt>
<pdfrwt beam="2">  1        1 0.96838238E-01 0.31242265E+02</pdfrwt>
<totfact> 0.65650102E+01</totfact>
</mgrwt>
</event>
<event>
 5    1  0.8459321E-003  0.6199248E+02  0.7546771E-02  0.1478231E+00
          2   -1    0    0  502    0  0.00000000000E+00  0.00000000000E+00  0.44900899679E+03  0.44900899679E+03  0.00000000000E+00 0. -1.
          1   -1    0    0  501    0 -0.00000000000E+00 -0.00000000000E+00 -0.13124364693E+04  0.13124364693E+04  0.00000000000E+00 0. -1.
         25    1    1    2    0    0 -0.68081164738E+02  0.80887041270E+01 -0.28238507389E+02  0.14533714400E+03  0.12500000000E+03 0.  0.
          2    1    1    2  501    0  0.10107084604E+02 -0.30125164526E+02 -0.12229781125E+04  0.12233908379E+04  0.00000000000E+00 0. -1.
          1    1    1    2  502    0  0.57974080135E+02  0.22036460399E+02  0.38778914737E+03  0.39271748417E+03  0.00000000000E+00 0. -1.
<mgrwt>
<rscale>  0 0.44382862E+02</rscale>
<asrwt>0</asrwt>
<pdfrwt beam="1">  1        2 0.69078309E-01 0.61992480E+02</pdfrwt>
<pdfrwt beam="2">  1        1 0.20191330E+00 0.31775442E+02</pdfrwt>
<totfact> 0.11242139E+02</totfact>
</mgrwt>
</event>
<event>
 5    1  0.8459321E-003  0.1550239E+03  0.7546771E-02  0.1221429E+00
          2   -1    0    0  502    0  0.00000000000E+00  0.00000000000E+00  0.11290831622E+04  0.11290831622E+04  0.00000000000E+00 0. -1.
         -2   -1    0    0    0  501 -0.00000000000E+00 -0.00000000000E+00 -0.19221020506E+03  0.19221020506E+03  0.00000000000E+00 0.  1.
         25    1    1    2    0    0  0.16118586526E+03  0.49215721666E+02 -0.11040074222E+02  0.21011890361E+03  0.12500000000E+03 0.  0.
          1    1    1    2  502    0 -0.81514258383E+02 -0.13363984187E+03  0.97865149190E+03  0.99109178397E+03  0.00000000000E+00 0. -1.
         -1    1    1    2    0  501 -0.79671606873E+02  0.84424120204E+02 -0.30738460494E+02  0.12008267971E+03  0.00000000000E+00 0.  1.
<mgrwt>
<rscale>  0 0.13414718E+03</rscale>
<asrwt>0</asrwt>
<pdfrwt beam="1">  1        2 0.17370510E+00 0.15502395E+03</pdfrwt>
<pdfrwt beam="2">  1       -2 0.29570801E-01 0.11608185E+03</pdfrwt>
<totfact> 0.23677649E+02</totfact>
</mgrwt>
</event>
<event>
 5    1  0.8459321E-003  0.4657489E+02  0.7546771E-02  0.1538423E+00
          1   -1    0    0  501    0 -0.00000000000E+00  0.00000000000E+00  0.22469688333E+03  0.22469688333E+03  0.00000000000E+00 0. -1.
          2   -1    0    0  502    0  0.00000000000E+00 -0.00000000000E+00 -0.11783875001E+04  0.11783875001E+04  0.00000000000E+00 0. -1.
         25    1    1    2    0    0 -0.59318524964E+02  0.33574606825E+02  0.15646700293E+02  0.14323323936E+03  0.12500000000E+03 0.  0.
          2    1    1    2  501    0  0.44473435711E+02 -0.97225798065E+01  0.14150813173E+03  0.14865048398E+03  0.00000000000E+00 0. -1.
          1    1    1    2  502    0  0.14845089253E+02 -0.23852027018E+02 -0.11108454488E+04  0.11112006601E+04  0.00000000000E+00 0. -1.
<mgrwt>
<rscale>  0 0.36173112E+02</rscale>
<asrwt>0</asrwt>
<pdfrwt beam="2">  1        2 0.18129039E+00 0.28094410E+02</pdfrwt>
<pdfrwt beam="1">  1        1 0.34568751E-01 0.46574889E+02</pdfrwt>
<totfact> 0.40087542E+02</totfact>
</mgrwt>
</event>
<event>
 5    1  0.8459321E-003  0.1736241E+03  0.7546771E-02  0.1285924E+00
          2   -1    0    0  502    0  0.00000000000E+00  0.00000000000E+00  0.10605199857E+04  0.10605199857E+04  0.00000000000E+00 0. -1.
          1   -1    0    0  501    0 -0.00000000000E+00 -0.00000000000E+00 -0.16732951825E+03  0.16732951825E+03  0.00000000000E+00 0. -1.
         25    1    1    2    0    0 -0.56049694385E+01  0.13292705394E+03  0.20875631337E+03  0.27731789650E+03  0.12500000000E+03 0.  0.
          2    1    1    2  501    0  0.11576990842E+02  0.53365428600E+02 -0.11625147128E+03  0.12843792377E+03  0.00000000000E+00 0. -1.
          1    1    1    2  502    0 -0.59720214030E+01 -0.18629248254E+03  0.80068562537E+03  0.82209368369E+03  0.00000000000E+00 0. -1.
<mgrwt>
<rscale>  0 0.97370666E+02</rscale>
<asrwt>0</asrwt>
<pdfrwt beam="1">  1        2 0.16315692E+00 0.17362412E+03</pdfrwt>
<pdfrwt beam="2">  1        1 0.25743004E-01 0.54606737E+02</pdfrwt>
<totfact> 0.59700159E+02</totfact>
</mgrwt>
</event>
<event>
 5    1  0.8459321E-003  0.8779297E+02  0.7546771E-02  0.1314221E+00
          1   -1    0    0  501    0 -0.00000000000E+00  0.00000000000E+00  0.16437807246E+04  0.16437807246E+04  0.00000000000E+00 0. -1.
          2   -1    0    0  502    0  0.00000000000E+00 -0.00000000000E+00 -0.20864935685E+04  0.20864935685E+04  0.00000000000E+00 0. -1.
         25    1    1    2    0    0  0.43715378767E+02  0.46607264212E+02 -0.48992527983E+03  0.50964208150E+03  0.12500000000E+03 0.  0.
          2    1    1    2  501    0 -0.79935717192E+02  0.36302699041E+02  0.16314513493E+04  0.16338118344E+04  0.00000000000E+00 0. -1.
          1    1    1    2  502    0  0.36220338425E+02 -0.82909963253E+02 -0.15842389134E+04  0.15868203772E+04  0.00000000000E+00 0. -1.
<mgrwt>
<rscale>  0 0.85464897E+02</rscale>
<asrwt>0</asrwt>
<pdfrwt beam="2">  1        2 0.32099901E+00 0.83198564E+02</pdfrwt>
<pdfrwt beam="1">  1        1 0.25288934E+00 0.87792966E+02</pdfrwt>
<totfact> 0.67573671E+00</totfact>
</mgrwt>
</event>
<event>
 5    1  0.8459321E-003  0.6032255E+02  0.7546771E-02  0.1443951E+00
         -2   -1    0    0    0  501 -0.00000000000E+00  0.00000000000E+00  0.12127243898E+04  0.12127243898E+04  0.00000000000E+00 0.  1.
          2   -1    0    0  502    0  0.00000000000E+00 -0.00000000000E+00 -0.51507788315E+03  0.51507788315E+03  0.00000000000E+00 0. -1.
         25    1    1    2    0    0  0.13278341092E+02  0.26788146908E+02  0.25365500995E+03  0.28435854696E+03  0.12500000000E+03 0.  0.
          1    1    1    2  502    0 -0.22578418919E+02  0.35265220543E+02 -0.49780313570E+03  0.49956119014E+03  0.00000000000E+00 0. -1.
         -1    1    1    2    0  501  0.93000778271E+01 -0.62053367452E+02  0.94179463240E+03  0.94388253585E+03  0.00000000000E+00 0.  1.
<mgrwt>
<rscale>  0 0.50258714E+02</rscale>
<asrwt>0</asrwt>
<pdfrwt beam="2">  1        2 0.79242752E-01 0.41873868E+02</pdfrwt>
<pdfrwt beam="1">  1       -2 0.18657298E+00 0.60322546E+02</pdfrwt>
<totfact> 0.12122534E+01</totfact>
</mgrwt>
</event>
<event>
 5    1  0.8459321E-003  0.1399823E+03  0.7546771E-02  0.1319201E+00
         -2   -1    0    0    0  501 -0.00000000000E+00  0.00000000000E+00  0.33054781726E+03  0.33054781726E+03  0.00000000000E+00 0.  1.
          2   -1    0    0  502    0  0.00000000000E+00 -0.00000000000E+00 -0.85689380771E+03  0.85689380771E+03  0.00000000000E+00 0. -1.
         25    1    1    2    0    0  0.11021184835E+03 -0.13592476767E+03  0.11580264473E+03  0.24424873901E+03  0.12500000000E+03 0.  0.
          3    1    1    2  502    0 -0.10908330465E+03  0.86039674051E+02 -0.78223927656E+03  0.79448113801E+03  0.00000000000E+00 0. -1.
         -1    1    1    2    0  501 -0.11285436950E+01  0.49885093617E+02  0.14009064138E+03  0.14871174795E+03  0.00000000000E+00 0.  1.
<mgrwt>
<rscale>  0 0.83575222E+02</rscale>
<asrwt>0</asrwt>
<pdfrwt beam="2">  1        2 0.13182981E+00 0.13998232E+03</pdfrwt>
<pdfrwt beam="1">  1       -2 0.50853511E-01 0.49897857E+02</pdfrwt>
<totfact> 0.12524101E+02</totfact>
</mgrwt>
</event>
<event>
 5    1  0.8459321E-003  0.9157971E+02  0.7546771E-02  0.1424757E+00
          2   -1    0    0  502    0  0.00000000000E+00  0.00000000000E+00  0.22790116118E+02  0.22790116118E+02  0.00000000000E+00 0. -1.
          1   -1    0    0  501    0 -0.00000000000E+00 -0.00000000000E+00 -0.15089312576E+04  0.15089312576E+04  0.00000000000E+00 0. -1.
         25    1    1    2    0    0 -0.68337927624E+02 -0.50268858894E+02 -0.11988092497E+04  0.12082903822E+04  0.12500000000E+03 0.  0.
          2    1    1    2  501    0 -0.14038114675E+02 -0.28615102432E+02 -0.90413413141E+02  0.95866980899E+02  0.00000000000E+00 0. -1.
          1    1    1    2  502    0  0.82376042299E+02  0.78883961327E+02 -0.19691847857E+03  0.22756401056E+03  0.00000000000E+00 0. -1.
<mgrwt>
<rscale>  0 0.54027093E+02</rscale>
<asrwt>0</asrwt>
<pdfrwt beam="1">  1        2 0.35061719E-02 0.31873073E+02</pdfrwt>
<pdfrwt beam="2">  1        1 0.23214326E+00 0.91579711E+02</pdfrwt>
<totfact> 0.21274766E+03</totfact>
</mgrwt>
</event>
<event>
 5    1  0.8459321E-003  0.5044360E+02  0.7546771E-02  0.1507481E+00
         -2   -1    0    0    0  501 -0.00000000000E+00  0.00000000000E+00  0.12621229193E+02  0.12621229193E+02  0.00000000000E+00 0.  1.
          2   -1    0    0  502    0  0.00000000000E+00 -0.00000000000E+00 -0.11711610443E+04  0.11711610443E+04  0.00000000000E+00 0. -1.
         25    1    1    2    0    0  0.41871265374E+02 -0.50112793051E+01 -0.46905240779E+03  0.48725093847E+03  0.12500000000E+03 0.  0.
          1    1    1    2  502    0  0.35079784801E+01 -0.31682908447E+02 -0.39706429061E+03  0.39834176718E+03  0.00000000000E+00 0. -1.
         -1    1    1    2    0  501 -0.45379243854E+02  0.36694187752E+02 -0.29242311669E+03  0.29818956783E+03  0.00000000000E+00 0.  1.
<mgrwt>
<rscale>  0 0.40099458E+02</rscale>
<asrwt>0</asrwt>
<pdfrwt beam="2">  1        2 0.18017866E+00 0.31876521E+02</pdfrwt>
<pdfrwt beam="1">  1       -2 0.19417272E-02 0.50443602E+02</pdfrwt>
<totfact> 0.15395022E+04</totfact>
</mgrwt>
</event>
<event>
 5    1  0.8459321E-003  0.4007646E+02  0.7546771E-02  0.1578550E+00
          1   -1    0    0  501    0 -0.00000000000E+00  0.00000000000E+00  0.51381535742E+03  0.51381535742E+03  0.00000000000E+00 0. -1.
          2   -1    0    0  502    0  0.00000000000E+00 -0.00000000000E+00 -0.89173374619E+03  0.89173374619E+03  0.00000000000E+00 0. -1.
         25    1    1    2    0    0 -0.83641304590E+01 -0.32007554035E+02  0.18322577439E+03  0.22425683177E+03  0.12500000000E+03 0.  0.
          2    1    1    2  501    0  0.24893538814E+02 -0.45370672500E+01  0.30909515147E+03  0.31012914393E+03  0.00000000000E+00 0. -1.
          1    1    1    2  502    0 -0.16529408355E+02  0.36544621285E+02 -0.87023931464E+03  0.87116312791E+03  0.00000000000E+00 0. -1.
<mgrwt>
<rscale>  0 0.31844615E+02</rscale>
<asrwt>0</asrwt>
<pdfrwt beam="2">  1        2 0.13718981E+00 0.40076456E+02</pdfrwt>
<pdfrwt beam="1">  1        1 0.79048517E-01 0.25303621E+02</pdfrwt>
<totfact> 0.21116483E+02</totfact>
</mgrwt>
</event>
<event>
 5    1  0.8459321E-003  0.6667250E+02  0.7546771E-02  0.1526943E+00
          2   -1    0    0  502    0  0.00000000000E+00  0.00000000000E+00  0.81593785363E+03  0.81593785363E+03  0.00000000000E+00 0. -1.
          1   -1    0    0  501    0 -0.00000000000E+00 -0.00000000000E+00 -0.39944146571E+02  0.39944146571E+02  0.00000000000E+00 0. -1.
         25    1    1    2    0    0  0.38310493833E+01  0.56093900284E+02  0.23917565066E+03  0.27566500405E+03  0.12500000000E+03 0.  0.
          2    1    1    2  501    0  0.13704885378E+02 -0.67943215553E+02  0.34445696478E+02  0.77399033771E+02  0.00000000000E+00 0. -1.
          1    1    1    2  502    0 -0.17535934761E+02  0.11849315269E+02  0.50237235993E+03  0.50281796239E+03  0.00000000000E+00 0. -1.
<mgrwt>
<rscale>  0 0.37564044E+02</rscale>
<asrwt>0</asrwt>
<pdfrwt beam="1">  1        2 0.12552889E+00 0.21164009E+02</pdfrwt>
<pdfrwt beam="2">  1        1 0.61452539E-02 0.66672502E+02</pdfrwt>
<totfact> 0.57831221E+03</totfact>
</mgrwt>
</event>
<event>
 5    1  0.8459321E-003  0.9493019E+02  0.7546771E-02  0.1316517E+00
          1   -1    0    0  501    0 -0.00000000000E+00  0.00000000000E+00  0.16678039980E+03  0.16678039980E+03  0.00000000000E+00 0. -1.
          2   -1    0    0  502    0  0.00000000000E+00 -0.00000000000E+00 -0.15629293037E+04  0.15629293037E+04  0.00000000000E+00 0. -1.
         25    1    1    2    0    0 -0.19601763176E+02 -0.15390727382E+02  0.82190086034E+02  0.15166184046E+03  0.12500000000E+03 0.  0.
          2    1    1    2  501    0 -0.75344643779E+02  0.19543618108E+01  0.18930348810E+02  0.77710957930E+02  0.00000000000E+00 0. -1.
          1    1    1    2  502    0  0.94946406955E+02  0.13436365571E+02 -0.14972693387E+04  0.15003369051E+04  0.00000000000E+00 0. -1.
<mgrwt>
<rscale>  0 0.84586564E+02</rscale>
<asrwt>0</asrwt>
<pdfrwt beam="2">  1        2 0.24045067E+00 0.94930186E+02</pdfrwt>
<pdfrwt beam="1">  1        1 0.25658523E-01 0.75369987E+02</pdfrwt>
<totfact> 0.33753411E+02</totfact>
</mgrwt>
</event>
<event>
 5    1  0.8459321E-003  0.7733661E+02  0.7546771E-02  0.1431778E+00
         -2   -1    0    0    0  501 -0.00000000000E+00  0.00000000000E+00  0.64786491635E+03  0.64786491635E+03  0.00000000000E+00 0.  1.
          2   -1    0    0  502    0  0.00000000000E+00 -0.00000000000E+00 -0.72156461986E+02  0.72156461986E+02  0.00000000000E+00 0. -1.
         25    1    1    2    0    0 -0.91121452282E+02  0.52785688069E+02  0.17844989153E+03  0.24198928017E+03  0.12500000000E+03 0.  0.
          1    1    1    2  502    0  0.20138734050E+02 -0.29576907207E+02 -0.28517637690E+02  0.45756067451E+02  0.00000000000E+00 0. -1.
         -1    1    1    2    0  501  0.70982718232E+02 -0.23208780861E+02  0.42577620053E+03  0.43227603072E+03  0.00000000000E+00 0.  1.
<mgrwt>
<rscale>  0 0.52604849E+02</rscale>
<asrwt>0</asrwt>
<pdfrwt beam="2">  1        2 0.11100995E-01 0.35782147E+02</pdfrwt>
<pdfrwt beam="1">  1       -2 0.99671522E-01 0.77336614E+02</pdfrwt>
<totfact> 0.44722611E+02</totfact>
</mgrwt>
</event>
<event>
 5    1  0.8459321E-003  0.2272586E+02  0.7546771E-02  0.1719572E+00
          2   -1    0    0  502    0  0.00000000000E+00  0.00000000000E+00  0.38758642974E+03  0.38758642974E+03  0.00000000000E+00 0. -1.
          1   -1    0    0  501    0 -0.00000000000E+00 -0.00000000000E+00 -0.36903062003E+03  0.36903062003E+03  0.00000000000E+00 0. -1.
         25    1    1    2    0    0  0.18080230290E+02  0.13984227342E+02  0.90062367313E+02  0.15575199308E+03  0.12500000000E+03 0.  0.
          2    1    1    2  501    0 -0.22027890317E+02  0.56989359841E+01 -0.33541917035E+03  0.33619001422E+03  0.00000000000E+00 0. -1.
          1    1    1    2  502    0  0.39476600273E+01 -0.19683163326E+02  0.26391261275E+03  0.26467504247E+03  0.00000000000E+00 0. -1.
<mgrwt>
<rscale>  0 0.21359416E+02</rscale>
<asrwt>0</asrwt>
<pdfrwt beam="1">  1        2 0.59628682E-01 0.20075132E+02</pdfrwt>
<pdfrwt beam="2">  1        1 0.56773941E-01 0.22725861E+02</pdfrwt>
<totfact> 0.77156508E+02</totfact>
</mgrwt>
</event>
<event>
 5    1  0.8459321E-003  0.7079360E+02  0.7546771E-02  0.1435913E+00
          2   -1    0    0  502    0  0.00000000000E+00  0.00000000000E+00  0.54130236345E+03  0.54130236345E+03  0.00000000000E+00 0. -1.
         -2   -1    0    0    0  501 -0.00000000000E+00 -0.00000000000E+00 -0.16565003184E+04  0.16565003184E+04  0.00000000000E+00 0.  1.
         25    1    1    2    0    0 -0.17607377438E+02 -0.10550734496E+03 -0.11061856123E+03  0.19825056284E+03  0.12500000000E+03 0.  0.
          1    1    1    2  502    0  0.13192258700E+02  0.35518755417E+02  0.49594482138E+03  0.49739007181E+03  0.00000000000E+00 0. -1.
         -1    1    1    2    0  501  0.44151187385E+01  0.69988589538E+02 -0.15005242151E+04  0.15021620472E+04  0.00000000000E+00 0.  1.
<mgrwt>
<rscale>  0 0.51791288E+02</rscale>
<asrwt>0</asrwt>
<pdfrwt beam="1">  1        2 0.83277287E-01 0.37889546E+02</pdfrwt>
<pdfrwt beam="2">  1       -2 0.25484620E+00 0.70793603E+02</pdfrwt>
<totfact> 0.45246313E+00</totfact>
</mgrwt>
</event>
<event>
 5    1  0.8459321E-003  0.6292526E+02  0.7546771E-02  0.1458971E+00
          2   -1    0    0  502    0  0.00000000000E+00  0.00000000000E+00  0.11543431801E+03  0.11543431801E+03  0.00000000000E+00 0. -1.
          1   -1    0    0  501    0 -0.00000000000E+00 -0.00000000000E+00 -0.42186278289E+03  0.42186278289E+03  0.00000000000E+00 0. -1.
         25    1    1    2    0    0 -0.25959307742E+02 -0.24874481194E+02 -0.49235314898E+02  0.13907459044E+03  0.12500000000E+03 0.  0.
          2    1    1    2  501    0  0.23529479338E+02  0.60737291860E+02 -0.31961847994E+03  0.32618802514E+03  0.00000000000E+00 0. -1.
          1    1    1    2  502    0  0.24298284044E+01 -0.35862810666E+02  0.62425329963E+02  0.72034485324E+02  0.00000000000E+00 0. -1.
<mgrwt>
<rscale>  0 0.47558916E+02</rscale>
<asrwt>0</asrwt>
<pdfrwt beam="1">  1        2 0.17759126E-01 0.35945031E+02</pdfrwt>
<pdfrwt beam="2">  1        1 0.64901967E-01 0.62925262E+02</pdfrwt>
<totfact> 0.22919207E+03</totfact>
</mgrwt>
</event>
<event>
 5    1  0.8459321E-003  0.6697506E+02  0.7546771E-02  0.1377317E+00
          2   -1    0    0  502    0  0.00000000000E+00  0.00000000000E+00  0.15616694925E+04  0.15616694925E+04  0.00000000000E+00 0. -1.
         -2   -1    0    0    0  501 -0.00000000000E+00 -0.00000000000E+00 -0.26728081135E+03  0.26728081135E+03  0.00000000000E+00 0.  1.
         25    1    1    2    0    0 -0.67576579917E+02 -0.69710229717E+02  0.45083717996E+03  0.47781301062E+03  0.12500000000E+03 0.  0.
          1    1    1    2  502    0  0.66004916398E+02  0.63078765260E+01  0.10923611727E+04  0.10943716781E+04  0.00000000000E+00 0. -1.
         -1    1    1    2    0  501  0.15716635199E+01  0.63402353191E+02 -0.24880967145E+03  0.25676561515E+03  0.00000000000E+00 0.  1.
<mgrwt>
<rscale>  0 0.65174236E+02</rscale>
<asrwt>0</asrwt>
<pdfrwt beam="1">  1        2 0.24025684E+00 0.66975063E+02</pdfrwt>
<pdfrwt beam="2">  1       -2 0.41120126E-01 0.63421830E+02</pdfrwt>
<totfact> 0.80432011E+01</totfact>
</mgrwt>
</event>
<event>
 5    1  0.8459321E-003  0.6957276E+02  0.7546771E-02  0.1414927E+00
          1   -1    0    0  501    0 -0.00000000000E+00  0.00000000000E+00  0.11544122578E+04  0.11544122578E+04  0.00000000000E+00 0. -1.
          2   -1    0    0  502    0  0.00000000000E+00 -0.00000000000E+00 -0.10010496904E+04  0.10010496904E+04  0.00000000000E+00 0. -1.
         25    1    1    2    0    0 -0.68576016579E+02 -0.91667911684E+02 -0.51418655932E+03  0.54140418716E+03  0.12500000000E+03 0.  0.
          2    1    1    2  501    0  0.44544711551E+02  0.53325918696E+02  0.11386603447E+04  0.11407783596E+04  0.00000000000E+00 0. -1.
          3    1    1    2  502    0  0.24031305028E+02  0.38341992988E+02 -0.47111121808E+03  0.47327940146E+03  0.00000000000E+00 0. -1.
<mgrwt>
<rscale>  0 0.56108871E+02</rscale>
<asrwt>0</asrwt>
<pdfrwt beam="2">  1        2 0.15400764E+00 0.45250547E+02</pdfrwt>
<pdfrwt beam="1">  1        1 0.17760189E+00 0.69572759E+02</pdfrwt>
<totfact> 0.53819923E+01</totfact>
</mgrwt>
</event>
<event>
 5    1  0.8459321E-003  0.1131046E+03  0.7546771E-02  0.1394654E+00
          1   -1    0    0  501    0 -0.00000000000E+00  0.00000000000E+00  0.57980363883E+03  0.57980363883E+03  0.00000000000E+00 0. -1.
          2   -1    0    0  502    0  0.00000000000E+00 -0.00000000000E+00 -0.14957372561E+03  0.14957372561E+03  0.00000000000E+00 0. -1.
         25    1    1    2    0    0  0.18874717690E+02 -0.12919093870E+03 -0.14082500565E+02  0.18130049760E+03  0.12500000000E+03 0.  0.
          2    1    1    2  501    0 -0.19267299831E+02  0.26352017097E+02  0.44403848719E+03  0.44523683108E+03  0.00000000000E+00 0. -1.
          1    1    1    2  502    0  0.39258214063E+00  0.10283892160E+03  0.27392659942E+00  0.10284003575E+03  0.00000000000E+00 0. -1.
<mgrwt>
<rscale>  0 0.60763758E+02</rscale>
<asrwt>0</asrwt>
<pdfrwt beam="2">  1        2 0.23011343E-01 0.11310463E+03</pdfrwt>
<pdfrwt beam="1">  1        1 0.89200558E-01 0.32644412E+02</pdfrwt>
<totfact> 0.12337711E+03</totfact>
</mgrwt>
</event>
<event>
 5    1  0.8459321E-003  0.7366816E+02  0.7546771E-02  0.1454753E+00
         -2   -1    0    0    0  501 -0.00000000000E+00  0.00000000000E+00  0.12649396042E+03  0.12649396042E+03  0.00000000000E+00 0.  1.
          2   -1    0    0  502    0  0.00000000000E+00 -0.00000000000E+00 -0.17186430162E+03  0.17186430162E+03  0.00000000000E+00 0. -1.
         25    1    1    2    0    0 -0.56425342742E+02  0.10094683792E-01 -0.83598606500E+02  0.16061614618E+03  0.12500000000E+03 0.  0.
          1    1    1    2  502    0 -0.15154337459E+02  0.27800650785E+02 -0.23323792499E+02  0.39325938316E+02  0.00000000000E+00 0. -1.
         -1    1    1    2    0  501  0.71579680201E+02 -0.27810745469E+02  0.61552057798E+02  0.98416177534E+02  0.00000000000E+00 0.  1.
<mgrwt>
<rscale>  0 0.48296344E+02</rscale>
<asrwt>0</asrwt>
<pdfrwt beam="2">  1        2 0.26440662E-01 0.31662756E+02</pdfrwt>
<pdfrwt beam="1">  1       -2 0.19460609E-01 0.73668157E+02</pdfrwt>
<totfact> 0.39763071E+03</totfact>
</mgrwt>
</event>
<event>
 5    1  0.8459321E-003  0.9092912E+02  0.7546771E-02  0.1343584E+00
         -2   -1    0    0    0  501  0.00000000000E+00  0.00000000000E+00  0.12576431671E+03  0.12576431671E+03  0.00000000000E+00 0.  1.
         -1   -1    0    0    0  502 -0.00000000000E+00 -0.00000000000E+00 -0.38021021472E+03  0.38021021472E+03  0.00000000000E+00 0.  1.
         25    1    1    2    0    0 -0.58877437478E+02 -0.80034303672E+02 -0.32675186776E+02  0.16298684069E+03  0.12500000000E+03 0.  0.
         -2    1    1    2    0  502  0.88536271559E+02  0.25572072715E+02 -0.25605049635E+03  0.27212948933E+03  0.00000000000E+00 0.  1.
         -3    1    1    2    0  501 -0.29658834081E+02  0.54462230957E+02  0.34279785115E+02  0.70858201412E+02  0.00000000000E+00 0.  1.
<mgrwt>
<rscale>  0 0.75092683E+02</rscale>
<asrwt>0</asrwt>
<pdfrwt beam="1">  1       -2 0.19348357E-01 0.62014362E+02</pdfrwt>
<pdfrwt beam="2">  1       -1 0.58493879E-01 0.90929117E+02</pdfrwt>
<totfact> 0.48515842E+02</totfact>
</mgrwt>
</event>
<event>
 5    1  0.8459321E-003  0.6572109E+02  0.7546771E-02  0.1533399E+00
          1   -1    0    0  501    0 -0.00000000000E+00  0.00000000000E+00  0.50933199165E+03  0.50933199165E+03  0.00000000000E+00 0. -1.
          2   -1    0    0  502    0  0.00000000000E+00 -0.00000000000E+00 -0.11505477121E+04  0.11505477121E+04  0.00000000000E+00 0. -1.
         25    1    1    2    0    0 -0.83693810476E+02  0.14243561212E+02 -0.61093886404E+02  0.16298771703E+03  0.12500000000E+03 0.  0.
          2    1    1    2  501    0  0.20457143359E+02  0.22027190533E+01  0.45712567493E+03  0.45758849348E+03  0.00000000000E+00 0. -1.
          1    1    1    2  502    0  0.63236667117E+02 -0.16446280265E+02 -0.10372475090E+04  0.10393034933E+04  0.00000000000E+00 0. -1.
<mgrwt>
<rscale>  0 0.36772776E+02</rscale>
<asrwt>0</asrwt>
<pdfrwt beam="2">  1        2 0.17700734E+00 0.65721090E+02</pdfrwt>
<pdfrwt beam="1">  1        1 0.78358769E-01 0.20575390E+02</pdfrwt>
<totfact> 0.14895970E+02</totfact>
</mgrwt>
</event>
<event>
 5    1  0.8459321E-003  0.2023826E+03  0.7546771E-02  0.1193246E+00
          2   -1    0    0  502    0  0.00000000000E+00  0.00000000000E+00  0.98865536780E+03  0.98865536780E+03  0.00000000000E+00 0. -1.
          1   -1    0    0  501    0 -0.00000000000E+00 -0.00000000000E+00 -0.40694967232E+03  0.40694967232E+03  0.00000000000E+00 0. -1.
         25    1    1    2    0    0  0.26010396313E+03 -0.17670952054E+03 -0.26581647136E+00  0.33838646094E+03  0.12500000000E+03 0.  0.
          2    1    1    2  501    0 -0.94667734673E+02  0.74235714709E+02 -0.20982070013E+03  0.24186286927E+03  0.00000000000E+00 0. -1.
          1    1    1    2  502    0 -0.16543622846E+03  0.10247380583E+03  0.79179221208E+03  0.81535570991E+03  0.00000000000E+00 0. -1.
<mgrwt>
<rscale>  0 0.15603629E+03</rscale>
<asrwt>0</asrwt>
<pdfrwt beam="1">  1        2 0.15210083E+00 0.20238258E+03</pdfrwt>
<pdfrwt beam="2">  1        1 0.62607642E-01 0.12030346E+03</pdfrwt>
<totfact> 0.22214171E+02</totfact>
</mgrwt>
</event>
<event>
 5    1  0.8459321E-003  0.6923883E+02  0.7546771E-02  0.1399317E+00
         -1   -1    0    0    0  501 -0.00000000000E+00  0.00000000000E+00  0.27316840337E+03  0.27316840337E+03  0.00000000000E+00 0.  1.
          1   -1    0    0  502    0  0.00000000000E+00 -0.00000000000E+00 -0.68544617128E+03  0.68544617128E+03  0.00000000000E+00 0. -1.
         25    1    1    2    0    0 -0.63405734261E+02  0.28935537063E+02 -0.37541595451E+03  0.40177069498E+03  0.12500000000E+03 0.  0.
          2    1    1    2  502    0  0.29648080051E+02 -0.67675805750E+02 -0.28963001010E+03  0.29890561400E+03  0.00000000000E+00 0. -1.
         -2    1    1    2    0  501  0.33757654210E+02  0.38740268687E+02  0.25276819669E+03  0.25793826567E+03  0.00000000000E+00 0.  1.
<mgrwt>
<rscale>  0 0.59647438E+02</rscale>
<asrwt>0</asrwt>
<pdfrwt beam="2">  1        1 0.10545326E+00 0.69238834E+02</pdfrwt>
<pdfrwt beam="1">  1       -1 0.42025908E-01 0.51384702E+02</pdfrwt>
<totfact> 0.17486603E+02</totfact>
</mgrwt>
</event>
<event>
 5    1  0.8459321E-003  0.1052765E+03  0.7546771E-02  0.1329292E+00
          1   -1    0    0  501    0 -0.00000000000E+00  0.00000000000E+00  0.24115898069E+04  0.24115898069E+04  0.00000000000E+00 0. -1.
          2   -1    0    0  502    0  0.00000000000E+00 -0.00000000000E+00 -0.38878994984E+02  0.38878994984E+02  0.00000000000E+00 0. -1.
         25    1    1    2    0    0  0.10008557432E+03 -0.64512511455E+02  0.24586250270E+03  0.30042029984E+03  0.12500000000E+03 0.  0.
          2    1    1    2  501    0 -0.47191018245E+02  0.94215304258E+02  0.20472923350E+04  0.20500022978E+04  0.00000000000E+00 0. -1.
          1    1    1    2  502    0 -0.52894556078E+02 -0.29702792802E+02  0.79555974197E+02  0.10004620429E+03  0.00000000000E+00 0. -1.
<mgrwt>
<rscale>  0 0.79915379E+02</rscale>
<asrwt>0</asrwt>
<pdfrwt beam="2">  1        2 0.59813857E-02 0.60663745E+02</pdfrwt>
<pdfrwt beam="1">  1        1 0.37101370E+00 0.10527652E+03</pdfrwt>
<totfact> 0.30843702E+02</totfact>
</mgrwt>
</event>
<event>
 5    1  0.8459321E-003  0.2623004E+03  0.7546771E-02  0.1281958E+00
          2   -1    0    0  502    0  0.00000000000E+00  0.00000000000E+00  0.38752611725E+03  0.38752611725E+03  0.00000000000E+00 0. -1.
          1   -1    0    0  501    0 -0.00000000000E+00 -0.00000000000E+00 -0.74811553464E+03  0.74811553464E+03  0.00000000000E+00 0. -1.
         25    1    1    2    0    0 -0.15779273854E+03  0.23153437537E+03 -0.40365429050E+03  0.50701923193E+03  0.12500000000E+03 0.  0.
          2    1    1    2  501    0  0.14698882779E+03 -0.19559616870E+03 -0.24020761343E+03  0.34287501259E+03  0.00000000000E+00 0. -1.
          1    1    1    2  502    0  0.10803910742E+02 -0.35938206674E+02  0.28327248654E+03  0.28574740736E+03  0.00000000000E+00 0. -1.
<mgrwt>
<rscale>  0 0.99213712E+02</rscale>
<asrwt>0</asrwt>
<pdfrwt beam="1">  1        2 0.59619403E-01 0.37527046E+02</pdfrwt>
<pdfrwt beam="2">  1        1 0.11509470E+00 0.26230044E+03</pdfrwt>
<totfact> 0.29063513E+02</totfact>
</mgrwt>
</event>
<event>
 5    1  0.8459321E-003  0.2528791E+03  0.7546771E-02  0.1216779E+00
          2   -1    0    0  502    0  0.00000000000E+00  0.00000000000E+00  0.21778785654E+04  0.21778785654E+04  0.00000000000E+00 0. -1.
         -2   -1    0    0    0  501 -0.00000000000E+00 -0.00000000000E+00 -0.55764727534E+03  0.55764727534E+03  0.00000000000E+00 0.  1.
         25    1    1    2    0    0 -0.50364027303E+02  0.28728196216E+03 -0.18014815587E+03  0.36489151688E+03  0.12500000000E+03 0.  0.
          1    1    1    2  502    0 -0.31370145063E+02 -0.67824616776E+02  0.20366202735E+04  0.20379907760E+04  0.00000000000E+00 0. -1.
         -1    1    1    2    0  501  0.81734172365E+02 -0.21945734538E+03 -0.23624082752E+03  0.33264354790E+03  0.00000000000E+00 0.  1.
<mgrwt>
<rscale>  0 0.13746684E+03</rscale>
<asrwt>0</asrwt>
<pdfrwt beam="1">  1        2 0.33505824E+00 0.74727937E+02</pdfrwt>
<pdfrwt beam="2">  1       -2 0.85791890E-01 0.25287910E+03</pdfrwt>
<totfact> 0.86084141E+00</totfact>
</mgrwt>
</event>
<event>
 5    1  0.8459321E-003  0.1312243E+03  0.7546771E-02  0.1292438E+00
         -2   -1    0    0    0  501 -0.00000000000E+00  0.00000000000E+00  0.39550340795E+03  0.39550340795E+03  0.00000000000E+00 0.  1.
          2   -1    0    0  502    0  0.00000000000E+00 -0.00000000000E+00 -0.81523098690E+03  0.81523098690E+03  0.00000000000E+00 0. -1.
         25    1    1    2    0    0 -0.17766246635E+03  0.54848057909E+02 -0.30608752933E+03  0.37932418459E+03  0.12500000000E+03 0.  0.
          1    1    1    2  502    0  0.48327506784E+02 -0.47794379924E+02 -0.45824916843E+03  0.46326250769E+03  0.00000000000E+00 0. -1.
         -1    1    1    2    0  501  0.12933495957E+03 -0.70536779857E+01  0.34460911881E+03  0.36814770256E+03  0.00000000000E+00 0.  1.
<mgrwt>
<rscale>  0 0.94441774E+02</rscale>
<asrwt>0</asrwt>
<pdfrwt beam="2">  1        2 0.12542015E+00 0.67969483E+02</pdfrwt>
<pdfrwt beam="1">  1       -2 0.60846679E-01 0.13122431E+03</pdfrwt>
<totfact> 0.95670960E+01</totfact>
</mgrwt>
</event>
<event>
 5    1  0.8459321E-003  0.2084920E+03  0.7546771E-02  0.1342537E+00
         -1   -1    0    0    0  501 -0.00000000000E+00  0.00000000000E+00  0.20023783248E+03  0.20023783248E+03  0.00000000000E+00 0.  1.
          1   -1    0    0  502    0  0.00000000000E+00 -0.00000000000E+00 -0.85576551304E+03  0.85576551304E+03  0.00000000000E+00 0. -1.
         25    1    1    2    0    0  0.13266847781E+03  0.13317382375E+03 -0.26966946505E+02  0.22735084900E+03  0.12500000000E+03 0.  0.
          2    1    1    2  502    0 -0.15920453235E+03 -0.13955033374E+03 -0.71098075206E+03  0.74183152303E+03  0.00000000000E+00 0. -1.
         -2    1    1    2    0  501  0.26536054539E+02  0.63765099924E+01  0.82420018006E+02  0.86820973493E+02  0.00000000000E+00 0.  1.
<mgrwt>
<rscale>  0 0.75432381E+02</rscale>
<asrwt>0</asrwt>
<pdfrwt beam="2">  1        1 0.13165623E+00 0.20849198E+03</pdfrwt>
<pdfrwt beam="1">  1       -1 0.30805821E-01 0.27291429E+02</pdfrwt>
<totfact> 0.19806125E+02</totfact>
</mgrwt>
</event>
<event>
 5    1  0.8459321E-003  0.2702464E+02  0.7546771E-02  0.1636398E+00
          1   -1    0    0  501    0 -0.00000000000E+00  0.00000000000E+00  0.14231634392E+04  0.14231634392E+04  0.00000000000E+00 0. -1.
          2   -1    0    0  502    0  0.00000000000E+00 -0.00000000000E+00 -0.21188660821E+03  0.21188660821E+03  0.00000000000E+00 0. -1.
         25    1    1    2    0    0  0.51944421327E+01  0.82176455882E+01  0.50324955516E+03  0.51863245820E+03  0.12500000000E+03 0.  0.
          2    1    1    2  501    0 -0.26664010005E+02  0.74527964668E+01  0.91114628609E+03  0.91156682052E+03  0.00000000000E+00 0. -1.
          1    1    1    2  502    0  0.21469567873E+02 -0.15670442055E+02 -0.20311901027E+03  0.20485076869E+03  0.00000000000E+00 0. -1.
<mgrwt>
<rscale>  0 0.26801482E+02</rscale>
<asrwt>0</asrwt>
<pdfrwt beam="2">  1        2 0.32597941E-01 0.26580164E+02</pdfrwt>
<pdfrwt beam="1">  1        1 0.21894822E+00 0.27024644E+02</pdfrwt>
<totfact> 0.20743972E+02</totfact>
</mgrwt>
</event>
<event>
 5    1  0.8459321E-003  0.4528730E+02  0.7546771E-02  0.1497335E+00
          2   -1    0    0  502    0  0.00000000000E+00  0.00000000000E+00  0.13657672944E+04  0.13657672944E+04  0.00000000000E+00 0. -1.
          1   -1    0    0  501    0 -0.00000000000E+00 -0.00000000000E+00 -0.17331140081E+03  0.17331140081E+03  0.00000000000E+00 0. -1.
         25    1    1    2    0    0  0.61571062479E+02 -0.27534314664E+02  0.69086596136E+03  0.70531546898E+03  0.12500000000E+03 0.  0.
          2    1    1    2  501    0 -0.37001983798E+02 -0.89151520082E+01 -0.16317068564E+03  0.16755088598E+03  0.00000000000E+00 0. -1.
          1    1    1    2  502    0 -0.24569078681E+02  0.36449466672E+02  0.66476061782E+03  0.66621234022E+03  0.00000000000E+00 0. -1.
<mgrwt>
<rscale>  0 0.41517130E+02</rscale>
<asrwt>0</asrwt>
<pdfrwt beam="1">  1        2 0.21011804E+00 0.45287298E+02</pdfrwt>
<pdfrwt beam="2">  1        1 0.26663293E-01 0.38060829E+02</pdfrwt>
<totfact> 0.42176815E+02</totfact>
</mgrwt>
</event>
<event>
 5    1  0.8459321E-003  0.1229090E+03  0.7546771E-02  0.1281083E+00
          1   -1    0    0  501    0 -0.00000000000E+00  0.00000000000E+00  0.10059074693E+04  0.10059074693E+04  0.00000000000E+00 0. -1.
          2   -1    0    0  502    0  0.00000000000E+00 -0.00000000000E+00 -0.18789878181E+04  0.18789878181E+04  0.00000000000E+00 0. -1.
         25    1    1    2    0    0 -0.11311205267E+01 -0.57983771838E+02  0.35601986924E+02  0.14232321913E+03  0.12500000000E+03 0.  0.
          2    1    1    2  501    0 -0.53888367282E+02  0.11709554620E+03  0.91151511038E+03  0.92058411865E+03  0.00000000000E+00 0. -1.
          1    1    1    2  502    0  0.55019487808E+02 -0.59111774358E+02 -0.18201974461E+04  0.18219879496E+04  0.00000000000E+00 0. -1.
<mgrwt>
<rscale>  0 0.99626808E+02</rscale>
<asrwt>0</asrwt>
<pdfrwt beam="2">  1        2 0.28907505E+00 0.80754851E+02</pdfrwt>
<pdfrwt beam="1">  1        1 0.15475500E+00 0.12290904E+03</pdfrwt>
<totfact> 0.22216600E+01</totfact>
</mgrwt>
</event>
<event>
 5    1  0.8459321E-003  0.1155816E+03  0.7546771E-02  0.1289650E+00
          1   -1    0    0  501    0 -0.00000000000E+00  0.00000000000E+00  0.25068158482E+04  0.25068158482E+04  0.00000000000E+00 0. -1.
          2   -1    0    0  502    0  0.00000000000E+00 -0.00000000000E+00 -0.48525094997E+04  0.48525094997E+04  0.00000000000E+00 0. -1.
         25    1    1    2    0    0 -0.11474367721E+02 -0.37938439317E+02  0.13920833613E+03  0.19124577679E+03  0.12500000000E+03 0.  0.
          2    1    1    2  501    0 -0.54931049109E+02 -0.57063709820E+02  0.23402227815E+04  0.23415628017E+04  0.00000000000E+00 0. -1.
          1    1    1    2  502    0  0.66405416830E+02  0.95002149137E+02 -0.48251247691E+04  0.48265167694E+04  0.00000000000E+00 0. -1.
<mgrwt>
<rscale>  0 0.95680875E+02</rscale>
<asrwt>0</asrwt>
<pdfrwt beam="2">  1        2 0.74653991E+00 0.11558164E+03</pdfrwt>
<pdfrwt beam="1">  1        1 0.38566398E+00 0.79206610E+02</pdfrwt>
<totfact> 0.24039341E-02</totfact>
</mgrwt>
</event>
<event>
 5    1  0.8459321E-003  0.8320785E+02  0.7546771E-02  0.1380947E+00
          1   -1    0    0  501    0 -0.00000000000E+00  0.00000000000E+00  0.28124772289E+03  0.28124772289E+03  0.00000000000E+00 0. -1.
          2   -1    0    0  502    0  0.00000000000E+00 -0.00000000000E+00 -0.11085195995E+04  0.11085195995E+04  0.00000000000E+00 0. -1.
         25    1    1    2    0    0  0.10158358468E+03  0.72194946580E+01 -0.35250096914E+03  0.38762517852E+03  0.12500000000E+03 0.  0.
          2    1    1    2  501    0 -0.69735870152E+02 -0.45189523728E+02  0.25627900083E+03  0.26941438512E+03  0.00000000000E+00 0. -1.
          1    1    1    2  502    0 -0.31847714529E+02  0.37970029070E+02 -0.73104990827E+03  0.73272775872E+03  0.00000000000E+00 0. -1.
<mgrwt>
<rscale>  0 0.64215408E+02</rscale>
<asrwt>0</asrwt>
<pdfrwt beam="2">  1        2 0.17054148E+00 0.49558047E+02</pdfrwt>
<pdfrwt beam="1">  1        1 0.43268880E-01 0.83207852E+02</pdfrwt>
<totfact> 0.32304779E+02</totfact>
</mgrwt>
</event>
<event>
 5    1  0.8459321E-003  0.7589503E+02  0.7546771E-02  0.1389649E+00
          1   -1    0    0  502    0  0.00000000000E+00  0.00000000000E+00  0.15373110515E+04  0.15373110515E+04  0.00000000000E+00 0. -1.
         -1   -1    0    0    0  501 -0.00000000000E+00 -0.00000000000E+00 -0.63813203408E+03  0.63813203408E+03  0.00000000000E+00 0.  1.
         25    1    1    2    0    0  0.67380775685E+02  0.70512402151E+02 -0.12074781836E+03  0.19929175454E+03  0.12500000000E+03 0.  0.
          2    1    1    2  502    0  0.50883510441E+01 -0.50383152187E+02  0.14946496620E+04  0.14955072602E+04  0.00000000000E+00 0. -1.
         -2    1    1    2    0  501 -0.72469126729E+02 -0.20129249964E+02 -0.47472282623E+03  0.48064407078E+03  0.00000000000E+00 0.  1.
<mgrwt>
<rscale>  0 0.61994211E+02</rscale>
<asrwt>0</asrwt>
<pdfrwt beam="1">  1        1 0.23650939E+00 0.50639445E+02</pdfrwt>
<pdfrwt beam="2">  1       -1 0.98174159E-01 0.75895031E+02</pdfrwt>
<totfact> 0.89639413E+00</totfact>
</mgrwt>
</event>
<event>
 5    1  0.8459321E-003  0.1157635E+03  0.7546771E-02  0.1267962E+00
         -1   -1    0    0    0  501 -0.00000000000E+00  0.00000000000E+00  0.96888233564E+03  0.96888233564E+03  0.00000000000E+00 0.  1.
          1   -1    0    0  502    0  0.00000000000E+00 -0.00000000000E+00 -0.99715835560E+03  0.99715835560E+03  0.00000000000E+00 0. -1.
         25    1    1    2    0    0 -0.56443283912E+02  0.14634816752E+03  0.24507109618E+03  0.31668355281E+03  0.12500000000E+03 0.  0.
          2    1    1    2  502    0  0.89840811355E+02 -0.37226982670E+02 -0.95413140543E+03  0.95907453227E+03  0.00000000000E+00 0. -1.
         -2    1    1    2    0  501 -0.33397527443E+02 -0.10912118485E+03  0.68078428929E+03  0.69028260616E+03  0.00000000000E+00 0.  1.
<mgrwt>
<rscale>  0 0.10610277E+03</rscale>
<asrwt>0</asrwt>
<pdfrwt beam="2">  1        1 0.15340898E+00 0.97248237E+02</pdfrwt>
<pdfrwt beam="1">  1       -1 0.14905882E+00 0.11576353E+03</pdfrwt>
<totfact> 0.70833393E+00</totfact>
</mgrwt>
</event>
<event>
 5    1  0.8459321E-003  0.1358135E+03  0.7546771E-02  0.1338960E+00
          1   -1    0    0  501    0 -0.00000000000E+00  0.00000000000E+00  0.19216217337E+04  0.19216217337E+04  0.00000000000E+00 0. -1.
          2   -1    0    0  502    0  0.00000000000E+00 -0.00000000000E+00 -0.19795391239E+03  0.19795391239E+03  0.00000000000E+00 0. -1.
         25    1    1    2    0    0  0.17006078075E+03  0.19063697418E+01  0.20452922656E+03  0.29390731177E+03  0.12500000000E+03 0.  0.
          2    1    1    2  501    0 -0.39457088787E+02  0.17621306765E+02  0.16436213866E+04  0.16441893549E+04  0.00000000000E+00 0. -1.
          1    1    1    2  502    0 -0.13060369196E+03 -0.19527676506E+02 -0.12448279184E+03  0.18147897941E+03  0.00000000000E+00 0. -1.
<mgrwt>
<rscale>  0 0.76608894E+02</rscale>
<asrwt>0</asrwt>
<pdfrwt beam="2">  1        2 0.30454449E-01 0.13581349E+03</pdfrwt>
<pdfrwt beam="1">  1        1 0.29563410E+00 0.43213103E+02</pdfrwt>
<totfact> 0.10966135E+02</totfact>
</mgrwt>
</event>
<event>
 5    1  0.8459321E-003  0.7805161E+02  0.7546771E-02  0.1393686E+00
         -1   -1    0    0    0  501 -0.00000000000E+00  0.00000000000E+00  0.27378657531E+03  0.27378657531E+03  0.00000000000E+00 0.  1.
          1   -1    0    0  502    0  0.00000000000E+00 -0.00000000000E+00 -0.90314868209E+03  0.90314868209E+03  0.00000000000E+00 0. -1.
         25    1    1    2    0    0 -0.76366954214E+02  0.16097186564E+02  0.93576605656E+02  0.17456406342E+03  0.12500000000E+03 0.  0.
          2    1    1    2  502    0  0.71689410189E+02  0.31345141685E+02 -0.85675319018E+03  0.86031849819E+03  0.00000000000E+00 0. -1.
         -2    1    1    2    0  501  0.46775440246E+01 -0.47442328249E+02  0.13381447775E+03  0.14205269579E+03  0.00000000000E+00 0.  1.
<mgrwt>
<rscale>  0 0.60999218E+02</rscale>
<asrwt>0</asrwt>
<pdfrwt beam="2">  1        1 0.13894595E+00 0.78051613E+02</pdfrwt>
<pdfrwt beam="1">  1       -1 0.42121011E-01 0.47672360E+02</pdfrwt>
<totfact> 0.11561904E+02</totfact>
</mgrwt>
</event>
<event>
 5    1  0.8459321E-003  0.3992065E+02  0.7546771E-02  0.1575238E+00
          2   -1    0    0  502    0  0.00000000000E+00  0.00000000000E+00  0.77166031004E+02  0.77166031004E+02  0.00000000000E+00 0. -1.
         -2   -1    0    0    0  501 -0.00000000000E+00 -0.00000000000E+00 -0.93066783423E+03  0.93066783423E+03  0.00000000000E+00 0.  1.
         25    1    1    2    0    0 -0.44767581730E+01  0.29565929757E+02 -0.64343521393E+03  0.65614637094E+03  0.12500000000E+03 0.  0.
          1    1    1    2  502    0 -0.25835606974E+02  0.22030949103E+01  0.66646114464E+02  0.71512493930E+02  0.00000000000E+00 0. -1.
         -1    1    1    2    0  501  0.30312365147E+02 -0.31769024668E+02 -0.27671270376E+03  0.28017500037E+03  0.00000000000E+00 0.  1.
<mgrwt>
<rscale>  0 0.32173239E+02</rscale>
<asrwt>0</asrwt>
<pdfrwt beam="1">  1        2 0.11871699E-01 0.25929370E+02</pdfrwt>
<pdfrwt beam="2">  1       -2 0.14317965E+00 0.39920649E+02</pdfrwt>
<totfact> 0.17541002E+02</totfact>
</mgrwt>
</event>
<event>
 5    1  0.8459321E-003  0.9981651E+02  0.7546771E-02  0.1408657E+00
          1   -1    0    0  501    0 -0.00000000000E+00  0.00000000000E+00  0.18700495673E+04  0.18700495673E+04  0.00000000000E+00 0. -1.
          2   -1    0    0  502    0  0.00000000000E+00 -0.00000000000E+00 -0.20505861131E+02  0.20505861131E+02  0.00000000000E+00 0. -1.
         25    1    1    2    0    0 -0.75322518622E+02  0.48547728571E+01  0.10077216620E+04  0.10182460403E+04  0.12500000000E+03 0.  0.
          2    1    1    2  501    0 -0.25970796057E+02  0.20549083497E+02  0.67289323560E+03  0.67370769151E+03  0.00000000000E+00 0. -1.
          1    1    1    2  502    0  0.10129331468E+03 -0.25403856354E+02  0.16892880858E+03  0.19860169658E+03  0.00000000000E+00 0. -1.
<mgrwt>
<rscale>  0 0.57494700E+02</rscale>
<asrwt>0</asrwt>
<pdfrwt beam="2">  1        2 0.31547493E-02 0.99816511E+02</pdfrwt>
<pdfrwt beam="1">  1        1 0.28769980E+00 0.33117172E+02</pdfrwt>
<totfact> 0.18891030E+03</totfact>
</mgrwt>
</event>
<event>
 5    1  0.8459321E-003  0.1097693E+03  0.7546771E-02  0.1275334E+00
          2   -1    0    0  502    0  0.00000000000E+00  0.00000000000E+00  0.91633084151E+03  0.91633084151E+03  0.00000000000E+00 0. -1.
          1   -1    0    0  501    0 -0.00000000000E+00 -0.00000000000E+00 -0.20726885750E+03  0.20726885750E+03  0.00000000000E+00 0. -1.
         25    1    1    2    0    0 -0.12857986735E+03 -0.42679951885E+02  0.21152884788E+03  0.28057764356E+03  0.12500000000E+03 0.  0.
          2    1    1    2  501    0  0.77582816013E+02 -0.55722371021E+02 -0.15449621040E+03  0.18164018003E+03  0.00000000000E+00 0. -1.
          1    1    1    2  502    0  0.50997051332E+02  0.98402322906E+02  0.65202934653E+03  0.66138187542E+03  0.00000000000E+00 0. -1.
<mgrwt>
<rscale>  0 0.10239712E+03</rscale>
<asrwt>0</asrwt>
<pdfrwt beam="1">  1        2 0.14097397E+00 0.10976934E+03</pdfrwt>
<pdfrwt beam="2">  1        1 0.31887517E-01 0.95520029E+02</pdfrwt>
<totfact> 0.58143821E+02</totfact>
</mgrwt>
</event>
<event>
 5    1  0.8459321E-003  0.3215493E+03  0.7546771E-02  0.1151865E+00
          1   -1    0    0  501    0 -0.00000000000E+00  0.00000000000E+00  0.29324245481E+04  0.29324245481E+04  0.00000000000E+00 0. -1.
          2   -1    0    0  502    0  0.00000000000E+00 -0.00000000000E+00 -0.11028720370E+04  0.11028720370E+04  0.00000000000E+00 0. -1.
         25    1    1    2    0    0  0.23142938418E+03 -0.23272523816E+03  0.35334726186E+03  0.49819663167E+03  0.12500000000E+03 0.  0.
          2    1    1    2  501    0  0.63824036580E+02  0.10316130127E+03  0.24799112546E+04  0.24828764755E+04  0.00000000000E+00 0. -1.
          1    1    1    2  502    0 -0.29525342076E+03  0.12956393690E+03 -0.10037060054E+04  0.10542234780E+04  0.00000000000E+00 0. -1.
<mgrwt>
<rscale>  0 0.19750108E+03</rscale>
<asrwt>0</asrwt>
<pdfrwt beam="2">  1        2 0.16967262E+00 0.32154931E+03</pdfrwt>
<pdfrwt beam="1">  1        1 0.45114224E+00 0.12130854E+03</pdfrwt>
<totfact> 0.28457359E+00</totfact>
</mgrwt>
</event>
<event>
 5    1  0.8459321E-003  0.5233825E+02  0.7546771E-02  0.1545754E+00
         -1   -1    0    0    0  501 -0.00000000000E+00  0.00000000000E+00  0.36298064840E+03  0.36298064840E+03  0.00000000000E+00 0.  1.
          1   -1    0    0  502    0  0.00000000000E+00 -0.00000000000E+00 -0.18748444565E+03  0.18748444565E+03  0.00000000000E+00 0. -1.
         25    1    1    2    0    0 -0.11683471915E+02 -0.28343551455E+02 -0.10008099817E+03  0.16303700997E+03  0.12500000000E+03 0.  0.
          2    1    1    2  502    0 -0.18824668863E+02 -0.14626172578E+02 -0.51174201119E+02  0.56454335017E+02  0.00000000000E+00 0. -1.
         -2    1    1    2    0  501  0.30508140778E+02  0.42969724033E+02  0.32675140203E+03  0.33097374906E+03  0.00000000000E+00 0.  1.
<mgrwt>
<rscale>  0 0.35322601E+02</rscale>
<asrwt>0</asrwt>
<pdfrwt beam="2">  1        1 0.28843761E-01 0.23838899E+02</pdfrwt>
<pdfrwt beam="1">  1       -1 0.55843176E-01 0.52338248E+02</pdfrwt>
<totfact> 0.51492795E+02</totfact>
</mgrwt>
</event>
<event>
 5    1  0.8459321E-003  0.3977776E+02  0.7546771E-02  0.1545286E+00
          1   -1    0    0  501    0 -0.00000000000E+00  0.00000000000E+00  0.58661996004E+03  0.58661996004E+03  0.00000000000E+00 0. -1.
          2   -1    0    0  502    0  0.00000000000E+00 -0.00000000000E+00 -0.76366892063E+03  0.76366892063E+03  0.00000000000E+00 0. -1.
         25    1    1    2    0    0 -0.20667761184E+02  0.25806090728E+02  0.27128189587E+03  0.30051951301E+03  0.12500000000E+03 0.  0.
          2    1    1    2  501    0 -0.19135655827E+02 -0.24973020386E+02  0.29936533439E+03  0.30101400051E+03  0.00000000000E+00 0. -1.
          1    1    1    2  502    0  0.39803417011E+02 -0.83307034153E+00 -0.74769619086E+03  0.74875536715E+03  0.00000000000E+00 0. -1.
<mgrwt>
<rscale>  0 0.35376083E+02</rscale>
<asrwt>0</asrwt>
<pdfrwt beam="2">  1        2 0.11748753E+00 0.39777755E+02</pdfrwt>
<pdfrwt beam="1">  1        1 0.90249225E-01 0.31461486E+02</pdfrwt>
<totfact> 0.21412403E+02</totfact>
</mgrwt>
</event>
<event>
 5    1  0.8459321E-003  0.5857881E+02  0.7546771E-02  0.1415221E+00
          2   -1    0    0  502    0  0.00000000000E+00  0.00000000000E+00  0.23005858882E+04  0.23005858882E+04  0.00000000000E+00 0. -1.
          1   -1    0    0  501    0 -0.00000000000E+00 -0.00000000000E+00 -0.56200075127E+02  0.56200075127E+02  0.00000000000E+00 0. -1.
         25    1    1    2    0    0  0.96230989752E+02  0.44074435889E+02  0.46300474775E+03  0.49112254655E+03  0.12500000000E+03 0.  0.
          2    1    1    2  501    0 -0.39588596791E+02 -0.36164953006E+02 -0.24446514353E+02  0.58930407141E+02  0.00000000000E+00 0. -1.
          1    1    1    2  502    0 -0.56642392961E+02 -0.79094828832E+01  0.18058275797E+04  0.18067330097E+04  0.00000000000E+00 0. -1.
<mgrwt>
<rscale>  0 0.56044862E+02</rscale>
<asrwt>0</asrwt>
<pdfrwt beam="1">  1        2 0.35393622E+00 0.58578809E+02</pdfrwt>
<pdfrwt beam="2">  1        1 0.86461672E-02 0.53620526E+02</pdfrwt>
<totfact> 0.59105241E+02</totfact>
</mgrwt>
</event>
<event>
 5    1  0.8459321E-003  0.2986827E+02  0.7546771E-02  0.1618724E+00
          1   -1    0    0  501    0 -0.00000000000E+00  0.00000000000E+00  0.23934684670E+03  0.23934684670E+03  0.00000000000E+00 0. -1.
          2   -1    0    0  502    0  0.00000000000E+00 -0.00000000000E+00 -0.50907077434E+03  0.50907077434E+03  0.00000000000E+00 0. -1.
         25    1    1    2    0    0  0.38116196939E+02  0.65964573197E+01  0.78381263129E+02  0.15252862068E+03  0.12500000000E+03 0.  0.
          2    1    1    2  501    0 -0.24927970494E+02  0.16561168347E+02  0.12170138455E+03  0.12532718385E+03  0.00000000000E+00 0. -1.
          1    1    1    2  502    0 -0.13188226445E+02 -0.23157625667E+02 -0.46980657531E+03  0.47056181650E+03  0.00000000000E+00 0. -1.
<mgrwt>
<rscale>  0 0.28213110E+02</rscale>
<asrwt>0</asrwt>
<pdfrwt beam="2">  1        2 0.78318581E-01 0.26649671E+02</pdfrwt>
<pdfrwt beam="1">  1        1 0.36822591E-01 0.29868271E+02</pdfrwt>
<totfact> 0.97470020E+02</totfact>
</mgrwt>
</event>
<event>
 5    1  0.8459321E-003  0.1116443E+03  0.7546771E-02  0.1352489E+00
          2   -1    0    0  502    0  0.00000000000E+00  0.00000000000E+00  0.12624092579E+04  0.12624092579E+04  0.00000000000E+00 0. -1.
          1   -1    0    0  501    0 -0.00000000000E+00 -0.00000000000E+00 -0.16692239573E+03  0.16692239573E+03  0.00000000000E+00 0. -1.
         25    1    1    2    0    0  0.36087967258E+02 -0.61166520113E+02 -0.51622494665E+02  0.15275328644E+03  0.12500000000E+03 0.  0.
          2    1    1    2  501    0  0.42437498206E+02 -0.19736032417E+02 -0.53273691668E+02  0.70912188328E+02  0.00000000000E+00 0. -1.
          1    1    1    2  502    0 -0.78525465465E+02  0.80902552530E+02  0.12003830485E+04  0.12056661788E+04  0.00000000000E+00 0. -1.
<mgrwt>
<rscale>  0 0.72285586E+02</rscale>
<asrwt>0</asrwt>
<pdfrwt beam="1">  1        2 0.19421680E+00 0.11164429E+03</pdfrwt>
<pdfrwt beam="2">  1        1 0.25680369E-01 0.46802267E+02</pdfrwt>
<totfact> 0.47109617E+02</totfact>
</mgrwt>
</event>
<event>
 5    1  0.1121104E-002  0.7337711E+02  0.7546771E-02  0.1389375E+00
          2   -1    0    0  502    0  0.00000000000E+00  0.00000000000E+00  0.11721883553E+04  0.11721883553E+04  0.00000000000E+00 0. -1.
          1   -1    0    0  501    0 -0.00000000000E+00 -0.00000000000E+00 -0.11357235699E+04  0.11357235699E+04  0.00000000000E+00 0. -1.
         25    1    1    2    0    0  0.27293428687E+02 -0.72892549584E+02 -0.26198648256E+03  0.30053314639E+03  0.12500000000E+03 0.  0.
          2    1    1    2  501    0  0.25123160565E+02  0.70073037173E+02 -0.85224297096E+03  0.85548786390E+03  0.00000000000E+00 0. -1.
          1    1    1    2  502    0 -0.52416589252E+02  0.28195124105E+01  0.11506942389E+04  0.11518909149E+04  0.00000000000E+00 0. -1.
<mgrwt>
<rscale>  0 0.62062373E+02</rscale>
<asrwt>0</asrwt>
<pdfrwt beam="1">  1        2 0.18033667E+00 0.52492366E+02</pdfrwt>
<pdfrwt beam="2">  1        1 0.17472670E+00 0.73377110E+02</pdfrwt>
<totfact> 0.44090824E+01</totfact>
</mgrwt>
</event>
<event>
 5    1  0.8459321E-003  0.6509360E+02  0.7546771E-02  0.1478102E+00
         -1   -1    0    0    0  501 -0.00000000000E+00  0.00000000000E+00  0.48348489377E+03  0.48348489377E+03  0.00000000000E+00 0.  1.
          1   -1    0    0  502    0  0.00000000000E+00 -0.00000000000E+00 -0.14794714091E+03  0.14794714091E+03  0.00000000000E+00 0. -1.
         25    1    1    2    0    0 -0.26088660944E+02  0.57940549628E+02  0.55190226202E+02  0.15069401643E+03  0.12500000000E+03 0.  0.
          2    1    1    2  502    0 -0.25101957771E+02 -0.16951251265E+02 -0.94996324613E+02  0.99708349166E+02  0.00000000000E+00 0. -1.
         -2    1    1    2    0  501  0.51190618715E+02 -0.40989298363E+02  0.37534385128E+03  0.38102966908E+03  0.00000000000E+00 0.  1.
<mgrwt>
<rscale>  0 0.44403286E+02</rscale>
<asrwt>0</asrwt>
<pdfrwt beam="2">  1        1 0.22761099E-01 0.30289490E+02</pdfrwt>
<pdfrwt beam="1">  1       -1 0.74382291E-01 0.65093596E+02</pdfrwt>
<totfact> 0.39883464E+02</totfact>
</mgrwt>
</event>
<event>
 5    1  0.8459321E-003  0.1317088E+03  0.7546771E-02  0.1262509E+00
         -2   -1    0    0    0  501  0.00000000000E+00  0.00000000000E+00  0.38752956021E+03  0.38752956021E+03  0.00000000000E+00 0.  1.
         -1   -1    0    0    0  502 -0.00000000000E+00 -0.00000000000E+00 -0.38308321241E+03  0.38308321241E+03  0.00000000000E+00 0.  1.
         25    1    1    2    0    0  0.94059768680E+02 -0.10725283584E+03  0.11860611251E+03  0.22370252749E+03  0.12500000000E+03 0.  0.
         -2    1    1    2    0  502 -0.13073296752E+03  0.24911020619E+02 -0.30669163303E+03  0.33432233774E+03  0.00000000000E+00 0.  1.
         -1    1    1    2    0  501  0.36673198839E+02  0.82341815225E+02  0.19253186832E+03  0.21258790739E+03  0.00000000000E+00 0.  1.
<mgrwt>
<rscale>  0 0.10895938E+03</rscale>
<asrwt>0</asrwt>
<pdfrwt beam="1">  1       -2 0.59619933E-01 0.90139326E+02</pdfrwt>
<pdfrwt beam="2">  1       -1 0.58935879E-01 0.13170884E+03</pdfrwt>
<totfact> 0.61616967E+01</totfact>
</mgrwt>
</event>
<event>
 5    1  0.8459321E-003  0.1083554E+03  0.7546771E-02  0.1345739E+00
         -1   -1    0    0    0  501 -0.00000000000E+00  0.00000000000E+00  0.68459701457E+03  0.68459701457E+03  0.00000000000E+00 0.  1.
          1   -1    0    0  502    0  0.00000000000E+00 -0.00000000000E+00 -0.12421329280E+03  0.12421329280E+03  0.00000000000E+00 0. -1.
         25    1    1    2    0    0  0.99943450937E+01  0.90734120649E+02  0.37246575589E+02  0.15920073799E+03  0.12500000000E+03 0.  0.
          2    1    1    2  502    0 -0.49494808235E+02  0.12647521130E+02 -0.46646180315E+02  0.69177756331E+02  0.00000000000E+00 0. -1.
         -2    1    1    2    0  501  0.39500463141E+02 -0.10338164178E+03  0.56978332650E+03  0.58043181305E+03  0.00000000000E+00 0.  1.
<mgrwt>
<rscale>  0 0.74399954E+02</rscale>
<asrwt>0</asrwt>
<pdfrwt beam="2">  1        1 0.19109738E-01 0.51085182E+02</pdfrwt>
<pdfrwt beam="1">  1       -1 0.10532262E+00 0.10835536E+03</pdfrwt>
<totfact> 0.23997262E+02</totfact>
</mgrwt>
</event>
<event>
 5    1  0.8459321E-003  0.9019855E+02  0.7546771E-02  0.1475954E+00
          1   -1    0    0  501    0 -0.00000000000E+00  0.00000000000E+00  0.40012806378E+03  0.40012806378E+03  0.00000000000E+00 0. -1.
          2   -1    0    0  502    0  0.00000000000E+00 -0.00000000000E+00 -0.13525919816E+04  0.13525919816E+04  0.00000000000E+00 0. -1.
         25    1    1    2    0    0  0.56775464014E+02  0.57166102855E+02 -0.36459006760E+03  0.39375415429E+03  0.12500000000E+03 0.  0.
          2    1    1    2  501    0 -0.76805824459E+02 -0.47606718261E+02  0.38012228305E+03  0.39071534954E+03  0.00000000000E+00 0. -1.
          3    1    1    2  502    0  0.20030360445E+02 -0.95593845941E+01 -0.96799613330E+03  0.96825054157E+03  0.00000000000E+00 0. -1.
<mgrwt>
<rscale>  0 0.44742759E+02</rscale>
<asrwt>0</asrwt>
<pdfrwt beam="2">  1        2 0.20809108E+00 0.22194530E+02</pdfrwt>
<pdfrwt beam="1">  1        1 0.61558163E-01 0.90198551E+02</pdfrwt>
<totfact> 0.16677005E+02</totfact>
</mgrwt>
</event>
<event>
 5    1  0.8459321E-003  0.6594741E+02  0.7546771E-02  0.1388337E+00
          2   -1    0    0  502    0  0.00000000000E+00  0.00000000000E+00  0.30755719922E+03  0.30755719922E+03  0.00000000000E+00 0. -1.
          1   -1    0    0  501    0 -0.00000000000E+00 -0.00000000000E+00 -0.77118334249E+02  0.77118334249E+02  0.00000000000E+00 0. -1.
         25    1    1    2    0    0  0.45921206378E+02 -0.81576109390E+01  0.17212583631E+03  0.21777880369E+03  0.12500000000E+03 0.  0.
          2    1    1    2  501    0  0.43106471892E+02  0.40132084245E+02  0.70851331079E+01  0.59320748612E+02  0.00000000000E+00 0. -1.
          1    1    1    2  502    0 -0.89027678270E+02 -0.31974473306E+02  0.51227895557E+02  0.10757598117E+03  0.00000000000E+00 0. -1.
<mgrwt>
<rscale>  0 0.62322116E+02</rscale>
<asrwt>0</asrwt>
<pdfrwt beam="1">  1        2 0.47316492E-01 0.65947410E+02</pdfrwt>
<pdfrwt beam="2">  1        1 0.11864359E-01 0.58896113E+02</pdfrwt>
<totfact> 0.66909374E+03</totfact>
</mgrwt>
</event>
<event>
 5    1  0.8459321E-003  0.3172493E+03  0.7546771E-02  0.1274034E+00
          1   -1    0    0  501    0 -0.00000000000E+00  0.00000000000E+00  0.23756861677E+03  0.23756861677E+03  0.00000000000E+00 0. -1.
          2   -1    0    0  502    0  0.00000000000E+00 -0.00000000000E+00 -0.27826264245E+04  0.27826264245E+04  0.00000000000E+00 0. -1.
         25    1    1    2    0    0  0.30951908079E+03  0.89243551715E+02 -0.40925519436E+03  0.53561300115E+03  0.12500000000E+03 0.  0.
          2    1    1    2  501    0 -0.15934017484E+02  0.29428326043E+02  0.16181817625E+03  0.16524237184E+03  0.00000000000E+00 0. -1.
          1    1    1    2  502    0 -0.29358506330E+03 -0.11867187776E+03 -0.22976207896E+04  0.23193396683E+04  0.00000000000E+00 0. -1.
<mgrwt>
<rscale>  0 0.10303790E+03</rscale>
<asrwt>0</asrwt>
<pdfrwt beam="2">  1        2 0.42809636E+00 0.31724929E+03</pdfrwt>
<pdfrwt beam="1">  1        1 0.36549019E-01 0.33465195E+02</pdfrwt>
<totfact> 0.43000460E+01</totfact>
</mgrwt>
</event>
<event>
 5    1  0.8459321E-003  0.5585876E+02  0.7546771E-02  0.1424314E+00
          2   -1    0    0  502    0  0.00000000000E+00  0.00000000000E+00  0.45225906249E+03  0.45225906249E+03  0.00000000000E+00 0. -1.
         -2   -1    0    0    0  501 -0.00000000000E+00 -0.00000000000E+00 -0.39987521441E+03  0.39987521441E+03  0.00000000000E+00 0.  1.
         25    1    1    2    0    0 -0.63725965192E+02 -0.60117565911E+02  0.17523036690E+03  0.23239148404E+03  0.12500000000E+03 0.  0.
          1    1    1    2  502    0  0.11834355141E+02  0.52606049016E+02  0.24363451177E+03  0.24953000557E+03  0.00000000000E+00 0. -1.
         -1    1    1    2    0  501  0.51891610051E+02  0.75115168941E+01 -0.36648103060E+03  0.37021278729E+03  0.00000000000E+00 0.  1.
<mgrwt>
<rscale>  0 0.54118497E+02</rscale>
<asrwt>0</asrwt>
<pdfrwt beam="1">  1        2 0.69578317E-01 0.55858758E+02</pdfrwt>
<pdfrwt beam="2">  1       -2 0.61519264E-01 0.52432453E+02</pdfrwt>
<totfact> 0.18175680E+02</totfact>
</mgrwt>
</event>
<event>
 5    1  0.8459321E-003  0.2934400E+02  0.7546771E-02  0.1624587E+00
          1   -1    0    0  502    0  0.00000000000E+00  0.00000000000E+00  0.19472589332E+04  0.19472589332E+04  0.00000000000E+00 0. -1.
         -1   -1    0    0    0  501 -0.00000000000E+00 -0.00000000000E+00 -0.20138701871E+03  0.20138701871E+03  0.00000000000E+00 0.  1.
         25    1    1    2    0    0 -0.39051273822E+01  0.27063731568E+02 -0.91861999832E+02  0.15751610267E+03  0.12500000000E+03 0.  0.
          2    1    1    2  502    0 -0.22959789721E+02 -0.12643417806E+02  0.19113081778E+04  0.19114878912E+04  0.00000000000E+00 0. -1.
         -2    1    1    2    0  501  0.26864917103E+02 -0.14420313762E+02 -0.73574263491E+02  0.79641957963E+02  0.00000000000E+00 0.  1.
<mgrwt>
<rscale>  0 0.27733205E+02</rscale>
<asrwt>0</asrwt>
<pdfrwt beam="1">  1        1 0.29957829E+00 0.26210837E+02</pdfrwt>
<pdfrwt beam="2">  1       -1 0.30982620E-01 0.29343996E+02</pdfrwt>
<totfact> 0.45760961E+01</totfact>
</mgrwt>
</event>
<event>
 5    1  0.8459321E-003  0.3603529E+02  0.7546771E-02  0.1563883E+00
          2   -1    0    0  502    0  0.00000000000E+00  0.00000000000E+00  0.78634601707E+03  0.78634601707E+03  0.00000000000E+00 0. -1.
          1   -1    0    0  501    0 -0.00000000000E+00 -0.00000000000E+00 -0.70680181664E+03  0.70680181664E+03  0.00000000000E+00 0. -1.
         25    1    1    2    0    0 -0.35956262285E+02  0.17774857874E+02  0.17786343747E+02  0.13247698817E+03  0.12500000000E+03 0.  0.
          2    1    1    2  501    0  0.25813618875E+02  0.16876733582E+02 -0.64863162749E+03  0.64936442406E+03  0.00000000000E+00 0. -1.
          1    1    1    2  502    0  0.10142643410E+02 -0.34651591456E+02  0.71038948417E+03  0.71130642147E+03  0.00000000000E+00 0. -1.
<mgrwt>
<rscale>  0 0.33337131E+02</rscale>
<asrwt>0</asrwt>
<pdfrwt beam="1">  1        2 0.12097631E+00 0.36035293E+02</pdfrwt>
<pdfrwt beam="2">  1        1 0.10873874E+00 0.30840996E+02</pdfrwt>
<totfact> 0.16309906E+02</totfact>
</mgrwt>
</event>
<event>
 5    1  0.8459321E-003  0.1454846E+03  0.7546771E-02  0.1289062E+00
          1   -1    0    0  501    0 -0.00000000000E+00  0.00000000000E+00  0.35406453422E+04  0.35406453422E+04  0.00000000000E+00 0. -1.
          2   -1    0    0  502    0  0.00000000000E+00 -0.00000000000E+00 -0.10903597389E+03  0.10903597389E+03  0.00000000000E+00 0. -1.
         25    1    1    2    0    0  0.15271853893E+03  0.87266965939E+02  0.77818209214E+03  0.80754618692E+03  0.12500000000E+03 0.  0.
          2    1    1    2  501    0 -0.14051041501E+03 -0.25181737329E+02  0.27350984534E+04  0.27388210687E+04  0.00000000000E+00 0. -1.
          1    1    1    2  502    0 -0.12208123920E+02 -0.62085228610E+02 -0.81671177227E+02  0.10331406047E+03  0.00000000000E+00 0. -1.
<mgrwt>
<rscale>  0 0.95944833E+02</rscale>
<asrwt>0</asrwt>
<pdfrwt beam="2">  1        2 0.16774768E-01 0.63274117E+02</pdfrwt>
<pdfrwt beam="1">  1        1 0.54471458E+00 0.14548462E+03</pdfrwt>
<totfact> 0.14318739E+01</totfact>
</mgrwt>
</event>
<event>
 5    1  0.8459321E-003  0.1133531E+03  0.7546771E-02  0.1380633E+00
         -1   -1    0    0    0  501 -0.00000000000E+00  0.00000000000E+00  0.62558567263E+03  0.62558567263E+03  0.00000000000E+00 0.  1.
          1   -1    0    0  502    0  0.00000000000E+00 -0.00000000000E+00 -0.69894090486E+03  0.69894090486E+03  0.00000000000E+00 0. -1.
         25    1    1    2    0    0  0.74431889875E+02  0.51884806094E+02 -0.42640497594E+03  0.45351774259E+03  0.12500000000E+03 0.  0.
          2    1    1    2  502    0 -0.27922850257E+01  0.36364772145E+02 -0.25237975994E+03  0.25500144458E+03  0.00000000000E+00 0. -1.
         -2    1    1    2    0  501 -0.71639604849E+02 -0.88249578239E+02  0.60542950366E+03  0.61600739033E+03  0.00000000000E+00 0.  1.
<mgrwt>
<rscale>  0 0.64297689E+02</rscale>
<asrwt>0</asrwt>
<pdfrwt beam="2">  1        1 0.10752937E+00 0.36471818E+02</pdfrwt>
<pdfrwt beam="1">  1       -1 0.96243949E-01 0.11335308E+03</pdfrwt>
<totfact> 0.35442950E+01</totfact>
</mgrwt>
</event>
<event>
 5    1  0.8459321E-003  0.6880172E+02  0.7546771E-02  0.1466563E+00
         -2   -1    0    0    0  501  0.00000000000E+00  0.00000000000E+00  0.24076551926E+03  0.24076551926E+03  0.00000000000E+00 0.  1.
         -1   -1    0    0    0  502 -0.00000000000E+00 -0.00000000000E+00 -0.21049340573E+03  0.21049340573E+03  0.00000000000E+00 0.  1.
         25    1    1    2    0    0 -0.22367933194E+02  0.37178051893E+02 -0.21537129685E+02  0.13405737553E+03  0.12500000000E+03 0.  0.
         -2    1    1    2    0  502  0.46195962090E+02 -0.57191303000E+02 -0.12101599423E+03  0.14159725602E+03  0.00000000000E+00 0.  1.
         -3    1    1    2    0  501 -0.23828028896E+02  0.20013251107E+02  0.17282523744E+03  0.17560429345E+03  0.00000000000E+00 0.  1.
<mgrwt>
<rscale>  0 0.46270343E+02</rscale>
<asrwt>0</asrwt>
<pdfrwt beam="1">  1       -2 0.37040849E-01 0.31117602E+02</pdfrwt>
<pdfrwt beam="2">  1       -1 0.32383601E-01 0.68801723E+02</pdfrwt>
<totfact> 0.43675129E+02</totfact>
</mgrwt>
</event>
<event>
 5    1  0.8459321E-003  0.1186283E+03  0.7546771E-02  0.1345512E+00
          2   -1    0    0  502    0  0.00000000000E+00  0.00000000000E+00  0.13522757283E+04  0.13522757283E+04  0.00000000000E+00 0. -1.
          1   -1    0    0  501    0 -0.00000000000E+00 -0.00000000000E+00 -0.17369797171E+04  0.17369797171E+04  0.00000000000E+00 0. -1.
         25    1    1    2    0    0  0.84797802756E+02  0.12316114334E+03  0.14930481690E+03  0.24551224599E+03  0.12500000000E+03 0.  0.
          2    1    1    2  501    0 -0.44852902536E+02 -0.13191513463E+02 -0.16855877343E+04  0.16862359885E+04  0.00000000000E+00 0. -1.
          1    1    1    2  502    0 -0.39944900220E+02 -0.10996962988E+03  0.11515789286E+04  0.11575072109E+04  0.00000000000E+00 0. -1.
<mgrwt>
<rscale>  0 0.74472623E+02</rscale>
<asrwt>0</asrwt>
<pdfrwt beam="1">  1        2 0.20804242E+00 0.11862827E+03</pdfrwt>
<pdfrwt beam="2">  1        1 0.26722765E+00 0.46752528E+02</pdfrwt>
<totfact> 0.14508264E+01</totfact>
</mgrwt>
</event>
<event>
 5    1  0.8459321E-003  0.7170428E+02  0.7546771E-02  0.1385865E+00
          1   -1    0    0  501    0 -0.00000000000E+00  0.00000000000E+00  0.12210147879E+03  0.12210147879E+03  0.00000000000E+00 0. -1.
          2   -1    0    0  502    0  0.00000000000E+00 -0.00000000000E+00 -0.23701208591E+04  0.23701208591E+04  0.00000000000E+00 0. -1.
         25    1    1    2    0    0  0.51976792205E+02 -0.75520868223E+01 -0.41186749817E+02  0.14170380836E+03  0.12500000000E+03 0.  0.
          2    1    1    2  501    0 -0.64581560978E+02 -0.46250198907E+02  0.49443652617E+02  0.93565665185E+02  0.00000000000E+00 0. -1.
          1    1    1    2  502    0  0.12604768773E+02  0.53802285730E+02 -0.22562762831E+04  0.22569528643E+04  0.00000000000E+00 0. -1.
<mgrwt>
<rscale>  0 0.62946904E+02</rscale>
<asrwt>0</asrwt>
<pdfrwt beam="2">  1        2 0.36463399E+00 0.55259082E+02</pdfrwt>
<pdfrwt beam="1">  1        1 0.18784842E-01 0.71704280E+02</pdfrwt>
<totfact> 0.20801282E+02</totfact>
</mgrwt>
</event>
<event>
 5    1  0.8459321E-003  0.5149751E+02  0.7546771E-02  0.1523604E+00
          1   -1    0    0  502    0  0.00000000000E+00  0.00000000000E+00  0.13603680649E+03  0.13603680649E+03  0.00000000000E+00 0. -1.
         -1   -1    0    0    0  501 -0.00000000000E+00 -0.00000000000E+00 -0.14143536871E+03  0.14143536871E+03  0.00000000000E+00 0.  1.
         25    1    1    2    0    0 -0.13612258224E+02  0.71981607188E+02  0.46548755597E+02  0.15217894728E+03  0.12500000000E+03 0.  0.
          2    1    1    2  502    0  0.96718534259E+01 -0.44245414006E+02  0.18924773638E+02  0.49085114511E+02  0.00000000000E+00 0. -1.
         -2    1    1    2    0  501  0.39404047983E+01 -0.27736193182E+02 -0.70872091453E+02  0.76208113408E+02  0.00000000000E+00 0.  1.
<mgrwt>
<rscale>  0 0.37982720E+02</rscale>
<asrwt>0</asrwt>
<pdfrwt beam="1">  1        1 0.20928740E-01 0.51497506E+02</pdfrwt>
<pdfrwt beam="2">  1       -1 0.21759287E-01 0.28014696E+02</pdfrwt>
<totfact> 0.36821860E+03</totfact>
</mgrwt>
</event>
<event>
 5    1  0.8459321E-003  0.7212928E+02  0.7546771E-02  0.1470022E+00
          2   -1    0    0  502    0  0.00000000000E+00  0.00000000000E+00  0.14920307079E+04  0.14920307079E+04  0.00000000000E+00 0. -1.
          1   -1    0    0  501    0 -0.00000000000E+00 -0.00000000000E+00 -0.31533905499E+03  0.31533905499E+03  0.00000000000E+00 0. -1.
         25    1    1    2    0    0  0.52412553535E+02  0.44589275077E+02  0.21438711426E+02  0.14429101693E+03  0.12500000000E+03 0.  0.
          2    1    1    2  501    0 -0.20633429664E+02  0.20312473175E+02 -0.25215745566E+03  0.25381433654E+03  0.00000000000E+00 0. -1.
          1    1    1    2  502    0 -0.31779123871E+02 -0.64901748252E+02  0.14074103972E+04  0.14092644094E+04  0.00000000000E+00 0. -1.
<mgrwt>
<rscale>  0 0.45699368E+02</rscale>
<asrwt>0</asrwt>
<pdfrwt beam="1">  1        2 0.22954318E+00 0.72129280E+02</pdfrwt>
<pdfrwt beam="2">  1        1 0.48513702E-01 0.28954015E+02</pdfrwt>
<totfact> 0.17241365E+02</totfact>
</mgrwt>
</event>
<event>
 5    1  0.8459321E-003  0.4269334E+02  0.7546771E-02  0.1517496E+00
          1   -1    0    0  501    0 -0.00000000000E+00  0.00000000000E+00  0.31530667321E+03  0.31530667321E+03  0.00000000000E+00 0. -1.
          2   -1    0    0  502    0  0.00000000000E+00 -0.00000000000E+00 -0.24983622566E+03  0.24983622566E+03  0.00000000000E+00 0. -1.
         25    1    1    2    0    0  0.72743892392E+01 -0.71072230564E+01 -0.14400955101E+02  0.12623714535E+03  0.12500000000E+03 0.  0.
          2    1    1    2  501    0  0.98095494611E+01 -0.33804787275E+02  0.25542566221E+03  0.25783960095E+03  0.00000000000E+00 0. -1.
          1    1    1    2  502    0 -0.17083938700E+02  0.40912010332E+02 -0.17555425957E+03  0.18106615256E+03  0.00000000000E+00 0. -1.
<mgrwt>
<rscale>  0 0.38765654E+02</rscale>
<asrwt>0</asrwt>
<pdfrwt beam="2">  1        2 0.38436342E-01 0.42693343E+02</pdfrwt>
<pdfrwt beam="1">  1        1 0.48508719E-01 0.35199303E+02</pdfrwt>
<totfact> 0.14556143E+03</totfact>
</mgrwt>
</event>
<event>
 5    1  0.8459321E-003  0.4326112E+02  0.7546771E-02  0.1501290E+00
          2   -1    0    0  502    0  0.00000000000E+00  0.00000000000E+00  0.21757050572E+04  0.21757050572E+04  0.00000000000E+00 0. -1.
         -2   -1    0    0    0  501 -0.00000000000E+00 -0.00000000000E+00 -0.27239000675E+03  0.27239000675E+03  0.00000000000E+00 0.  1.
         25    1    1    2    0    0 -0.68958435217E+02 -0.40882133160E+02  0.23819178239E+02  0.15039603669E+03  0.12500000000E+03 0.  0.
          1    1    1    2  502    0  0.36115458267E+02  0.14110750771E+02  0.20862689294E+04  0.20866292161E+04  0.00000000000E+00 0. -1.
         -1    1    1    2    0  501  0.32842976949E+02  0.26771382389E+02 -0.20677305715E+03  0.21106981123E+03  0.00000000000E+00 0.  1.
<mgrwt>
<rscale>  0 0.40956270E+02</rscale>
<asrwt>0</asrwt>
<pdfrwt beam="1">  1        2 0.33472384E+00 0.38774213E+02</pdfrwt>
<pdfrwt beam="2">  1       -2 0.41906156E-01 0.43261124E+02</pdfrwt>
<totfact> 0.41075705E+01</totfact>
</mgrwt>
</event>
<event>
 5    1  0.8459321E-003  0.9185493E+02  0.7546771E-02  0.1338035E+00
         -1   -1    0    0    0  501 -0.00000000000E+00  0.00000000000E+00  0.60983581264E+03  0.60983581264E+03  0.00000000000E+00 0.  1.
          1   -1    0    0  502    0  0.00000000000E+00 -0.00000000000E+00 -0.49835021433E+03  0.49835021433E+03  0.00000000000E+00 0. -1.
         25    1    1    2    0    0  0.12759931058E+03 -0.32372812263E+02 -0.22988961507E+03  0.29292288772E+03  0.12500000000E+03 0.  0.
          2    1    1    2  502    0 -0.58305879714E+02 -0.27366465767E+02 -0.22885203037E+03  0.23774303536E+03  0.00000000000E+00 0. -1.
         -2    1    1    2    0  501 -0.69293430863E+02  0.59739278030E+02  0.57022724374E+03  0.57752010390E+03  0.00000000000E+00 0.  1.
<mgrwt>
<rscale>  0 0.76917294E+02</rscale>
<asrwt>0</asrwt>
<pdfrwt beam="2">  1        1 0.76669264E-01 0.64408843E+02</pdfrwt>
<pdfrwt beam="1">  1       -1 0.93820894E-01 0.91854935E+02</pdfrwt>
<totfact> 0.57548464E+01</totfact>
</mgrwt>
</event>
<event>
 5    1  0.8459321E-003  0.4750127E+02  0.7546771E-02  0.1533833E+00
          2   -1    0    0  502    0  0.00000000000E+00  0.00000000000E+00  0.13829299351E+04  0.13829299351E+04  0.00000000000E+00 0. -1.
          1   -1    0    0  501    0 -0.00000000000E+00 -0.00000000000E+00 -0.57824562529E+03  0.57824562529E+03  0.00000000000E+00 0. -1.
         25    1    1    2    0    0  0.38549706171E+02  0.50758568303E+02  0.95346729429E+03  0.96373616378E+03  0.12500000000E+03 0.  0.
          2    1    1    2  501    0  0.83516876096E-01 -0.28386209257E+02 -0.57158375987E+03  0.57228819523E+03  0.00000000000E+00 0. -1.
          1    1    1    2  502    0 -0.38633223047E+02 -0.22372359047E+02  0.42280077541E+03  0.42515120141E+03  0.00000000000E+00 0. -1.
<mgrwt>
<rscale>  0 0.36720388E+02</rscale>
<asrwt>0</asrwt>
<pdfrwt beam="1">  1        2 0.21275845E+00 0.47501272E+02</pdfrwt>
<pdfrwt beam="2">  1        1 0.88960866E-01 0.28386332E+02</pdfrwt>
<totfact> 0.97933433E+01</totfact>
</mgrwt>
</event>
<event>
 5    1  0.8459321E-003  0.3052427E+02  0.7546771E-02  0.1646531E+00
          1   -1    0    0  502    0  0.00000000000E+00  0.00000000000E+00  0.23845677467E+04  0.23845677467E+04  0.00000000000E+00 0. -1.
         -1   -1    0    0    0  501 -0.00000000000E+00 -0.00000000000E+00 -0.48494904532E+02  0.48494904532E+02  0.00000000000E+00 0.  1.
         25    1    1    2    0    0  0.40347590692E+02  0.33811601199E+02  0.14279279413E+03  0.19694144944E+03  0.12500000000E+03 0.  0.
          2    1    1    2  502    0 -0.23605187408E+02 -0.19217316195E+02  0.22088101132E+04  0.22090198338E+04  0.00000000000E+00 0. -1.
         -2    1    1    2    0  501 -0.16742403285E+02 -0.14594285004E+02 -0.15530065148E+02  0.27101367974E+02  0.00000000000E+00 0.  1.
<mgrwt>
<rscale>  0 0.26037585E+02</rscale>
<asrwt>0</asrwt>
<pdfrwt beam="1">  1        1 0.36685649E+00 0.30524270E+02</pdfrwt>
<pdfrwt beam="2">  1       -1 0.74607564E-02 0.22210385E+02</pdfrwt>
<totfact> 0.20121642E+02</totfact>
</mgrwt>
</event>
<event>
 5    1  0.8459321E-003  0.5820994E+02  0.7546771E-02  0.1467298E+00
         -2   -1    0    0    0  501 -0.00000000000E+00  0.00000000000E+00  0.20942283238E+02  0.20942283238E+02  0.00000000000E+00 0.  1.
          2   -1    0    0  502    0  0.00000000000E+00 -0.00000000000E+00 -0.33618032524E+04  0.33618032524E+04  0.00000000000E+00 0. -1.
         25    1    1    2    0    0  0.46378936173E+02 -0.75116129292E+02 -0.10730776734E+04  0.10839345607E+04  0.12500000000E+03 0.  0.
          1    1    1    2  502    0 -0.48304007082E+01  0.36265477033E+02 -0.22304965933E+04  0.22307966224E+04  0.00000000000E+00 0. -1.
         -1    1    1    2    0  501 -0.41548535465E+02  0.38850652259E+02 -0.37286702390E+02  0.68014352569E+02  0.00000000000E+00 0.  1.
<mgrwt>
<rscale>  0 0.46148182E+02</rscale>
<asrwt>0</asrwt>
<pdfrwt beam="2">  1        2 0.51720030E+00 0.36585757E+02</pdfrwt>
<pdfrwt beam="1">  1       -2 0.32218910E-02 0.58209940E+02</pdfrwt>
<totfact> 0.57995285E+02</totfact>
</mgrwt>
</event>
<event>
 5    1  0.1799403E-002  0.9290168E+02  0.7546771E-02  0.1394472E+00
          2   -1    0    0  502    0  0.00000000000E+00  0.00000000000E+00  0.77207147992E+03  0.77207147992E+03  0.00000000000E+00 0. -1.
          1   -1    0    0  501    0 -0.00000000000E+00 -0.00000000000E+00 -0.20301323646E+04  0.20301323646E+04  0.00000000000E+00 0. -1.
         25    1    1    2    0    0 -0.47662521417E+02  0.27215727959E+02 -0.80925485889E+03  0.82068924596E+03  0.12500000000E+03 0.  0.
          2    1    1    2  501    0 -0.24811432121E+02  0.31121174319E+02 -0.12120087870E+04  0.12126621270E+04  0.00000000000E+00 0. -1.
          1    1    1    2  502    0  0.72473953538E+02 -0.58336902278E+02  0.76320276124E+03  0.76885247146E+03  0.00000000000E+00 0. -1.
<mgrwt>
<rscale>  0 0.60807872E+02</rscale>
<asrwt>0</asrwt>
<pdfrwt beam="1">  1        2 0.11878023E+00 0.92901679E+02</pdfrwt>
<pdfrwt beam="2">  1        1 0.31232805E+00 0.39801189E+02</pdfrwt>
<totfact> 0.21730128E+01</totfact>
</mgrwt>
</event>
<event>
 5    1  0.8459321E-003  0.2272670E+03  0.7546771E-02  0.1166266E+00
          1   -1    0    0  501    0 -0.00000000000E+00  0.00000000000E+00  0.64292503834E+03  0.64292503834E+03  0.00000000000E+00 0. -1.
          2   -1    0    0  502    0  0.00000000000E+00 -0.00000000000E+00 -0.16107904131E+04  0.16107904131E+04  0.00000000000E+00 0. -1.
         25    1    1    2    0    0  0.91494891252E+02  0.18932421631E+03 -0.97252746754E+03  0.10028208460E+04  0.12500000000E+03 0.  0.
          2    1    1    2  501    0  0.14323652426E+03 -0.23212904322E+02  0.58526317414E+03  0.60298302116E+03  0.00000000000E+00 0. -1.
          1    1    1    2  502    0 -0.23473141551E+03 -0.16611131199E+03 -0.58060108140E+03  0.64791158434E+03  0.00000000000E+00 0. -1.
<mgrwt>
<rscale>  0 0.18159749E+03</rscale>
<asrwt>0</asrwt>
<pdfrwt beam="2">  1        2 0.24781391E+00 0.22726705E+03</pdfrwt>
<pdfrwt beam="1">  1        1 0.98911544E-01 0.14510527E+03</pdfrwt>
<totfact> 0.54239875E+01</totfact>
</mgrwt>
</event>
<event>
 5    1  0.8459321E-003  0.1237416E+03  0.7546771E-02  0.1315621E+00
          2   -1    0    0  502    0  0.00000000000E+00  0.00000000000E+00  0.12120402799E+04  0.12120402799E+04  0.00000000000E+00 0. -1.
          1   -1    0    0  501    0 -0.00000000000E+00 -0.00000000000E+00 -0.53576735602E+03  0.53576735602E+03  0.00000000000E+00 0. -1.
         25    1    1    2    0    0 -0.80242636011E+02  0.15700392903E+03  0.80163435409E+03  0.83026005084E+03  0.12500000000E+03 0.  0.
          2    1    1    2  501    0  0.73308539070E+02 -0.99128934874E+02 -0.51195139635E+03  0.52658799821E+03  0.00000000000E+00 0. -1.
          1    1    1    2  502    0  0.69340969406E+01 -0.57874994160E+02  0.38658996615E+03  0.39095958688E+03  0.00000000000E+00 0. -1.
<mgrwt>
<rscale>  0 0.84927996E+02</rscale>
<asrwt>0</asrwt>
<pdfrwt beam="1">  1        2 0.18646773E+00 0.58288907E+02</pdfrwt>
<pdfrwt beam="2">  1        1 0.82425748E-01 0.12374163E+03</pdfrwt>
<totfact> 0.12501721E+02</totfact>
</mgrwt>
</event>
<event>
 5    1  0.8459321E-003  0.1351488E+03  0.7546771E-02  0.1313716E+00
          1   -1    0    0  501    0 -0.00000000000E+00  0.00000000000E+00  0.91803979729E+02  0.91803979729E+02  0.00000000000E+00 0. -1.
          2   -1    0    0  502    0  0.00000000000E+00 -0.00000000000E+00 -0.25949781147E+04  0.25949781147E+04  0.00000000000E+00 0. -1.
         25    1    1    2    0    0 -0.17441756485E+01 -0.13061139409E+03 -0.47477000338E+03  0.50802946226E+03  0.12500000000E+03 0.  0.
          2    1    1    2  501    0  0.54145586220E+02  0.39949628908E+01  0.62827539343E+02  0.83036160409E+02  0.00000000000E+00 0. -1.
          1    1    1    2  502    0 -0.52401410571E+02  0.12661643120E+03 -0.20912316709E+04  0.20957164717E+04  0.00000000000E+00 0. -1.
<mgrwt>
<rscale>  0 0.85659793E+02</rscale>
<asrwt>0</asrwt>
<pdfrwt beam="2">  1        2 0.39922732E+00 0.13514877E+03</pdfrwt>
<pdfrwt beam="1">  1        1 0.14123692E-01 0.54292764E+02</pdfrwt>
<totfact> 0.19820230E+02</totfact>
</mgrwt>
</event>
<event>
 5    1  0.8459321E-003  0.7868828E+02  0.7546771E-02  0.1347565E+00
          1   -1    0    0  501    0 -0.00000000000E+00  0.00000000000E+00  0.12745957374E+04  0.12745957374E+04  0.00000000000E+00 0. -1.
          2   -1    0    0  502    0  0.00000000000E+00 -0.00000000000E+00 -0.12771560521E+04  0.12771560521E+04  0.00000000000E+00 0. -1.
         25    1    1    2    0    0 -0.34356703813E+02 -0.39149847289E+02 -0.12133549013E+03  0.18182517649E+03  0.12500000000E+03 0.  0.
          2    1    1    2  501    0 -0.45746292378E+02  0.51992087597E+02  0.12419231833E+04  0.12438525209E+04  0.00000000000E+00 0. -1.
          1    1    1    2  502    0  0.80102996191E+02 -0.12842240308E+02 -0.11231480079E+04  0.11260740921E+04  0.00000000000E+00 0. -1.
<mgrwt>
<rscale>  0 0.73819750E+02</rscale>
<asrwt>0</asrwt>
<pdfrwt beam="2">  1        2 0.19648555E+00 0.78688281E+02</pdfrwt>
<pdfrwt beam="1">  1        1 0.19609165E+00 0.69252440E+02</pdfrwt>
<totfact> 0.30657271E+01</totfact>
</mgrwt>
</event>
<event>
 5    1  0.8459321E-003  0.8303516E+02  0.7546771E-02  0.1408167E+00
          2   -1    0    0  502    0  0.00000000000E+00  0.00000000000E+00  0.49563011235E+02  0.49563011235E+02  0.00000000000E+00 0. -1.
         -2   -1    0    0    0  501 -0.00000000000E+00 -0.00000000000E+00 -0.42537169602E+03  0.42537169602E+03  0.00000000000E+00 0.  1.
         25    1    1    2    0    0 -0.74102514279E+02 -0.28003150838E+02 -0.25834219204E+03  0.29772646383E+03  0.12500000000E+03 0.  0.
          1    1    1    2  502    0 -0.16239350571E+02  0.36514646676E+02 -0.22512962083E+02  0.45867956033E+02  0.00000000000E+00 0. -1.
         -1    1    1    2    0  501  0.90341864851E+02 -0.85114958386E+01 -0.94953530664E+02  0.13134028739E+03  0.00000000000E+00 0.  1.
<mgrwt>
<rscale>  0 0.57604936E+02</rscale>
<asrwt>0</asrwt>
<pdfrwt beam="1">  1        2 0.76250792E-02 0.39962932E+02</pdfrwt>
<pdfrwt beam="2">  1       -2 0.65441795E-01 0.83035164E+02</pdfrwt>
<totfact> 0.17543168E+03</totfact>
</mgrwt>
</event>
<event>
 5    1  0.8459321E-003  0.4802553E+02  0.7546771E-02  0.1475139E+00
          2   -1    0    0  502    0  0.00000000000E+00  0.00000000000E+00  0.56116073743E+03  0.56116073743E+03  0.00000000000E+00 0. -1.
          1   -1    0    0  501    0 -0.00000000000E+00 -0.00000000000E+00 -0.13847553886E+04  0.13847553886E+04  0.00000000000E+00 0. -1.
         25    1    1    2    0    0  0.26426786762E+01 -0.60618008187E+01 -0.45248846538E+02  0.13310216863E+03  0.12500000000E+03 0.  0.
          2    1    1    2  501    0 -0.12516257633E+02  0.46809215268E+02 -0.12942761712E+04  0.12951828314E+04  0.00000000000E+00 0. -1.
          1    1    1    2  502    0  0.98735789567E+01 -0.40747414450E+02  0.51593036664E+03  0.51763112596E+03  0.00000000000E+00 0. -1.
<mgrwt>
<rscale>  0 0.44872565E+02</rscale>
<asrwt>0</asrwt>
<pdfrwt beam="1">  1        2 0.86332421E-01 0.41926595E+02</pdfrwt>
<pdfrwt beam="2">  1        1 0.21303929E+00 0.48025533E+02</pdfrwt>
<totfact> 0.77290128E+01</totfact>
</mgrwt>
</event>
<event>
 5    1  0.8459321E-003  0.4844485E+02  0.7546771E-02  0.1583121E+00
          1   -1    0    0  501    0 -0.00000000000E+00  0.00000000000E+00  0.23952968421E+03  0.23952968421E+03  0.00000000000E+00 0. -1.
          2   -1    0    0  502    0  0.00000000000E+00 -0.00000000000E+00 -0.48825027210E+03  0.48825027210E+03  0.00000000000E+00 0. -1.
         25    1    1    2    0    0  0.51235090805E+02 -0.37587217883E+02 -0.11156055745E+03  0.17918870348E+03  0.12500000000E+03 0.  0.
          2    1    1    2  501    0 -0.44549032380E+02  0.18366125359E+02  0.20258517537E+03  0.20823708634E+03  0.00000000000E+00 0. -1.
          3    1    1    2  502    0 -0.66860584256E+01  0.19221092524E+02 -0.33974520582E+03  0.34035416649E+03  0.00000000000E+00 0. -1.
<mgrwt>
<rscale>  0 0.31398885E+02</rscale>
<asrwt>0</asrwt>
<pdfrwt beam="2">  1        2 0.75115425E-01 0.20350768E+02</pdfrwt>
<pdfrwt beam="1">  1        1 0.36850721E-01 0.48444853E+02</pdfrwt>
<totfact> 0.10268957E+03</totfact>
</mgrwt>
</event>
<event>
 5    1  0.8459321E-003  0.1048768E+03  0.7546771E-02  0.1292759E+00
         -2   -1    0    0    0  501 -0.00000000000E+00  0.00000000000E+00  0.13486920880E+03  0.13486920880E+03  0.00000000000E+00 0.  1.
          2   -1    0    0  502    0  0.00000000000E+00 -0.00000000000E+00 -0.12226395241E+04  0.12226395241E+04  0.00000000000E+00 0. -1.
         25    1    1    2    0    0 -0.63725648371E+02  0.97764189997E+02 -0.44141781534E+03  0.47338513159E+03  0.12500000000E+03 0.  0.
          1    1    1    2  502    0 -0.20610798521E+02 -0.10653009205E+03 -0.74567660986E+03  0.75352974196E+03  0.00000000000E+00 0. -1.
         -1    1    1    2    0  501  0.84336446892E+02  0.87659020496E+01  0.99324109860E+02  0.13059385940E+03  0.00000000000E+00 0.  1.
<mgrwt>
<rscale>  0 0.94300523E+02</rscale>
<asrwt>0</asrwt>
<pdfrwt beam="2">  1        2 0.18809838E+00 0.10487683E+03</pdfrwt>
<pdfrwt beam="1">  1       -2 0.20749110E-01 0.84790786E+02</pdfrwt>
<totfact> 0.39367855E+02</totfact>
</mgrwt>
</event>
<event>
 5    1  0.8459321E-003  0.5505395E+02  0.7546771E-02  0.1472672E+00
          2   -1    0    0  502    0  0.00000000000E+00  0.00000000000E+00  0.97565832627E+03  0.97565832627E+03  0.00000000000E+00 0. -1.
          1   -1    0    0  501    0 -0.00000000000E+00 -0.00000000000E+00 -0.71445239232E+03  0.71445239232E+03  0.00000000000E+00 0. -1.
         25    1    1    2    0    0  0.69679950093E+02 -0.53028606943E+02  0.41855386775E+02  0.15825360028E+03  0.12500000000E+03 0.  0.
          2    1    1    2  501    0 -0.35800691461E+02  0.10188943584E+02 -0.65487256679E+03  0.65592955629E+03  0.00000000000E+00 0. -1.
          1    1    1    2  502    0 -0.33879258631E+02  0.42839663359E+02  0.87422311396E+03  0.87592756202E+03  0.00000000000E+00 0. -1.
<mgrwt>
<rscale>  0 0.45268509E+02</rscale>
<asrwt>0</asrwt>
<pdfrwt beam="1">  1        2 0.15010128E+00 0.55053949E+02</pdfrwt>
<pdfrwt beam="2">  1        1 0.10991575E+00 0.37222360E+02</pdfrwt>
<totfact> 0.12016523E+02</totfact>
</mgrwt>
</event>
<event>
 5    1  0.8459321E-003  0.6119376E+02  0.7546771E-02  0.1451500E+00
          2   -1    0    0  502    0  0.00000000000E+00  0.00000000000E+00  0.17309956341E+04  0.17309956341E+04  0.00000000000E+00 0. -1.
          1   -1    0    0  501    0 -0.00000000000E+00 -0.00000000000E+00 -0.76970062370E+02  0.76970062370E+02  0.00000000000E+00 0. -1.
         25    1    1    2    0    0 -0.31495881201E+02 -0.42331206994E+02  0.97012042556E+02  0.16679405870E+03  0.12500000000E+03 0.  0.
          2    1    1    2  501    0  0.34016509505E+02 -0.19152842919E+02 -0.32299567043E+02  0.50667705118E+02  0.00000000000E+00 0. -1.
          1    1    1    2  502    0 -0.25206283039E+01  0.61484049914E+02  0.15893130962E+04  0.15905039327E+04  0.00000000000E+00 0. -1.
<mgrwt>
<rscale>  0 0.48876102E+02</rscale>
<asrwt>0</asrwt>
<pdfrwt beam="1">  1        2 0.26630699E+00 0.61193762E+02</pdfrwt>
<pdfrwt beam="2">  1        1 0.11841549E-01 0.39037857E+02</pdfrwt>
<totfact> 0.73404367E+02</totfact>
</mgrwt>
</event>
<event>
 5    1  0.8459321E-003  0.2983117E+02  0.7546771E-02  0.1617617E+00
          3   -1    0    0  502    0  0.00000000000E+00  0.00000000000E+00  0.16208805942E+02  0.16208805942E+02  0.00000000000E+00 0. -1.
         -3   -1    0    0    0  501 -0.00000000000E+00 -0.00000000000E+00 -0.59998673381E+03  0.59998673381E+03  0.00000000000E+00 0.  1.
         25    1    1    2    0    0  0.20346095934E+02  0.98202310626E+01 -0.33352018346E+03  0.35689089836E+03  0.12500000000E+03 0.  0.
          2    1    1    2  502    0 -0.22653322509E+02  0.19921581943E+02 -0.64984153515E+02  0.71644836910E+02  0.00000000000E+00 0. -1.
         -2    1    1    2    0  501  0.23072265753E+01 -0.29741813005E+02 -0.18527359089E+03  0.18765980448E+03  0.00000000000E+00 0.  1.
<mgrwt>
<rscale>  0 0.28305007E+02</rscale>
<asrwt>0</asrwt>
<pdfrwt beam="1">  1        3 0.24936619E-02 0.26856921E+02</pdfrwt>
<pdfrwt beam="2">  1       -3 0.92305671E-01 0.29831171E+02</pdfrwt>
<totfact> 0.11606206E+03</totfact>
</mgrwt>
</event>
<event>
 5    1  0.8459321E-003  0.8680732E+02  0.7546771E-02  0.1450149E+00
         -1   -1    0    0    0  501 -0.00000000000E+00  0.00000000000E+00  0.72653967009E+03  0.72653967009E+03  0.00000000000E+00 0.  1.
          1   -1    0    0  502    0  0.00000000000E+00 -0.00000000000E+00 -0.33122398273E+03  0.33122398273E+03  0.00000000000E+00 0. -1.
         25    1    1    2    0    0  0.47192770044E+02 -0.36746406331E+02 -0.15053959820E+03  0.20460847135E+03  0.12500000000E+03 0.  0.
          2    1    1    2  502    0  0.24897265230E+02 -0.12354783995E+02 -0.14964631067E+03  0.15220556100E+03  0.00000000000E+00 0. -1.
         -2    1    1    2    0  501 -0.72090035275E+02  0.49101190326E+02  0.69550159623E+03  0.70094962047E+03  0.00000000000E+00 0.  1.
<mgrwt>
<rscale>  0 0.49119603E+02</rscale>
<asrwt>0</asrwt>
<pdfrwt beam="2">  1        1 0.50957536E-01 0.27794145E+02</pdfrwt>
<pdfrwt beam="1">  1       -1 0.11177533E+00 0.86807324E+02</pdfrwt>
<totfact> 0.64908529E+01</totfact>
</mgrwt>
</event>
<event>
 5    1  0.8459321E-003  0.6406379E+02  0.7546771E-02  0.1421452E+00
          1   -1    0    0  501    0 -0.00000000000E+00  0.00000000000E+00  0.64890506423E+03  0.64890506423E+03  0.00000000000E+00 0. -1.
          2   -1    0    0  502    0  0.00000000000E+00 -0.00000000000E+00 -0.61883809942E+03  0.61883809942E+03  0.00000000000E+00 0. -1.
         25    1    1    2    0    0  0.11338001197E+02  0.64068962299E+02  0.38217587031E+03  0.40732883282E+03  0.12500000000E+03 0.  0.
          2    1    1    2  501    0 -0.45669832347E+02 -0.98996667330E+01  0.25028805757E+03  0.25461313546E+03  0.00000000000E+00 0. -1.
          3    1    1    2  502    0  0.34331831150E+02 -0.54169295566E+02 -0.60239696306E+03  0.60580119538E+03  0.00000000000E+00 0. -1.
<mgrwt>
<rscale>  0 0.54714998E+02</rscale>
<asrwt>0</asrwt>
<pdfrwt beam="2">  1        2 0.95205862E-01 0.64063787E+02</pdfrwt>
<pdfrwt beam="1">  1        1 0.99831548E-01 0.46730472E+02</pdfrwt>
<totfact> 0.23171091E+02</totfact>
</mgrwt>
</event>
<event>
 5    1  0.8459321E-003  0.1472837E+03  0.7546771E-02  0.1301511E+00
          2   -1    0    0  502    0  0.00000000000E+00  0.00000000000E+00  0.58369448072E+03  0.58369448072E+03  0.00000000000E+00 0. -1.
          1   -1    0    0  501    0 -0.00000000000E+00 -0.00000000000E+00 -0.26497125306E+04  0.26497125306E+04  0.00000000000E+00 0. -1.
         25    1    1    2    0    0 -0.49684599207E+02 -0.16516192722E+03 -0.99582540122E+03  0.10183517326E+04  0.12500000000E+03 0.  0.
          2    1    1    2  501    0 -0.33955587696E+02  0.44124820497E+02 -0.16326881956E+04  0.16336372687E+04  0.00000000000E+00 0. -1.
          1    1    1    2  502    0  0.83640186903E+02  0.12103710672E+03  0.56249554691E+03  0.58141801001E+03  0.00000000000E+00 0. -1.
<mgrwt>
<rscale>  0 0.90555969E+02</rscale>
<asrwt>0</asrwt>
<pdfrwt beam="1">  1        2 0.89799151E-01 0.14728367E+03</pdfrwt>
<pdfrwt beam="2">  1        1 0.40764808E+00 0.55677479E+02</pdfrwt>
<totfact> 0.11616715E+01</totfact>
</mgrwt>
</event>
<event>
 5    1  0.8459321E-003  0.3218331E+03  0.7546771E-02  0.1097345E+00
          1   -1    0    0  501    0 -0.00000000000E+00  0.00000000000E+00  0.90728618455E+02  0.90728618455E+02  0.00000000000E+00 0. -1.
          2   -1    0    0  502    0  0.00000000000E+00 -0.00000000000E+00 -0.32774264946E+04  0.32774264946E+04  0.00000000000E+00 0. -1.
         25    1    1    2    0    0  0.50582547662E+02  0.54625890650E+02 -0.58188758986E+03  0.59980059128E+03  0.12500000000E+03 0.  0.
          2    1    1    2  501    0 -0.20998008901E+03 -0.33421305183E+03 -0.49000898476E+03  0.62920490060E+03  0.00000000000E+00 0. -1.
          1    1    1    2  502    0  0.15939754135E+03  0.27958716118E+03 -0.21148013015E+04  0.21391496211E+04  0.00000000000E+00 0. -1.
<mgrwt>
<rscale>  0 0.27698848E+03</rscale>
<asrwt>0</asrwt>
<pdfrwt beam="2">  1        2 0.50421940E+00 0.32183312E+03</pdfrwt>
<pdfrwt beam="1">  1        1 0.13958251E-01 0.23839255E+03</pdfrwt>
<totfact> 0.76175717E+01</totfact>
</mgrwt>
</event>
<event>
 5    1  0.8459321E-003  0.1477829E+03  0.7546771E-02  0.1287788E+00
          1   -1    0    0  501    0 -0.00000000000E+00  0.00000000000E+00  0.24579044117E+04  0.24579044117E+04  0.00000000000E+00 0. -1.
          2   -1    0    0  502    0  0.00000000000E+00 -0.00000000000E+00 -0.78429495122E+03  0.78429495122E+03  0.00000000000E+00 0. -1.
         25    1    1    2    0    0 -0.78824306503E+02  0.53298745700E+02  0.16474916889E+04  0.16549646197E+04  0.12500000000E+03 0.  0.
          2    1    1    2  501    0 -0.62400555776E+02 -0.89525903678E+01  0.79840490809E+03  0.80088973991E+03  0.00000000000E+00 0. -1.
          1    1    1    2  502    0  0.14122486228E+03 -0.44346155333E+02 -0.77228713643E+03  0.78634500336E+03  0.00000000000E+00 0. -1.
<mgrwt>
<rscale>  0 0.96520241E+02</rscale>
<asrwt>0</asrwt>
<pdfrwt beam="2">  1        2 0.12066076E+00 0.14778286E+03</pdfrwt>
<pdfrwt beam="1">  1        1 0.37813914E+00 0.63039497E+02</pdfrwt>
<totfact> 0.10639315E+01</totfact>
</mgrwt>
</event>
<event>
 5    1  0.8459321E-003  0.1143836E+03  0.7546771E-02  0.1299385E+00
          1   -1    0    0  501    0 -0.00000000000E+00  0.00000000000E+00  0.22716222305E+04  0.22716222305E+04  0.00000000000E+00 0. -1.
          2   -1    0    0  502    0  0.00000000000E+00 -0.00000000000E+00 -0.64731533684E+03  0.64731533684E+03  0.00000000000E+00 0. -1.
         25    1    1    2    0    0 -0.54641318663E+02 -0.58642045007E+02  0.33675830416E+02  0.15226169808E+03  0.12500000000E+03 0.  0.
          2    1    1    2  501    0 -0.61393950986E+02  0.39696862714E+02  0.21721553622E+04  0.21733853721E+04  0.00000000000E+00 0. -1.
          1    1    1    2  502    0  0.11603526965E+03  0.18945182292E+02 -0.58152429896E+03  0.59329049716E+03  0.00000000000E+00 0. -1.
<mgrwt>
<rscale>  0 0.91447113E+02</rscale>
<asrwt>0</asrwt>
<pdfrwt beam="2">  1        2 0.99586976E-01 0.11438361E+03</pdfrwt>
<pdfrwt beam="1">  1        1 0.34948034E+00 0.73109904E+02</pdfrwt>
<totfact> 0.17288570E+01</totfact>
</mgrwt>
</event>
<event>
 5    1  0.8459321E-003  0.1373518E+03  0.7546771E-02  0.1327155E+00
          2   -1    0    0  502    0  0.00000000000E+00  0.00000000000E+00  0.31618951282E+03  0.31618951282E+03  0.00000000000E+00 0. -1.
          1   -1    0    0  501    0 -0.00000000000E+00 -0.00000000000E+00 -0.28092867795E+03  0.28092867795E+03  0.00000000000E+00 0. -1.
         25    1    1    2    0    0 -0.10874620929E+03  0.14172210905E+03 -0.41538168658E+02  0.22194889881E+03  0.12500000000E+03 0.  0.
          2    1    1    2  501    0  0.29438760247E+02 -0.37126828353E+02 -0.12542664330E+03  0.13407790585E+03  0.00000000000E+00 0. -1.
          1    1    1    2  502    0  0.79307449039E+02 -0.10459528069E+03  0.20222564684E+03  0.24109138611E+03  0.00000000000E+00 0. -1.
<mgrwt>
<rscale>  0 0.80672089E+02</rscale>
<asrwt>0</asrwt>
<pdfrwt beam="1">  1        2 0.48644540E-01 0.13735181E+03</pdfrwt>
<pdfrwt beam="2">  1        1 0.43219797E-01 0.47381874E+02</pdfrwt>
<totfact> 0.13259835E+03</totfact>
</mgrwt>
</event>
<event>
 5    1  0.8459321E-003  0.6212880E+02  0.7546771E-02  0.1407265E+00
          1   -1    0    0  501    0 -0.00000000000E+00  0.00000000000E+00  0.17097852321E+03  0.17097852321E+03  0.00000000000E+00 0. -1.
          2   -1    0    0  502    0  0.00000000000E+00 -0.00000000000E+00 -0.25297050888E+04  0.25297050888E+04  0.00000000000E+00 0. -1.
         25    1    1    2    0    0  0.19928828836E+01  0.77529086549E+02 -0.12531042154E+03  0.19324190174E+03  0.12500000000E+03 0.  0.
          2    1    1    2  501    0 -0.44107176909E+02 -0.44068013815E+02  0.12959765051E+03  0.14381579856E+03  0.00000000000E+00 0. -1.
          1    1    1    2  502    0  0.42114294025E+02 -0.33461072734E+02 -0.23630137946E+04  0.23636259117E+04  0.00000000000E+00 0. -1.
<mgrwt>
<rscale>  0 0.57808705E+02</rscale>
<asrwt>0</asrwt>
<pdfrwt beam="2">  1        2 0.38918539E+00 0.53789006E+02</pdfrwt>
<pdfrwt beam="1">  1        1 0.26304389E-01 0.62128801E+02</pdfrwt>
<totfact> 0.11369793E+02</totfact>
</mgrwt>
</event>
<event>
 5    1  0.8459321E-003  0.7136928E+02  0.7546771E-02  0.1433641E+00
          1   -1    0    0  502    0  0.00000000000E+00  0.00000000000E+00  0.58816548748E+02  0.58816548748E+02  0.00000000000E+00 0. -1.
         -1   -1    0    0    0  501 -0.00000000000E+00 -0.00000000000E+00 -0.39619873746E+03  0.39619873746E+03  0.00000000000E+00 0.  1.
         25    1    1    2    0    0  0.12234607214E+02 -0.73131779594E+02 -0.67662770052E+02  0.16031591702E+03  0.12500000000E+03 0.  0.
          2    1    1    2  502    0  0.33901070684E+02  0.17675594649E+02 -0.46987064015E+02  0.60576343769E+02  0.00000000000E+00 0. -1.
         -2    1    1    2    0  501 -0.46135677898E+02  0.55456184944E+02 -0.22273235465E+03  0.23412302542E+03  0.00000000000E+00 0.  1.
<mgrwt>
<rscale>  0 0.52236120E+02</rscale>
<asrwt>0</asrwt>
<pdfrwt beam="1">  1        1 0.90487000E-02 0.38232306E+02</pdfrwt>
<pdfrwt beam="2">  1       -1 0.60953651E-01 0.71369283E+02</pdfrwt>
<totfact> 0.18548202E+03</totfact>
</mgrwt>
</event>
<event>
 5    1  0.8459321E-003  0.7380924E+02  0.7546771E-02  0.1366828E+00
          2   -1    0    0  502    0  0.00000000000E+00  0.00000000000E+00  0.23600396478E+04  0.23600396478E+04  0.00000000000E+00 0. -1.
         -2   -1    0    0    0  501 -0.00000000000E+00 -0.00000000000E+00 -0.36245066306E+02  0.36245066306E+02  0.00000000000E+00 0.  1.
         25    1    1    2    0    0 -0.42266991448E+02  0.26871902563E+01  0.44067075088E+03  0.46001025015E+03  0.12500000000E+03 0.  0.
          1    1    1    2  502    0 -0.12084101675E+02 -0.61578515137E+02  0.18475152395E+04  0.18485806715E+04  0.00000000000E+00 0. -1.
         -1    1    1    2    0  501  0.54351093123E+02  0.58891324881E+02  0.35608591146E+02  0.87693792445E+02  0.00000000000E+00 0.  1.
<mgrwt>
<rscale>  0 0.68056971E+02</rscale>
<asrwt>0</asrwt>
<pdfrwt beam="1">  1        2 0.36308290E+00 0.62753000E+02</pdfrwt>
<pdfrwt beam="2">  1       -2 0.55761659E-02 0.73809241E+02</pdfrwt>
<totfact> 0.85252034E+02</totfact>
</mgrwt>
</event>
<event>
 5    1  0.8459321E-003  0.1268216E+03  0.7546771E-02  0.1425269E+00
          2   -1    0    0  502    0  0.00000000000E+00  0.00000000000E+00  0.67739651232E+03  0.67739651232E+03  0.00000000000E+00 0. -1.
          1   -1    0    0  501    0 -0.00000000000E+00 -0.00000000000E+00 -0.68593106948E+03  0.68593106948E+03  0.00000000000E+00 0. -1.
         25    1    1    2    0    0 -0.12495693024E+03 -0.63455915352E+02 -0.49226630856E+03  0.52687000878E+03  0.12500000000E+03 0.  0.
          2    1    1    2  501    0  0.21070469400E+02 -0.90357548242E+01 -0.16950640076E+03  0.17104978645E+03  0.00000000000E+00 0. -1.
          1    1    1    2  502    0  0.10388646084E+03  0.72491670176E+02  0.65323815216E+03  0.66540778657E+03  0.00000000000E+00 0. -1.
<mgrwt>
<rscale>  0 0.53921553E+02</rscale>
<asrwt>0</asrwt>
<pdfrwt beam="1">  1        2 0.10421485E+00 0.12682158E+03</pdfrwt>
<pdfrwt beam="2">  1        1 0.10552786E+00 0.22926176E+02</pdfrwt>
<totfact> 0.19628991E+02</totfact>
</mgrwt>
</event>
<event>
 5    1  0.8459321E-003  0.9749233E+02  0.7546771E-02  0.1378402E+00
          1   -1    0    0  501    0 -0.00000000000E+00  0.00000000000E+00  0.89664661726E+03  0.89664661726E+03  0.00000000000E+00 0. -1.
          2   -1    0    0  502    0  0.00000000000E+00 -0.00000000000E+00 -0.23841645298E+03  0.23841645298E+03  0.00000000000E+00 0. -1.
         25    1    1    2    0    0 -0.33673519169E+02  0.51474526476E+02  0.12766798911E+03  0.18896467451E+03  0.12500000000E+03 0.  0.
          2    1    1    2  501    0  0.71395953545E+02 -0.72496551406E+02  0.73253121413E+03  0.73956413638E+03  0.00000000000E+00 0. -1.
          1    1    1    2  502    0 -0.37722434376E+02  0.21022024929E+02 -0.20196903896E+03  0.20653425935E+03  0.00000000000E+00 0. -1.
<mgrwt>
<rscale>  0 0.64885785E+02</rscale>
<asrwt>0</asrwt>
<pdfrwt beam="2">  1        2 0.36679455E-01 0.43184576E+02</pdfrwt>
<pdfrwt beam="1">  1        1 0.13794563E+00 0.97492333E+02</pdfrwt>
<totfact> 0.37901456E+02</totfact>
</mgrwt>
</event>
<event>
 5    1  0.8459321E-003  0.5930433E+02  0.7546771E-02  0.1532797E+00
          1   -1    0    0  502    0  0.00000000000E+00  0.00000000000E+00  0.40838433275E+03  0.40838433275E+03  0.00000000000E+00 0. -1.
         -1   -1    0    0    0  501 -0.00000000000E+00 -0.00000000000E+00 -0.29262273841E+03  0.29262273841E+03  0.00000000000E+00 0.  1.
         25    1    1    2    0    0  0.30601050654E+02 -0.62550180144E+02  0.13914162901E+03  0.19958542597E+03  0.12500000000E+03 0.  0.
          2    1    1    2  502    0 -0.81949995604E+01  0.57858396902E+02  0.23493543749E+03  0.24209380805E+03  0.00000000000E+00 0. -1.
         -2    1    1    2    0  501 -0.22406051094E+02  0.46917832417E+01 -0.25831547216E+03  0.25932783714E+03  0.00000000000E+00 0.  1.
<mgrwt>
<rscale>  0 0.36845558E+02</rscale>
<asrwt>0</asrwt>
<pdfrwt beam="1">  1        1 0.62828359E-01 0.59304332E+02</pdfrwt>
<pdfrwt beam="2">  1       -1 0.45018883E-01 0.22892006E+02</pdfrwt>
<totfact> 0.30140582E+02</totfact>
</mgrwt>
</event>
<event>
 5    1  0.8459321E-003  0.2345413E+03  0.7546771E-02  0.1264335E+00
          2   -1    0    0  502    0  0.00000000000E+00  0.00000000000E+00  0.77420769339E+03  0.77420769339E+03  0.00000000000E+00 0. -1.
          1   -1    0    0  501    0 -0.00000000000E+00 -0.00000000000E+00 -0.60680682781E+03  0.60680682781E+03  0.00000000000E+00 0. -1.
         25    1    1    2    0    0  0.24724027979E+03 -0.10715882657E+03  0.51994771958E+02  0.30156131445E+03  0.12500000000E+03 0.  0.
          2    1    1    2  501    0 -0.28419129202E+02  0.40801334866E+02 -0.45875126021E+03  0.46143809398E+03  0.00000000000E+00 0. -1.
          1    1    1    2  502    0 -0.21882115058E+03  0.66357491700E+02  0.57415735384E+03  0.61801511277E+03  0.00000000000E+00 0. -1.
<mgrwt>
<rscale>  0 0.10799140E+03</rscale>
<asrwt>0</asrwt>
<pdfrwt beam="1">  1        2 0.11910888E+00 0.23454129E+03</pdfrwt>
<pdfrwt beam="2">  1        1 0.93354896E-01 0.49723192E+02</pdfrwt>
<totfact> 0.18669695E+02</totfact>
</mgrwt>
</event>
<event>
 5    1  0.1043414E-002  0.1298054E+03  0.7546771E-02  0.1268087E+00
          3   -1    0    0  501    0 -0.00000000000E+00  0.00000000000E+00  0.72494768459E+03  0.72494768459E+03  0.00000000000E+00 0. -1.
          2   -1    0    0  502    0  0.00000000000E+00 -0.00000000000E+00 -0.22141079961E+04  0.22141079961E+04  0.00000000000E+00 0. -1.
         25    1    1    2    0    0  0.11217018164E+02  0.63198538175E+02  0.23680794675E+03  0.27535954744E+03  0.12500000000E+03 0.  0.
          2    1    1    2  501    0  0.81971150427E+02  0.28006074191E+02  0.46290617792E+03  0.47094133313E+03  0.00000000000E+00 0. -1.
          1    1    1    2  502    0 -0.93188168591E+02 -0.91204612365E+02 -0.21888744362E+04  0.21927548001E+04  0.00000000000E+00 0. -1.
<mgrwt>
<rscale>  0 0.10603860E+03</rscale>
<asrwt>0</asrwt>
<pdfrwt beam="2">  1        2 0.34063200E+00 0.12980543E+03</pdfrwt>
<pdfrwt beam="1">  1        3 0.11153041E+00 0.86623378E+02</pdfrwt>
<totfact> 0.27009703E+00</totfact>
</mgrwt>
</event>
<event>
 5    1  0.8459321E-003  0.9105349E+02  0.7546771E-02  0.1323225E+00
          1   -1    0    0  501    0 -0.00000000000E+00  0.00000000000E+00  0.22183852561E+03  0.22183852561E+03  0.00000000000E+00 0. -1.
          2   -1    0    0  502    0  0.00000000000E+00 -0.00000000000E+00 -0.36591852685E+04  0.36591852685E+04  0.00000000000E+00 0. -1.
         25    1    1    2    0    0 -0.37233596387E+02 -0.10665448435E+03 -0.15330884706E+03  0.22779403486E+03  0.12500000000E+03 0.  0.
          2    1    1    2  501    0  0.70697479180E+02  0.21885865921E+02  0.17655412015E+03  0.19143793258E+03  0.00000000000E+00 0. -1.
          1    1    1    2  502    0 -0.33463882793E+02  0.84768618426E+02 -0.34605920160E+04  0.34617918267E+04  0.00000000000E+00 0. -1.
<mgrwt>
<rscale>  0 0.82089283E+02</rscale>
<asrwt>0</asrwt>
<pdfrwt beam="2">  1        2 0.56295155E+00 0.91053493E+02</pdfrwt>
<pdfrwt beam="1">  1        1 0.34129006E-01 0.74007599E+02</pdfrwt>
<totfact> 0.16809595E+01</totfact>
</mgrwt>
</event>
<event>
 5    1  0.8459321E-003  0.6988026E+02  0.7546771E-02  0.1424143E+00
          2   -1    0    0  502    0  0.00000000000E+00  0.00000000000E+00  0.64493408166E+03  0.64493408166E+03  0.00000000000E+00 0. -1.
          1   -1    0    0  501    0 -0.00000000000E+00 -0.00000000000E+00 -0.11176740064E+03  0.11176740064E+03  0.00000000000E+00 0. -1.
         25    1    1    2    0    0 -0.85592664268E+02  0.69891984839E+02  0.38134288377E+03  0.41624318459E+03  0.12500000000E+03 0.  0.
          2    1    1    2  501    0  0.54114195156E+02 -0.42137598334E+02 -0.79708131171E+02  0.10515374214E+03  0.00000000000E+00 0. -1.
          1    1    1    2  502    0  0.31478469112E+02 -0.27754386505E+02  0.23153192843E+03  0.23530455556E+03  0.00000000000E+00 0. -1.
<mgrwt>
<rscale>  0 0.54153863E+02</rscale>
<asrwt>0</asrwt>
<pdfrwt beam="1">  1        2 0.99220625E-01 0.41966653E+02</pdfrwt>
<pdfrwt beam="2">  1        1 0.17194985E-01 0.69880265E+02</pdfrwt>
<totfact> 0.19480856E+03</totfact>
</mgrwt>
</event>
<event>
 5    1  0.8459321E-003  0.1181493E+03  0.7546771E-02  0.1444542E+00
          2   -1    0    0  502    0  0.00000000000E+00  0.00000000000E+00  0.36386847317E+02  0.36386847317E+02  0.00000000000E+00 0. -1.
          1   -1    0    0  501    0 -0.00000000000E+00 -0.00000000000E+00 -0.14887879053E+04  0.14887879053E+04  0.00000000000E+00 0. -1.
         25    1    1    2    0    0 -0.63951542117E+02  0.82653298674E+02 -0.97332158059E+03  0.98686436087E+03  0.12500000000E+03 0.  0.
          2    1    1    2  501    0  0.35487423084E+01  0.20987733426E+02 -0.38571244343E+03  0.38629932376E+03  0.00000000000E+00 0. -1.
          1    1    1    2  502    0  0.60402799808E+02 -0.10364103210E+03 -0.93367033994E+02  0.15201106801E+03  0.00000000000E+00 0. -1.
<mgrwt>
<rscale>  0 0.50148625E+02</rscale>
<asrwt>0</asrwt>
<pdfrwt beam="1">  1        2 0.55979759E-02 0.11814934E+03</pdfrwt>
<pdfrwt beam="2">  1        1 0.22904432E+00 0.21285641E+02</pdfrwt>
<totfact> 0.16146908E+03</totfact>
</mgrwt>
</event>
<event>
 5    1  0.8459321E-003  0.6591153E+02  0.7546771E-02  0.1521182E+00
         -1   -1    0    0    0  501 -0.00000000000E+00  0.00000000000E+00  0.12548164690E+03  0.12548164690E+03  0.00000000000E+00 0.  1.
          1   -1    0    0  502    0  0.00000000000E+00 -0.00000000000E+00 -0.19920109964E+04  0.19920109964E+04  0.00000000000E+00 0. -1.
         25    1    1    2    0    0 -0.73710872509E+02  0.19786961967E+02 -0.14872963804E+04  0.14944899932E+04  0.12500000000E+03 0.  0.
          2    1    1    2  502    0  0.17219283689E+02  0.14082167200E+02 -0.49194949750E+03  0.49245214920E+03  0.00000000000E+00 0. -1.
         -2    1    1    2    0  501  0.56491588821E+02 -0.33869129168E+02  0.11271652839E+03  0.13055050092E+03  0.00000000000E+00 0.  1.
<mgrwt>
<rscale>  0 0.38290460E+02</rscale>
<asrwt>0</asrwt>
<pdfrwt beam="2">  1        1 0.30646323E+00 0.22244351E+02</pdfrwt>
<pdfrwt beam="1">  1       -1 0.19304869E-01 0.65911535E+02</pdfrwt>
<totfact> 0.96451703E+01</totfact>
</mgrwt>
</event>
<event>
 5    1  0.8459321E-003  0.8625833E+02  0.7546771E-02  0.1459821E+00
         -2   -1    0    0    0  501 -0.00000000000E+00  0.00000000000E+00  0.42681410783E+02  0.42681410783E+02  0.00000000000E+00 0.  1.
          2   -1    0    0  502    0  0.00000000000E+00 -0.00000000000E+00 -0.42277839661E+03  0.42277839661E+03  0.00000000000E+00 0. -1.
         25    1    1    2    0    0  0.76475427178E+02  0.21190167141E+02 -0.21767677577E+03  0.26325974408E+03  0.12500000000E+03 0.  0.
          1    1    1    2  502    0  0.10224568075E+01  0.26040274567E+02 -0.59642263694E+02  0.65087179506E+02  0.00000000000E+00 0. -1.
         -1    1    1    2    0  501 -0.77497883985E+02 -0.47230441709E+02 -0.10277794637E+03  0.13711288381E+03  0.00000000000E+00 0.  1.
<mgrwt>
<rscale>  0 0.47412248E+02</rscale>
<asrwt>0</asrwt>
<pdfrwt beam="2">  1        2 0.65042830E-01 0.26060340E+02</pdfrwt>
<pdfrwt beam="1">  1       -2 0.65663710E-02 0.86258326E+02</pdfrwt>
<totfact> 0.89240676E+03</totfact>
</mgrwt>
</event>
<event>
 5    1  0.8459321E-003  0.7699740E+02  0.7546771E-02  0.1371732E+00
          2   -1    0    0  502    0  0.00000000000E+00  0.00000000000E+00  0.16027171044E+04  0.16027171044E+04  0.00000000000E+00 0. -1.
          1   -1    0    0  501    0 -0.00000000000E+00 -0.00000000000E+00 -0.29887511666E+02  0.29887511666E+02  0.00000000000E+00 0. -1.
         25    1    1    2    0    0 -0.78682376872E+02  0.45112816364E+02  0.68478608356E+03  0.70198508736E+03  0.12500000000E+03 0.  0.
          2    1    1    2  501    0  0.27750334344E+02 -0.72353490327E+02  0.53702965149E+02  0.94282114340E+02  0.00000000000E+00 0. -1.
          1    1    1    2  502    0  0.50932042528E+02  0.27240673963E+02  0.83434054403E+03  0.83633741437E+03  0.00000000000E+00 0. -1.
<mgrwt>
<rscale>  0 0.66688152E+02</rscale>
<asrwt>0</asrwt>
<pdfrwt beam="1">  1        2 0.24657180E+00 0.57759218E+02</pdfrwt>
<pdfrwt beam="2">  1        1 0.45980800E-02 0.76997401E+02</pdfrwt>
<totfact> 0.31167666E+03</totfact>
</mgrwt>
</event>
<event>
 5    1  0.8459321E-003  0.2120044E+03  0.7546771E-02  0.1292152E+00
         -2   -1    0    0    0  501 -0.00000000000E+00  0.00000000000E+00  0.32067049305E+03  0.32067049305E+03  0.00000000000E+00 0.  1.
          2   -1    0    0  502    0  0.00000000000E+00 -0.00000000000E+00 -0.15423954646E+04  0.15423954646E+04  0.00000000000E+00 0. -1.
         25    1    1    2    0    0  0.27023963133E+01  0.22656843932E+03 -0.22206536569E+03  0.34099646227E+03  0.12500000000E+03 0.  0.
          1    1    1    2  502    0 -0.37560058517E+02 -0.19201479226E+02 -0.12181208530E+04  0.12188510440E+04  0.00000000000E+00 0. -1.
         -1    1    1    2    0  501  0.34857662204E+02 -0.20736696010E+03  0.21846124717E+03  0.30321845140E+03  0.00000000000E+00 0.  1.
<mgrwt>
<rscale>  0 0.94568004E+02</rscale>
<asrwt>0</asrwt>
<pdfrwt beam="2">  1        2 0.23729161E+00 0.42183584E+02</pdfrwt>
<pdfrwt beam="1">  1       -2 0.49333922E-01 0.21200444E+03</pdfrwt>
<totfact> 0.60606058E+01</totfact>
</mgrwt>
</event>
<event>
 5    1  0.8459321E-003  0.1554632E+03  0.7546771E-02  0.1307751E+00
          2   -1    0    0  502    0  0.00000000000E+00  0.00000000000E+00  0.16409169135E+04  0.16409169135E+04  0.00000000000E+00 0. -1.
          1   -1    0    0  501    0 -0.00000000000E+00 -0.00000000000E+00 -0.13185116290E+04  0.13185116290E+04  0.00000000000E+00 0. -1.
         25    1    1    2    0    0  0.12871120888E+03 -0.10846023188E+03 -0.12295383497E+03  0.24304905415E+03  0.12500000000E+03 0.  0.
          2    1    1    2  501    0 -0.83904925600E+02  0.13024298583E+03 -0.11298298250E+04  0.11404028698E+04  0.00000000000E+00 0. -1.
          1    1    1    2  502    0 -0.44806283277E+02 -0.21782753946E+02  0.15751889445E+04  0.15759766186E+04  0.00000000000E+00 0. -1.
<mgrwt>
<rscale>  0 0.88007200E+02</rscale>
<asrwt>0</asrwt>
<pdfrwt beam="1">  1        2 0.25244876E+00 0.49820592E+02</pdfrwt>
<pdfrwt beam="2">  1        1 0.20284794E+00 0.15546317E+03</pdfrwt>
<totfact> 0.18233123E+01</totfact>
</mgrwt>
</event>
<event>
 5    1  0.8459321E-003  0.6878520E+02  0.7546771E-02  0.1414172E+00
          1   -1    0    0  502    0  0.00000000000E+00  0.00000000000E+00  0.25932178757E+03  0.25932178757E+03  0.00000000000E+00 0. -1.
         -1   -1    0    0    0  501 -0.00000000000E+00 -0.00000000000E+00 -0.14462260296E+03  0.14462260296E+03  0.00000000000E+00 0.  1.
         25    1    1    2    0    0  0.11127844034E+03  0.11000808393E+02 -0.15604683810E+02  0.16844113283E+03  0.12500000000E+03 0.  0.
          2    1    1    2  502    0 -0.65651869801E+02 -0.48666843058E+01  0.16513559141E+03  0.17777405934E+03  0.00000000000E+00 0. -1.
         -2    1    1    2    0  501 -0.45626570543E+02 -0.61341240871E+01 -0.34831722986E+02  0.57729198366E+02  0.00000000000E+00 0.  1.
<mgrwt>
<rscale>  0 0.56273163E+02</rscale>
<asrwt>0</asrwt>
<pdfrwt beam="1">  1        1 0.39895660E-01 0.68785201E+02</pdfrwt>
<pdfrwt beam="2">  1       -1 0.22249631E-01 0.46037066E+02</pdfrwt>
<totfact> 0.16762191E+03</totfact>
</mgrwt>
</event>
<event>
 5    1  0.8459321E-003  0.4945532E+02  0.7546771E-02  0.1519687E+00
          2   -1    0    0  502    0  0.00000000000E+00  0.00000000000E+00  0.98817102648E+03  0.98817102648E+03  0.00000000000E+00 0. -1.
         -2   -1    0    0    0  501 -0.00000000000E+00 -0.00000000000E+00 -0.94151070604E+02  0.94151070604E+02  0.00000000000E+00 0.  1.
         25    1    1    2    0    0 -0.11323944772E+02 -0.29942474362E+02  0.40822515922E+03  0.42813264781E+03  0.12500000000E+03 0.  0.
          1    1    1    2  502    0 -0.98158730850E+01  0.51149595534E+02  0.56609604861E+03  0.56848691167E+03  0.00000000000E+00 0. -1.
         -1    1    1    2    0  501  0.21139817857E+02 -0.21207121172E+02 -0.80301251954E+02  0.85702537610E+02  0.00000000000E+00 0.  1.
<mgrwt>
<rscale>  0 0.38482235E+02</rscale>
<asrwt>0</asrwt>
<pdfrwt beam="1">  1        2 0.15202630E+00 0.49455317E+02</pdfrwt>
<pdfrwt beam="2">  1       -2 0.14484781E-01 0.29943846E+02</pdfrwt>
<totfact> 0.93669131E+02</totfact>
</mgrwt>
</event>
<event>
 5    1  0.8459321E-003  0.4080592E+02  0.7546771E-02  0.1604171E+00
          2   -1    0    0  502    0  0.00000000000E+00  0.00000000000E+00  0.14719536110E+04  0.14719536110E+04  0.00000000000E+00 0. -1.
          1   -1    0    0  501    0 -0.00000000000E+00 -0.00000000000E+00 -0.50077354698E+03  0.50077354698E+03  0.00000000000E+00 0. -1.
         25    1    1    2    0    0 -0.15111152153E+02  0.33389417037E+02  0.25753030240E+03  0.28860016761E+03  0.12500000000E+03 0.  0.
          2    1    1    2  501    0  0.33699607451E+02 -0.23062765882E+02 -0.48428494854E+03  0.48600356593E+03  0.00000000000E+00 0. -1.
          1    1    1    2  502    0 -0.18588455298E+02 -0.10326651155E+02  0.11979347101E+04  0.11981234244E+04  0.00000000000E+00 0. -1.
<mgrwt>
<rscale>  0 0.29456906E+02</rscale>
<asrwt>0</asrwt>
<pdfrwt beam="1">  1        2 0.22645440E+00 0.21264299E+02</pdfrwt>
<pdfrwt beam="2">  1        1 0.77042085E-01 0.40805921E+02</pdfrwt>
<totfact> 0.11267108E+02</totfact>
</mgrwt>
</event>
<event>
 5    1  0.8459321E-003  0.5737900E+02  0.7546771E-02  0.1444777E+00
         -2   -1    0    0    0  501 -0.00000000000E+00  0.00000000000E+00  0.26091967718E+02  0.26091967718E+02  0.00000000000E+00 0.  1.
          2   -1    0    0  502    0  0.00000000000E+00 -0.00000000000E+00 -0.89095452738E+03  0.89095452738E+03  0.00000000000E+00 0. -1.
         25    1    1    2    0    0  0.46219993421E+01  0.65232871996E+02 -0.38085530871E+03  0.40614339418E+03  0.12500000000E+03 0.  0.
          1    1    1    2  502    0 -0.41180881463E+02 -0.41196567677E+02 -0.45429778288E+03  0.45801691860E+03  0.00000000000E+00 0. -1.
         -1    1    1    2    0  501  0.36558882121E+02 -0.24036304319E+02 -0.29709468068E+02  0.52886182317E+02  0.00000000000E+00 0.  1.
<mgrwt>
<rscale>  0 0.50104734E+02</rscale>
<asrwt>0</asrwt>
<pdfrwt beam="2">  1        2 0.13706993E+00 0.57379003E+02</pdfrwt>
<pdfrwt beam="1">  1       -2 0.40141489E-02 0.43752666E+02</pdfrwt>
<totfact> 0.74433437E+03</totfact>
</mgrwt>
</event>
<event>
 5    1  0.8459321E-003  0.4758631E+02  0.7546771E-02  0.1567778E+00
         -2   -1    0    0    0  501 -0.00000000000E+00  0.00000000000E+00  0.15066839944E+03  0.15066839944E+03  0.00000000000E+00 0.  1.
          2   -1    0    0  502    0  0.00000000000E+00 -0.00000000000E+00 -0.66392689593E+03  0.66392689593E+03  0.00000000000E+00 0. -1.
         25    1    1    2    0    0  0.42330623786E+02  0.34093862095E+02 -0.27610280956E+03  0.30791562901E+03  0.12500000000E+03 0.  0.
          1    1    1    2  502    0  0.37870604486E+01 -0.22472588106E+02 -0.36735745804E+03  0.36806366436E+03  0.00000000000E+00 0. -1.
         -1    1    1    2    0  501 -0.46117684235E+02 -0.11621273989E+02  0.13020177112E+03  0.13861600200E+03  0.00000000000E+00 0.  1.
<mgrwt>
<rscale>  0 0.32931229E+02</rscale>
<asrwt>0</asrwt>
<pdfrwt beam="2">  1        2 0.10214260E+00 0.22789450E+02</pdfrwt>
<pdfrwt beam="1">  1       -2 0.23179753E-01 0.47586310E+02</pdfrwt>
<totfact> 0.73884476E+02</totfact>
</mgrwt>
</event>
<event>
 5    1  0.8459321E-003  0.1044759E+03  0.7546771E-02  0.1422312E+00
          2   -1    0    0  502    0  0.00000000000E+00  0.00000000000E+00  0.95051014045E+03  0.95051014045E+03  0.00000000000E+00 0. -1.
          1   -1    0    0  501    0 -0.00000000000E+00 -0.00000000000E+00 -0.54363861042E+03  0.54363861042E+03  0.00000000000E+00 0. -1.
         25    1    1    2    0    0  0.87408366137E+02  0.39610791028E+02  0.14010844292E+03  0.21086633921E+03  0.12500000000E+03 0.  0.
          2    1    1    2  501    0  0.16919669400E+02 -0.22892133201E+02 -0.50425523515E+03  0.50505808295E+03  0.00000000000E+00 0. -1.
          1    1    1    2  502    0 -0.10432803554E+03 -0.16718657827E+02  0.77101832226E+03  0.77822432870E+03  0.00000000000E+00 0. -1.
<mgrwt>
<rscale>  0 0.54534698E+02</rscale>
<asrwt>0</asrwt>
<pdfrwt beam="1">  1        2 0.14623233E+00 0.10447592E+03</pdfrwt>
<pdfrwt beam="2">  1        1 0.83636710E-01 0.28466208E+02</pdfrwt>
<totfact> 0.17322488E+02</totfact>
</mgrwt>
</event>
<event>
 5    1  0.8459321E-003  0.7014619E+02  0.7546771E-02  0.1466343E+00
          1   -1    0    0  502    0  0.00000000000E+00  0.00000000000E+00  0.51665772494E+03  0.51665772494E+03  0.00000000000E+00 0. -1.
         -1   -1    0    0    0  501 -0.00000000000E+00 -0.00000000000E+00 -0.44695265583E+02  0.44695265583E+02  0.00000000000E+00 0.  1.
         25    1    1    2    0    0 -0.50588769264E+02  0.92651907668E+01  0.13739991579E+03  0.19274025058E+03  0.12500000000E+03 0.  0.
          2    1    1    2  502    0 -0.30107558951E+02  0.52955948195E+01  0.24609967947E+03  0.24799104956E+03  0.00000000000E+00 0. -1.
         -2    1    1    2    0  501  0.80696328215E+02 -0.14560785586E+02  0.88462864105E+02  0.12062169038E+03  0.00000000000E+00 0.  1.
<mgrwt>
<rscale>  0 0.46307127E+02</rscale>
<asrwt>0</asrwt>
<pdfrwt beam="1">  1        1 0.79485800E-01 0.30569731E+02</pdfrwt>
<pdfrwt beam="2">  1       -1 0.68761950E-02 0.70146187E+02</pdfrwt>
<totfact> 0.44547736E+03</totfact>
</mgrwt>
</event>
<event>
 5    1  0.8459321E-003  0.6977837E+02  0.7546771E-02  0.1412543E+00
         -1   -1    0    0    0  501 -0.00000000000E+00  0.00000000000E+00  0.25912457560E+03  0.25912457560E+03  0.00000000000E+00 0.  1.
          1   -1    0    0  502    0  0.00000000000E+00 -0.00000000000E+00 -0.78143523210E+03  0.78143523210E+03  0.00000000000E+00 0. -1.
         25    1    1    2    0    0  0.28009795531E+02 -0.68418730331E+01 -0.79613919305E+02  0.15097925692E+03  0.12500000000E+03 0.  0.
          2    1    1    2  502    0 -0.71747027262E+02 -0.72764845458E+01 -0.66179563121E+03  0.66571318197E+03  0.00000000000E+00 0. -1.
         -2    1    1    2    0  501  0.43737231731E+02  0.14118357579E+02  0.21909889401E+03  0.22386736881E+03  0.00000000000E+00 0.  1.
<mgrwt>
<rscale>  0 0.56630180E+02</rscale>
<asrwt>0</asrwt>
<pdfrwt beam="2">  1        1 0.12022081E+00 0.69778368E+02</pdfrwt>
<pdfrwt beam="1">  1       -1 0.39865319E-01 0.45959476E+02</pdfrwt>
<totfact> 0.15876758E+02</totfact>
</mgrwt>
</event>
<event>
 5    1  0.8459321E-003  0.5262764E+02  0.7546771E-02  0.1453333E+00
          1   -1    0    0  501    0 -0.00000000000E+00  0.00000000000E+00  0.31857743028E+02  0.31857743028E+02  0.00000000000E+00 0. -1.
          2   -1    0    0  502    0  0.00000000000E+00 -0.00000000000E+00 -0.23018539958E+04  0.23018539958E+04  0.00000000000E+00 0. -1.
         25    1    1    2    0    0  0.80102673424E+02  0.42571404145E+02 -0.31488314116E+03  0.35072090802E+03  0.12500000000E+03 0.  0.
          2    1    1    2  501    0 -0.46079060535E+02 -0.13449502951E+02 -0.28433887661E+02  0.55791172392E+02  0.00000000000E+00 0. -1.
          1    1    1    2  502    0 -0.34023612889E+02 -0.29121901195E+02 -0.19266792240E+04  0.19271996584E+04  0.00000000000E+00 0. -1.
<mgrwt>
<rscale>  0 0.48548181E+02</rscale>
<asrwt>0</asrwt>
<pdfrwt beam="2">  1        2 0.35413126E+00 0.44784946E+02</pdfrwt>
<pdfrwt beam="1">  1        1 0.49011929E-02 0.52627637E+02</pdfrwt>
<totfact> 0.12873076E+03</totfact>
</mgrwt>
</event>
<event>
 5    1  0.8459321E-003  0.2471698E+03  0.7546771E-02  0.1224181E+00
          1   -1    0    0  501    0 -0.00000000000E+00  0.00000000000E+00  0.87818471849E+03  0.87818471849E+03  0.00000000000E+00 0. -1.
          2   -1    0    0  502    0  0.00000000000E+00 -0.00000000000E+00 -0.89940262459E+03  0.89940262459E+03  0.00000000000E+00 0. -1.
         25    1    1    2    0    0 -0.13264374602E+03 -0.24813546329E+03  0.26814668737E+03  0.40828080710E+03  0.12500000000E+03 0.  0.
          2    1    1    2  501    0  0.15255566118E+03  0.18025356639E+03  0.51252079263E+03  0.56430677900E+03  0.00000000000E+00 0. -1.
          1    1    1    2  502    0 -0.19911915165E+02  0.67881896900E+02 -0.80188538609E+03  0.80499975697E+03  0.00000000000E+00 0. -1.
<mgrwt>
<rscale>  0 0.13223198E+03</rscale>
<asrwt>0</asrwt>
<pdfrwt beam="2">  1        2 0.13836963E+00 0.70742040E+02</pdfrwt>
<pdfrwt beam="1">  1        1 0.13510534E+00 0.24716979E+03</pdfrwt>
<totfact> 0.88576434E+01</totfact>
</mgrwt>
</event>
<event>
 5    1  0.8459321E-003  0.4962686E+02  0.7546771E-02  0.1506152E+00
          2   -1    0    0  502    0  0.00000000000E+00  0.00000000000E+00  0.12268767716E+04  0.12268767716E+04  0.00000000000E+00 0. -1.
          1   -1    0    0  501    0 -0.00000000000E+00 -0.00000000000E+00 -0.10600165272E+03  0.10600165272E+03  0.00000000000E+00 0. -1.
         25    1    1    2    0    0  0.44276671614E+02  0.31386782914E+02  0.21695666376E+03  0.25620450374E+03  0.12500000000E+03 0.  0.
          2    1    1    2  501    0 -0.49789549264E+02  0.84072595529E+00 -0.78906303193E+02  0.93305469934E+02  0.00000000000E+00 0. -1.
          1    1    1    2  502    0  0.55128776506E+01 -0.32227508869E+02  0.98282475829E+03  0.98336845062E+03  0.00000000000E+00 0. -1.
<mgrwt>
<rscale>  0 0.40281279E+02</rscale>
<asrwt>0</asrwt>
<pdfrwt beam="1">  1        2 0.18875026E+00 0.32695629E+02</pdfrwt>
<pdfrwt beam="2">  1        1 0.16307947E-01 0.49626861E+02</pdfrwt>
<totfact> 0.93668611E+02</totfact>
</mgrwt>
</event>
<event>
 5    1  0.8459321E-003  0.8695768E+02  0.7546771E-02  0.1433704E+00
          2   -1    0    0  502    0  0.00000000000E+00  0.00000000000E+00  0.32287847025E+03  0.32287847025E+03  0.00000000000E+00 0. -1.
          1   -1    0    0  501    0 -0.00000000000E+00 -0.00000000000E+00 -0.48918002686E+03  0.48918002686E+03  0.00000000000E+00 0. -1.
         25    1    1    2    0    0 -0.68242596084E+02 -0.46410297530E+02 -0.24876879723E+03  0.29038230337E+03  0.12500000000E+03 0.  0.
          2    1    1    2  501    0  0.87882925752E+02  0.21957605556E+02 -0.20938713272E+03  0.22814143952E+03  0.00000000000E+00 0. -1.
          1    1    1    2  502    0 -0.19640329669E+02  0.24452691975E+02  0.29185437334E+03  0.29353475422E+03  0.00000000000E+00 0. -1.
<mgrwt>
<rscale>  0 0.52223631E+02</rscale>
<asrwt>0</asrwt>
<pdfrwt beam="1">  1        2 0.49673611E-01 0.31363621E+02</pdfrwt>
<pdfrwt beam="2">  1        1 0.75258465E-01 0.86957679E+02</pdfrwt>
<totfact> 0.64870854E+02</totfact>
</mgrwt>
</event>
<event>
 5    1  0.8459321E-003  0.2220376E+03  0.7546771E-02  0.1257479E+00
         -2   -1    0    0    0  501 -0.00000000000E+00  0.00000000000E+00  0.13032814882E+03  0.13032814882E+03  0.00000000000E+00 0.  1.
          2   -1    0    0  502    0  0.00000000000E+00 -0.00000000000E+00 -0.20932838357E+04  0.20932838357E+04  0.00000000000E+00 0. -1.
         25    1    1    2    0    0  0.21275420179E+03  0.79563452983E+01 -0.91052217232E+03  0.94339985165E+03  0.12500000000E+03 0.  0.
          1    1    1    2  502    0 -0.22220199660E+03 -0.63334826951E+02 -0.11470962663E+04  0.11701345529E+04  0.00000000000E+00 0. -1.
         -1    1    1    2    0  501  0.94477948098E+01  0.55378481652E+02  0.94662751740E+02  0.11007758002E+03  0.00000000000E+00 0.  1.
<mgrwt>
<rscale>  0 0.11168600E+03</rscale>
<asrwt>0</asrwt>
<pdfrwt beam="2">  1        2 0.32204365E+00 0.22203757E+03</pdfrwt>
<pdfrwt beam="1">  1       -2 0.20050485E-01 0.56178617E+02</pdfrwt>
<totfact> 0.13492335E+02</totfact>
</mgrwt>
</event>
<event>
 5    1  0.8459321E-003  0.2861658E+03  0.7546771E-02  0.1199004E+00
          2   -1    0    0  502    0  0.00000000000E+00  0.00000000000E+00  0.25887640561E+04  0.25887640561E+04  0.00000000000E+00 0. -1.
          1   -1    0    0  501    0 -0.00000000000E+00 -0.00000000000E+00 -0.10267074921E+04  0.10267074921E+04  0.00000000000E+00 0. -1.
         25    1    1    2    0    0 -0.15406883234E+03 -0.28661137837E+03  0.12324651995E+04  0.12808117563E+04  0.12500000000E+03 0.  0.
          2    1    1    2  501    0  0.74932196229E+02  0.27566078683E+03 -0.98094372447E+03  0.10216918782E+04  0.00000000000E+00 0. -1.
          1    1    1    2  502    0  0.79136636112E+02  0.10950591534E+02  0.13105350891E+04  0.13129679137E+04  0.00000000000E+00 0. -1.
<mgrwt>
<rscale>  0 0.15120180E+03</rscale>
<asrwt>0</asrwt>
<pdfrwt beam="1">  1        2 0.39827139E+00 0.79890692E+02</pdfrwt>
<pdfrwt beam="2">  1        1 0.15795500E+00 0.28616580E+03</pdfrwt>
<totfact> 0.88694525E+00</totfact>
</mgrwt>
</event>
<event>
 5    1  0.8459321E-003  0.5855636E+02  0.7546771E-02  0.1407897E+00
          2   -1    0    0  502    0  0.00000000000E+00  0.00000000000E+00  0.18750255522E+04  0.18750255522E+04  0.00000000000E+00 0. -1.
          1   -1    0    0  501    0 -0.00000000000E+00 -0.00000000000E+00 -0.46514978027E+02  0.46514978027E+02  0.00000000000E+00 0. -1.
         25    1    1    2    0    0  0.32889168438E+02  0.20419842594E+02  0.81118122089E+03  0.82166820584E+03  0.12500000000E+03 0.  0.
          2    1    1    2  501    0 -0.39520837898E+02  0.43208222564E+02 -0.19006575340E+02  0.61563763948E+02  0.00000000000E+00 0. -1.
          1    1    1    2  502    0  0.66316694593E+01 -0.63628065158E+02  0.10363359286E+04  0.10383085604E+04  0.00000000000E+00 0. -1.
<mgrwt>
<rscale>  0 0.57665649E+02</rscale>
<asrwt>0</asrwt>
<pdfrwt beam="1">  1        2 0.28846541E+00 0.56788488E+02</pdfrwt>
<pdfrwt beam="2">  1        1 0.71561519E-02 0.58556359E+02</pdfrwt>
<totfact> 0.12417977E+03</totfact>
</mgrwt>
</event>
<event>
 5    1  0.8459321E-003  0.1141710E+03  0.7546771E-02  0.1257450E+00
          1   -1    0    0  501    0 -0.00000000000E+00  0.00000000000E+00  0.13994628627E+04  0.13994628627E+04  0.00000000000E+00 0. -1.
          2   -1    0    0  502    0  0.00000000000E+00 -0.00000000000E+00 -0.22934415861E+03  0.22934415861E+03  0.00000000000E+00 0. -1.
         25    1    1    2    0    0 -0.29157414055E+02 -0.23752301851E+02  0.19654107706E+03  0.23594008055E+03  0.12500000000E+03 0.  0.
          2    1    1    2  501    0  0.12890207746E+03 -0.20906909512E+02  0.11650798603E+04  0.11723753346E+04  0.00000000000E+00 0. -1.
          1    1    1    2  502    0 -0.99744663401E+02  0.44659211363E+02 -0.19150223325E+03  0.22049160613E+03  0.00000000000E+00 0. -1.
<mgrwt>
<rscale>  0 0.11170185E+03</rscale>
<asrwt>0</asrwt>
<pdfrwt beam="2">  1        2 0.35283717E-01 0.10928606E+03</pdfrwt>
<pdfrwt beam="1">  1        1 0.21530197E+00 0.11417104E+03</pdfrwt>
<totfact> 0.17795999E+02</totfact>
</mgrwt>
</event>
<event>
 5    1  0.8459321E-003  0.9837538E+02  0.7546771E-02  0.1322264E+00
          1   -1    0    0  501    0 -0.00000000000E+00  0.00000000000E+00  0.10621564723E+04  0.10621564723E+04  0.00000000000E+00 0. -1.
          2   -1    0    0  502    0  0.00000000000E+00 -0.00000000000E+00 -0.25310445921E+04  0.25310445921E+04  0.00000000000E+00 0. -1.
         25    1    1    2    0    0 -0.46441997883E+02 -0.31232481064E+02 -0.29543696773E+03  0.32563834071E+03  0.12500000000E+03 0.  0.
          2    1    1    2  501    0  0.97635008242E+02 -0.15160955277E+02  0.10441857082E+04  0.10488499619E+04  0.00000000000E+00 0. -1.
          1    1    1    2  502    0 -0.51193010359E+02  0.46393436340E+02 -0.22176368603E+04  0.22187127618E+04  0.00000000000E+00 0. -1.
<mgrwt>
<rscale>  0 0.82440911E+02</rscale>
<asrwt>0</asrwt>
<pdfrwt beam="2">  1        2 0.38939147E+00 0.69087446E+02</pdfrwt>
<pdfrwt beam="1">  1        1 0.16340869E+00 0.98375380E+02</pdfrwt>
<totfact> 0.98005538E+00</totfact>
</mgrwt>
</event>
<event>
 5    1  0.8459321E-003  0.2056161E+03  0.7546771E-02  0.1356122E+00
          1   -1    0    0  501    0 -0.00000000000E+00  0.00000000000E+00  0.12608612869E+04  0.12608612869E+04  0.00000000000E+00 0. -1.
          2   -1    0    0  502    0  0.00000000000E+00 -0.00000000000E+00 -0.14427582595E+03  0.14427582595E+03  0.00000000000E+00 0. -1.
         25    1    1    2    0    0  0.17169401353E+03  0.12681508365E+03  0.63396527714E+03  0.68051294795E+03  0.12500000000E+03 0.  0.
          2    1    1    2  501    0 -0.21403845404E+02  0.12210419643E+02  0.51651742606E+03  0.51710489300E+03  0.00000000000E+00 0. -1.
          1    1    1    2  502    0 -0.15029016812E+03 -0.13902550329E+03 -0.33897242193E+02  0.20751927194E+03  0.00000000000E+00 0. -1.
<mgrwt>
<rscale>  0 0.71181139E+02</rscale>
<asrwt>0</asrwt>
<pdfrwt beam="2">  1        2 0.22196282E-01 0.20561614E+03</pdfrwt>
<pdfrwt beam="1">  1        1 0.19397865E+00 0.24641813E+02</pdfrwt>
<totfact> 0.42247194E+02</totfact>
</mgrwt>
</event>
<event>
 5    1  0.8459321E-003  0.9181607E+02  0.7546771E-02  0.1378429E+00
          2   -1    0    0  502    0  0.00000000000E+00  0.00000000000E+00  0.78557574693E+03  0.78557574693E+03  0.00000000000E+00 0. -1.
          1   -1    0    0  501    0 -0.00000000000E+00 -0.00000000000E+00 -0.20114331822E+03  0.20114331822E+03  0.00000000000E+00 0. -1.
         25    1    1    2    0    0 -0.36106375807E+02 -0.46628790349E+02 -0.66851099988E+02  0.15353170367E+03  0.12500000000E+03 0.  0.
          2    1    1    2  501    0 -0.45754138872E+02  0.28693740318E+01 -0.82057455214E+02  0.93995215237E+02  0.00000000000E+00 0. -1.
          1    1    1    2  502    0  0.81860514679E+02  0.43759416317E+02  0.73334098391E+03  0.73919214624E+03  0.00000000000E+00 0. -1.
<mgrwt>
<rscale>  0 0.64878488E+02</rscale>
<asrwt>0</asrwt>
<pdfrwt beam="1">  1        2 0.12085781E+00 0.91816072E+02</pdfrwt>
<pdfrwt beam="2">  1        1 0.30945126E-01 0.45844024E+02</pdfrwt>
<totfact> 0.72648051E+02</totfact>
</mgrwt>
</event>
<event>
 5    1  0.8459321E-003  0.1724812E+03  0.7546771E-02  0.1271627E+00
          2   -1    0    0  502    0  0.00000000000E+00  0.00000000000E+00  0.15160033037E+04  0.15160033037E+04  0.00000000000E+00 0. -1.
          1   -1    0    0  501    0 -0.00000000000E+00 -0.00000000000E+00 -0.57028386915E+03  0.57028386915E+03  0.00000000000E+00 0. -1.
         25    1    1    2    0    0  0.19506145743E+03 -0.12385106912E+03  0.75834859596E+02  0.27343003753E+03  0.12500000000E+03 0.  0.
          2    1    1    2  501    0 -0.46630065250E+02  0.42357450790E+02 -0.46400537603E+03  0.46826221886E+03  0.00000000000E+00 0. -1.
          1    1    1    2  502    0 -0.14843139218E+03  0.81493618326E+02  0.13338899510E+04  0.13445949165E+04  0.00000000000E+00 0. -1.
<mgrwt>
<rscale>  0 0.10423845E+03</rscale>
<asrwt>0</asrwt>
<pdfrwt beam="1">  1        2 0.23323128E+00 0.17248122E+03</pdfrwt>
<pdfrwt beam="2">  1        1 0.87735981E-01 0.62996164E+02</pdfrwt>
<totfact> 0.75122725E+01</totfact>
</mgrwt>
</event>
<event>
 5    1  0.8459321E-003  0.1051628E+03  0.7546771E-02  0.1343591E+00
          2   -1    0    0  502    0  0.00000000000E+00  0.00000000000E+00  0.29325321912E+04  0.29325321912E+04  0.00000000000E+00 0. -1.
          1   -1    0    0  501    0 -0.00000000000E+00 -0.00000000000E+00 -0.37752443140E+03  0.37752443140E+03  0.00000000000E+00 0. -1.
         25    1    1    2    0    0  0.91796983348E+02  0.10177998165E+03  0.63795552043E+02  0.19616504091E+03  0.12500000000E+03 0.  0.
          2    1    1    2  501    0 -0.38475326486E+02 -0.96152334938E+02 -0.30246284691E+03  0.31970204257E+03  0.00000000000E+00 0. -1.
          1    1    1    2  502    0 -0.53321656862E+02 -0.56276467108E+01  0.27936750547E+04  0.27941895391E+04  0.00000000000E+00 0. -1.
<mgrwt>
<rscale>  0 0.75090617E+02</rscale>
<asrwt>0</asrwt>
<pdfrwt beam="1">  1        2 0.45115878E+00 0.53617810E+02</pdfrwt>
<pdfrwt beam="2">  1        1 0.58080684E-01 0.10516283E+03</pdfrwt>
<totfact> 0.26567407E+01</totfact>
</mgrwt>
</event>
<event>
 5    1  0.8459321E-003  0.1759775E+03  0.7546771E-02  0.1284835E+00
          1   -1    0    0  501    0 -0.00000000000E+00  0.00000000000E+00  0.32224850266E+03  0.32224850266E+03  0.00000000000E+00 0. -1.
          2   -1    0    0  502    0  0.00000000000E+00 -0.00000000000E+00 -0.72387643061E+03  0.72387643061E+03  0.00000000000E+00 0. -1.
         25    1    1    2    0    0 -0.70557316139E+02 -0.14478652193E+03 -0.19172720852E+02  0.20477808725E+03  0.12500000000E+03 0.  0.
          2    1    1    2  501    0  0.29241614705E+02  0.18022642881E+03  0.19163045247E+03  0.26468635776E+03  0.00000000000E+00 0. -1.
          1    1    1    2  502    0  0.41315701435E+02 -0.35439906879E+02 -0.57408565958E+03  0.57666048826E+03  0.00000000000E+00 0. -1.
<mgrwt>
<rscale>  0 0.97872463E+02</rscale>
<asrwt>0</asrwt>
<pdfrwt beam="2">  1        2 0.11136560E+00 0.54433208E+02</pdfrwt>
<pdfrwt beam="1">  1        1 0.49576693E-01 0.17597748E+03</pdfrwt>
<totfact> 0.46329375E+02</totfact>
</mgrwt>
</event>
<event>
 5    1  0.8459321E-003  0.8181680E+02  0.7546771E-02  0.1408819E+00
          1   -1    0    0  501    0 -0.00000000000E+00  0.00000000000E+00  0.23654989628E+03  0.23654989628E+03  0.00000000000E+00 0. -1.
          2   -1    0    0  502    0  0.00000000000E+00 -0.00000000000E+00 -0.25905479252E+04  0.25905479252E+04  0.00000000000E+00 0. -1.
         25    1    1    2    0    0 -0.89023716825E+02 -0.69341969337E+02 -0.16081127433E+03  0.23284930067E+03  0.12500000000E+03 0.  0.
          2    1    1    2  501    0  0.40110117010E+02  0.44092549211E+01  0.19780311447E+03  0.20187702968E+03  0.00000000000E+00 0. -1.
          1    1    1    2  502    0  0.48913599815E+02  0.64932714416E+02 -0.23909898691E+04  0.23923714911E+04  0.00000000000E+00 0. -1.
<mgrwt>
<rscale>  0 0.57458250E+02</rscale>
<asrwt>0</asrwt>
<pdfrwt beam="2">  1        2 0.39854583E+00 0.81816805E+02</pdfrwt>
<pdfrwt beam="1">  1        1 0.36392292E-01 0.40351741E+02</pdfrwt>
<totfact> 0.66638927E+01</totfact>
</mgrwt>
</event>
<event>
 5    1  0.8459321E-003  0.3096611E+03  0.7546771E-02  0.1167453E+00
         -2   -1    0    0    0  501 -0.00000000000E+00  0.00000000000E+00  0.43742554090E+03  0.43742554090E+03  0.00000000000E+00 0.  1.
          2   -1    0    0  502    0  0.00000000000E+00 -0.00000000000E+00 -0.41226306634E+03  0.41226306634E+03  0.00000000000E+00 0. -1.
         25    1    1    2    0    0 -0.32971599174E+03 -0.17044070456E+03  0.70422726782E+02  0.39792842249E+03  0.12500000000E+03 0.  0.
          1    1    1    2  502    0  0.22498189819E+03  0.17860359287E+03 -0.13142346291E+03  0.31589274209E+03  0.00000000000E+00 0. -1.
         -1    1    1    2    0  501  0.10473409355E+03 -0.81628883091E+01  0.86163210699E+02  0.13586744266E+03  0.00000000000E+00 0.  1.
<mgrwt>
<rscale>  0 0.18036195E+03</rscale>
<asrwt>0</asrwt>
<pdfrwt beam="2">  1        2 0.63425087E-01 0.30966115E+03</pdfrwt>
<pdfrwt beam="1">  1       -2 0.67296237E-01 0.10505172E+03</pdfrwt>
<totfact> 0.16364884E+02</totfact>
</mgrwt>
</event>
<event>
 5    1  0.8459321E-003  0.3900996E+02  0.7546771E-02  0.1578513E+00
          3   -1    0    0  501    0 -0.00000000000E+00  0.00000000000E+00  0.18771427067E+03  0.18771427067E+03  0.00000000000E+00 0. -1.
          2   -1    0    0  502    0  0.00000000000E+00 -0.00000000000E+00 -0.41770670669E+03  0.41770670669E+03  0.00000000000E+00 0. -1.
         25    1    1    2    0    0 -0.12810593021E+02 -0.10132549164E+02 -0.22265963566E+02  0.12801387807E+03  0.12500000000E+03 0.  0.
          2    1    1    2  501    0 -0.38803364276E+01 -0.25710174185E+02  0.13243102387E+03  0.13495942409E+03  0.00000000000E+00 0. -1.
          3    1    1    2  502    0  0.16690929449E+02  0.35842723348E+02 -0.34015749632E+03  0.34244767520E+03  0.00000000000E+00 0. -1.
<mgrwt>
<rscale>  0 0.31848259E+02</rscale>
<asrwt>0</asrwt>
<pdfrwt beam="2">  1        2 0.64262570E-01 0.39009964E+02</pdfrwt>
<pdfrwt beam="1">  1        3 0.28879119E-01 0.26001347E+02</pdfrwt>
<totfact> 0.45483079E+02</totfact>
</mgrwt>
</event>
<event>
 5    1  0.8459321E-003  0.7435021E+02  0.7546771E-02  0.1351677E+00
         -1   -1    0    0    0  501 -0.00000000000E+00  0.00000000000E+00  0.28212894831E+03  0.28212894831E+03  0.00000000000E+00 0.  1.
          1   -1    0    0  502    0  0.00000000000E+00 -0.00000000000E+00 -0.32283312478E+04  0.32283312478E+04  0.00000000000E+00 0. -1.
         25    1    1    2    0    0 -0.12403635158E+03  0.59798990443E+02 -0.34013506748E+03  0.38765680686E+03  0.12500000000E+03 0.  0.
          2    1    1    2  502    0  0.51358582428E+02 -0.48683035559E+02 -0.28587580243E+04  0.28596337499E+04  0.00000000000E+00 0. -1.
         -2    1    1    2    0  501  0.72677769154E+02 -0.11115954884E+02  0.25269079229E+03  0.26316963938E+03  0.00000000000E+00 0.  1.
<mgrwt>
<rscale>  0 0.72535663E+02</rscale>
<asrwt>0</asrwt>
<pdfrwt beam="2">  1        1 0.49666636E+00 0.70765401E+02</pdfrwt>
<pdfrwt beam="1">  1       -1 0.43404453E-01 0.74350210E+02</pdfrwt>
<totfact> 0.34136536E+00</totfact>
</mgrwt>
</event>
<event>
 5    1  0.8459321E-003  0.5937036E+02  0.7546771E-02  0.1406662E+00
          2   -1    0    0  502    0  0.00000000000E+00  0.00000000000E+00  0.97425134422E+03  0.97425134422E+03  0.00000000000E+00 0. -1.
          1   -1    0    0  501    0 -0.00000000000E+00 -0.00000000000E+00 -0.66919727720E+02  0.66919727720E+02  0.00000000000E+00 0. -1.
         25    1    1    2    0    0 -0.33702793489E+02  0.79223799994E+01  0.11439250141E+03  0.17294301597E+03  0.12500000000E+03 0.  0.
          2    1    1    2  501    0  0.39556905285E+02  0.51158653349E+02 -0.79379304320E+01  0.65153413631E+02  0.00000000000E+00 0. -1.
          1    1    1    2  502    0 -0.58541117962E+01 -0.59081033348E+02  0.80087704552E+03  0.80307464234E+03  0.00000000000E+00 0. -1.
<mgrwt>
<rscale>  0 0.57945380E+02</rscale>
<asrwt>0</asrwt>
<pdfrwt beam="1">  1        2 0.14988481E+00 0.59370356E+02</pdfrwt>
<pdfrwt beam="2">  1        1 0.10295343E-01 0.56554606E+02</pdfrwt>
<totfact> 0.22347227E+03</totfact>
</mgrwt>
</event>
<event>
 5    1  0.8459321E-003  0.4590428E+02  0.7546771E-02  0.1518159E+00
          2   -1    0    0  502    0  0.00000000000E+00  0.00000000000E+00  0.34378142501E+03  0.34378142501E+03  0.00000000000E+00 0. -1.
         -2   -1    0    0    0  501 -0.00000000000E+00 -0.00000000000E+00 -0.24642644909E+03  0.24642644909E+03  0.00000000000E+00 0.  1.
         25    1    1    2    0    0  0.28885434857E+01 -0.78078645875E+02  0.21607885122E+03  0.26157157446E+03  0.12500000000E+03 0.  0.
          1    1    1    2  502    0  0.13924123684E+00  0.32591800799E+02  0.10001810344E+03  0.10519441945E+03  0.00000000000E+00 0. -1.
         -1    1    1    2    0  501 -0.30277847226E+01  0.45486845076E+02 -0.21874197874E+03  0.22344188018E+03  0.00000000000E+00 0.  1.
<mgrwt>
<rscale>  0 0.38679671E+02</rscale>
<asrwt>0</asrwt>
<pdfrwt beam="1">  1        2 0.52889450E-01 0.32592098E+02</pdfrwt>
<pdfrwt beam="2">  1       -2 0.37911761E-01 0.45904285E+02</pdfrwt>
<totfact> 0.60903185E+02</totfact>
</mgrwt>
</event>
<event>
 5    1  0.8459321E-003  0.7876078E+02  0.7546771E-02  0.1396339E+00
          1   -1    0    0  501    0 -0.00000000000E+00  0.00000000000E+00  0.11633303740E+03  0.11633303740E+03  0.00000000000E+00 0. -1.
          2   -1    0    0  502    0  0.00000000000E+00 -0.00000000000E+00 -0.27298756147E+04  0.27298756147E+04  0.00000000000E+00 0. -1.
         25    1    1    2    0    0 -0.10131536423E+03  0.11675158421E+01 -0.64157312407E+02  0.17322623028E+03  0.12500000000E+03 0.  0.
          2    1    1    2  501    0  0.30310934469E+02 -0.34937818521E+02  0.52465985052E+02  0.69943430705E+02  0.00000000000E+00 0. -1.
          1    1    1    2  502    0  0.71004429762E+02  0.33770302679E+02 -0.26018512499E+04  0.26030389911E+04  0.00000000000E+00 0. -1.
<mgrwt>
<rscale>  0 0.60357076E+02</rscale>
<asrwt>0</asrwt>
<pdfrwt beam="2">  1        2 0.41998085E+00 0.78760777E+02</pdfrwt>
<pdfrwt beam="1">  1        1 0.17897391E-01 0.46253691E+02</pdfrwt>
<totfact> 0.13357451E+02</totfact>
</mgrwt>
</event>
<event>
 5    1  0.8459321E-003  0.5441599E+02  0.7546771E-02  0.1494890E+00
          2   -1    0    0  502    0  0.00000000000E+00  0.00000000000E+00  0.35404681142E+03  0.35404681142E+03  0.00000000000E+00 0. -1.
          1   -1    0    0  501    0 -0.00000000000E+00 -0.00000000000E+00 -0.18912347557E+03  0.18912347557E+03  0.00000000000E+00 0. -1.
         25    1    1    2    0    0 -0.75369036384E+01 -0.31663489298E+02  0.11379228985E+02  0.12966830115E+03  0.12500000000E+03 0.  0.
          2    1    1    2  501    0  0.24008718487E+02 -0.21480495534E+02 -0.12519029025E+03  0.12926886332E+03  0.00000000000E+00 0. -1.
          1    1    1    2  502    0 -0.16471814849E+02  0.53143984833E+02  0.27873439711E+03  0.28423312252E+03  0.00000000000E+00 0. -1.
<mgrwt>
<rscale>  0 0.41869220E+02</rscale>
<asrwt>0</asrwt>
<pdfrwt beam="1">  1        2 0.54468740E-01 0.54415994E+02</pdfrwt>
<pdfrwt beam="2">  1        1 0.29095919E-01 0.32215373E+02</pdfrwt>
<totfact> 0.18629201E+03</totfact>
</mgrwt>
</event>
<event>
 5    1  0.8459321E-003  0.1166433E+03  0.7546771E-02  0.1377347E+00
          1   -1    0    0  501    0 -0.00000000000E+00  0.00000000000E+00  0.17869645257E+04  0.17869645257E+04  0.00000000000E+00 0. -1.
          2   -1    0    0  502    0  0.00000000000E+00 -0.00000000000E+00 -0.22707979503E+03  0.22707979503E+03  0.00000000000E+00 0. -1.
         25    1    1    2    0    0 -0.94783409672E+02  0.66680817906E+02  0.54484213102E+02  0.17895182509E+03  0.12500000000E+03 0.  0.
          2    1    1    2  501    0  0.11166321602E+03 -0.34423213422E+02  0.16661649123E+04  0.16702572097E+04  0.00000000000E+00 0. -1.
          1    1    1    2  502    0 -0.16879806344E+02 -0.32257604484E+02 -0.16076439471E+03  0.16483528601E+03  0.00000000000E+00 0. -1.
<mgrwt>
<rscale>  0 0.65166344E+02</rscale>
<asrwt>0</asrwt>
<pdfrwt beam="2">  1        2 0.34935354E-01 0.36407155E+02</pdfrwt>
<pdfrwt beam="1">  1        1 0.27491761E+00 0.11664335E+03</pdfrwt>
<totfact> 0.99078879E+01</totfact>
</mgrwt>
</event>
<event>
 5    1  0.8459321E-003  0.4335746E+02  0.7546771E-02  0.1539513E+00
          1   -1    0    0  502    0  0.00000000000E+00  0.00000000000E+00  0.16333674755E+04  0.16333674755E+04  0.00000000000E+00 0. -1.
         -1   -1    0    0    0  501 -0.00000000000E+00 -0.00000000000E+00 -0.81970349022E+01  0.81970349022E+01  0.00000000000E+00 0.  1.
         25    1    1    2    0    0 -0.34807353845E+02 -0.96629446233E+01  0.74070064055E+03  0.75204212867E+03  0.12500000000E+03 0.  0.
          2    1    1    2  502    0  0.24665656078E+02  0.37860246079E+02  0.76565088166E+03  0.76698309330E+03  0.00000000000E+00 0. -1.
         -2    1    1    2    0  501  0.10141697766E+02 -0.28197301455E+02  0.11881891840E+03  0.12253928845E+03  0.00000000000E+00 0.  1.
<mgrwt>
<rscale>  0 0.36044912E+02</rscale>
<asrwt>0</asrwt>
<pdfrwt beam="1">  1        1 0.25128704E+00 0.43357461E+02</pdfrwt>
<pdfrwt beam="2">  1       -1 0.12610836E-02 0.29965678E+02</pdfrwt>
<totfact> 0.67355276E+03</totfact>
</mgrwt>
</event>
<event>
 5    1  0.8459321E-003  0.3427054E+02  0.7546771E-02  0.1609420E+00
          1   -1    0    0  501    0 -0.00000000000E+00  0.00000000000E+00  0.64317978867E+02  0.64317978867E+02  0.00000000000E+00 0. -1.
          2   -1    0    0  502    0  0.00000000000E+00 -0.00000000000E+00 -0.94515895612E+03  0.94515895612E+03  0.00000000000E+00 0. -1.
         25    1    1    2    0    0 -0.19213458999E+02  0.94560703619E+01 -0.81038654677E+03  0.82024991890E+03  0.12500000000E+03 0.  0.
          2    1    1    2  501    0  0.11005079120E+02 -0.32581442768E+02  0.53097702081E+02  0.63261585070E+02  0.00000000000E+00 0. -1.
          1    1    1    2  502    0  0.82083798790E+01  0.23125372406E+02 -0.12355213257E+03  0.12596543101E+03  0.00000000000E+00 0. -1.
<mgrwt>
<rscale>  0 0.28999366E+02</rscale>
<asrwt>0</asrwt>
<pdfrwt beam="2">  1        2 0.14540907E+00 0.24538956E+02</pdfrwt>
<pdfrwt beam="1">  1        1 0.98950736E-02 0.34270540E+02</pdfrwt>
<totfact> 0.24564334E+03</totfact>
</mgrwt>
</event>
<event>
 5    1  0.8459321E-003  0.4294818E+02  0.7546771E-02  0.1497190E+00
         -2   -1    0    0    0  501 -0.00000000000E+00  0.00000000000E+00  0.70066487027E+02  0.70066487027E+02  0.00000000000E+00 0.  1.
          2   -1    0    0  502    0  0.00000000000E+00 -0.00000000000E+00 -0.18428227054E+03  0.18428227054E+03  0.00000000000E+00 0. -1.
         25    1    1    2    0    0  0.16240996868E+02  0.14935671072E+02 -0.44299514075E+02  0.13444066050E+03  0.12500000000E+03 0.  0.
          1    1    1    2  502    0 -0.54646771827E+01  0.39800563220E+02 -0.39625427543E+02  0.56428025283E+02  0.00000000000E+00 0. -1.
         -1    1    1    2    0  501 -0.10776319685E+02 -0.54736234292E+02 -0.30290841892E+02  0.63480071778E+02  0.00000000000E+00 0.  1.
<mgrwt>
<rscale>  0 0.41537920E+02</rscale>
<asrwt>0</asrwt>
<pdfrwt beam="2">  1        2 0.28351118E-01 0.40173966E+02</pdfrwt>
<pdfrwt beam="1">  1       -2 0.10779460E-01 0.42948183E+02</pdfrwt>
<totfact> 0.92422072E+03</totfact>
</mgrwt>
</event>
<event>
 5    1  0.8459321E-003  0.6880726E+02  0.7546771E-02  0.1444690E+00
          1   -1    0    0  501    0 -0.00000000000E+00  0.00000000000E+00  0.97554996150E+03  0.97554996150E+03  0.00000000000E+00 0. -1.
          2   -1    0    0  502    0  0.00000000000E+00 -0.00000000000E+00 -0.24619503284E+03  0.24619503284E+03  0.00000000000E+00 0. -1.
         25    1    1    2    0    0 -0.61391141085E+01 -0.88486527623E+02  0.32253548534E+03  0.35710179724E+03  0.12500000000E+03 0.  0.
          2    1    1    2  501    0  0.29583430582E+02  0.60499095253E+02  0.63247650550E+03  0.63605176669E+03  0.00000000000E+00 0. -1.
          1    1    1    2  502    0 -0.23444316473E+02  0.27987432370E+02 -0.22565706218E+03  0.22859143041E+03  0.00000000000E+00 0. -1.
<mgrwt>
<rscale>  0 0.50120936E+02</rscale>
<asrwt>0</asrwt>
<pdfrwt beam="2">  1        2 0.37876160E-01 0.36509346E+02</pdfrwt>
<pdfrwt beam="1">  1        1 0.15008461E+00 0.68807264E+02</pdfrwt>
<totfact> 0.32627432E+02</totfact>
</mgrwt>
</event>
<event>
 5    1  0.8459321E-003  0.1260931E+03  0.7546771E-02  0.1244190E+00
          1   -1    0    0  501    0 -0.00000000000E+00  0.00000000000E+00  0.74791039464E+02  0.74791039464E+02  0.00000000000E+00 0. -1.
          2   -1    0    0  502    0  0.00000000000E+00 -0.00000000000E+00 -0.11672141535E+04  0.11672141535E+04  0.00000000000E+00 0. -1.
         25    1    1    2    0    0 -0.27397026258E+02 -0.42304864941E+02 -0.25920002559E+03  0.29214714086E+03  0.12500000000E+03 0.  0.
          2    1    1    2  501    0 -0.73101004930E+02 -0.86101597001E+02 -0.13126400122E+02  0.11370815410E+03  0.00000000000E+00 0. -1.
          1    1    1    2  502    0  0.10049803119E+03  0.12840646194E+03 -0.82009668830E+03  0.83614989798E+03  0.00000000000E+00 0. -1.
<mgrwt>
<rscale>  0 0.11933968E+03</rscale>
<asrwt>0</asrwt>
<pdfrwt beam="2">  1        2 0.17957139E+00 0.12609311E+03</pdfrwt>
<pdfrwt beam="1">  1        1 0.11506315E-01 0.11294796E+03</pdfrwt>
<totfact> 0.15049367E+03</totfact>
</mgrwt>
</event>
<event>
 5    1  0.8459321E-003  0.7838500E+02  0.7546771E-02  0.1472674E+00
          1   -1    0    0  501    0 -0.00000000000E+00  0.00000000000E+00  0.11899224755E+04  0.11899224755E+04  0.00000000000E+00 0. -1.
          2   -1    0    0  502    0  0.00000000000E+00 -0.00000000000E+00 -0.88071259190E+03  0.88071259190E+03  0.00000000000E+00 0. -1.
         25    1    1    2    0    0  0.58945057414E+02  0.80140156089E+02  0.61771446859E+03  0.63803850128E+03  0.12500000000E+03 0.  0.
          2    1    1    2  501    0 -0.44810545578E+02 -0.58147760057E+02  0.55945122810E+03  0.56424712991E+03  0.00000000000E+00 0. -1.
          1    1    1    2  502    0 -0.14134511836E+02 -0.21992396032E+02 -0.86795581308E+03  0.86834943621E+03  0.00000000000E+00 0. -1.
<mgrwt>
<rscale>  0 0.45268192E+02</rscale>
<asrwt>0</asrwt>
<pdfrwt beam="2">  1        2 0.13549424E+00 0.26142875E+02</pdfrwt>
<pdfrwt beam="1">  1        1 0.18306500E+00 0.78384998E+02</pdfrwt>
<totfact> 0.60805473E+01</totfact>
</mgrwt>
</event>
<event>
 5    1  0.8459321E-003  0.1162748E+03  0.7546771E-02  0.1267119E+00
          2   -1    0    0  502    0  0.00000000000E+00  0.00000000000E+00  0.16690106815E+04  0.16690106815E+04  0.00000000000E+00 0. -1.
          1   -1    0    0  501    0 -0.00000000000E+00 -0.00000000000E+00 -0.44305809509E+03  0.44305809509E+03  0.00000000000E+00 0. -1.
         25    1    1    2    0    0  0.91406801213E+02 -0.17307526550E+03 -0.19649873797E+02  0.23306944968E+03  0.12500000000E+03 0.  0.
          2    1    1    2  501    0 -0.18319999838E+02  0.10836681539E+03 -0.30558270713E+03  0.32474571586E+03  0.00000000000E+00 0. -1.
          1    1    1    2  502    0 -0.73086801375E+02  0.64708450106E+02  0.15511851673E+04  0.15542536110E+04  0.00000000000E+00 0. -1.
<mgrwt>
<rscale>  0 0.10653763E+03</rscale>
<asrwt>0</asrwt>
<pdfrwt beam="1">  1        2 0.25677087E+00 0.97615901E+02</pdfrwt>
<pdfrwt beam="2">  1        1 0.68162785E-01 0.11627478E+03</pdfrwt>
<totfact> 0.89586476E+01</totfact>
</mgrwt>
</event>
<event>
 5    1  0.8459321E-003  0.6474375E+02  0.7546771E-02  0.1421815E+00
          2   -1    0    0  502    0  0.00000000000E+00  0.00000000000E+00  0.49712001026E+02  0.49712001026E+02  0.00000000000E+00 0. -1.
          1   -1    0    0  501    0 -0.00000000000E+00 -0.00000000000E+00 -0.23726944552E+04  0.23726944552E+04  0.00000000000E+00 0. -1.
         25    1    1    2    0    0 -0.41712154066E+02 -0.70517406614E+01 -0.69700213806E+02  0.14924057976E+03  0.12500000000E+03 0.  0.
          2    1    1    2  501    0  0.53220997338E+02 -0.37599706952E+02 -0.22065586641E+04  0.22075206342E+04  0.00000000000E+00 0. -1.
          1    1    1    2  502    0 -0.11508843273E+02  0.44651447614E+02 -0.46723576302E+02  0.65645242249E+02  0.00000000000E+00 0. -1.
<mgrwt>
<rscale>  0 0.54638685E+02</rscale>
<asrwt>0</asrwt>
<pdfrwt beam="1">  1        2 0.76480014E-02 0.46110793E+02</pdfrwt>
<pdfrwt beam="2">  1        1 0.36502986E+00 0.64743754E+02</pdfrwt>
<totfact> 0.25237042E+02</totfact>
</mgrwt>
</event>
<event>
 5    1  0.8459321E-003  0.1423769E+03  0.7546771E-02  0.1292657E+00
          2   -1    0    0  502    0  0.00000000000E+00  0.00000000000E+00  0.14246568418E+04  0.14246568418E+04  0.00000000000E+00 0. -1.
         -2   -1    0    0    0  501 -0.00000000000E+00 -0.00000000000E+00 -0.20362743155E+03  0.20362743155E+03  0.00000000000E+00 0.  1.
         25    1    1    2    0    0  0.10411805652E+03 -0.44085420281E+02 -0.34366285772E+02  0.17201783504E+03  0.12500000000E+03 0.  0.
          1    1    1    2  502    0  0.60186063526E+02 -0.16913901382E+02  0.12780218082E+04  0.12795499929E+04  0.00000000000E+00 0. -1.
         -1    1    1    2    0  501 -0.16430412004E+03  0.60999321663E+02 -0.22626112148E+02  0.17671644535E+03  0.00000000000E+00 0.  1.
<mgrwt>
<rscale>  0 0.94345405E+02</rscale>
<asrwt>0</asrwt>
<pdfrwt beam="1">  1        2 0.21917797E+00 0.62517536E+02</pdfrwt>
<pdfrwt beam="2">  1       -2 0.31327298E-01 0.14237694E+03</pdfrwt>
<totfact> 0.15830666E+02</totfact>
</mgrwt>
</event>
<event>
 5    1  0.8459321E-003  0.1084341E+03  0.7546771E-02  0.1426383E+00
          2   -1    0    0  502    0  0.00000000000E+00  0.00000000000E+00  0.16236433272E+04  0.16236433272E+04  0.00000000000E+00 0. -1.
          1   -1    0    0  501    0 -0.00000000000E+00 -0.00000000000E+00 -0.89671352177E+03  0.89671352177E+03  0.00000000000E+00 0. -1.
         25    1    1    2    0    0  0.49602096971E+02  0.83106137251E+02  0.61720632478E+02  0.16970985400E+03  0.12500000000E+03 0.  0.
          2    1    1    2  501    0 -0.75733226578E+02 -0.78204433850E+02 -0.83908511721E+03  0.84611777490E+03  0.00000000000E+00 0. -1.
          1    1    1    2  502    0  0.26131129608E+02 -0.49017034013E+01  0.15042942902E+04  0.15045292201E+04  0.00000000000E+00 0. -1.
<mgrwt>
<rscale>  0 0.53692878E+02</rscale>
<asrwt>0</asrwt>
<pdfrwt beam="1">  1        2 0.24979128E+00 0.26586888E+02</pdfrwt>
<pdfrwt beam="2">  1        1 0.13795593E+00 0.10843409E+03</pdfrwt>
<totfact> 0.40267404E+01</totfact>
</mgrwt>
</event>
<event>
 5    1  0.8459321E-003  0.1659167E+03  0.7546771E-02  0.1204140E+00
          2   -1    0    0  502    0  0.00000000000E+00  0.00000000000E+00  0.22896358728E+04  0.22896358728E+04  0.00000000000E+00 0. -1.
          1   -1    0    0  501    0 -0.00000000000E+00 -0.00000000000E+00 -0.19138844893E+03  0.19138844893E+03  0.00000000000E+00 0. -1.
         25    1    1    2    0    0  0.17126353783E+03  0.67512282258E+02  0.79942945603E+02  0.23644234434E+03  0.12500000000E+03 0.  0.
          2    1    1    2  501    0 -0.99918397090E+02  0.83689645930E+02 -0.71120865073E+02  0.14847834981E+03  0.00000000000E+00 0. -1.
          1    1    1    2  502    0 -0.71345140740E+02 -0.15120192819E+03  0.20894253434E+04  0.20961036276E+04  0.00000000000E+00 0. -1.
<mgrwt>
<rscale>  0 0.14705449E+03</rscale>
<asrwt>0</asrwt>
<pdfrwt beam="1">  1        2 0.35225165E+00 0.16591667E+03</pdfrwt>
<pdfrwt beam="2">  1        1 0.29444378E-01 0.13033665E+03</pdfrwt>
<totfact> 0.11558207E+02</totfact>
</mgrwt>
</event>
<event>
 5    1  0.8459321E-003  0.1111567E+03  0.7546771E-02  0.1298422E+00
          2   -1    0    0  502    0  0.00000000000E+00  0.00000000000E+00  0.25061283821E+04  0.25061283821E+04  0.00000000000E+00 0. -1.
         -2   -1    0    0    0  501 -0.00000000000E+00 -0.00000000000E+00 -0.10931344413E+03  0.10931344413E+03  0.00000000000E+00 0.  1.
         25    1    1    2    0    0 -0.79019042578E+02  0.25724246393E+02  0.13599032731E+04  0.13681621462E+04  0.12500000000E+03 0.  0.
          1    1    1    2  502    0  0.11554963862E+03 -0.92259419508E+02  0.11228937985E+04  0.11325873044E+04  0.00000000000E+00 0. -1.
         -1    1    1    2    0  501 -0.36530596043E+02  0.66535173115E+02 -0.85982133677E+02  0.11469237560E+03  0.00000000000E+00 0.  1.
<mgrwt>
<rscale>  0 0.91854433E+02</rscale>
<asrwt>0</asrwt>
<pdfrwt beam="1">  1        2 0.38555817E+00 0.11115672E+03</pdfrwt>
<pdfrwt beam="2">  1       -2 0.16817455E-01 0.75903977E+02</pdfrwt>
<totfact> 0.12030906E+02</totfact>
</mgrwt>
</event>
<event>
 5    1  0.8459321E-003  0.5349882E+02  0.7546771E-02  0.1467895E+00
          2   -1    0    0  502    0  0.00000000000E+00  0.00000000000E+00  0.33874347739E+03  0.33874347739E+03  0.00000000000E+00 0. -1.
         -2   -1    0    0    0  501 -0.00000000000E+00 -0.00000000000E+00 -0.11581356426E+04  0.11581356426E+04  0.00000000000E+00 0.  1.
         25    1    1    2    0    0 -0.75298955432E+02 -0.47488787806E+02 -0.32398707789E+03  0.35849371584E+03  0.12500000000E+03 0.  0.
          1    1    1    2  502    0  0.37933718343E+02  0.11494874878E+02  0.31944028004E+03  0.32189003036E+03  0.00000000000E+00 0. -1.
         -1    1    1    2    0  501  0.37365237089E+02  0.35993912928E+02 -0.81484536737E+03  0.81649537380E+03  0.00000000000E+00 0.  1.
<mgrwt>
<rscale>  0 0.46049294E+02</rscale>
<asrwt>0</asrwt>
<pdfrwt beam="1">  1        2 0.52114382E-01 0.39637093E+02</pdfrwt>
<pdfrwt beam="2">  1       -2 0.17817471E+00 0.53498816E+02</pdfrwt>
<totfact> 0.21214773E+01</totfact>
</mgrwt>
</event>
<event>
 5    1  0.8459321E-003  0.9306451E+02  0.7546771E-02  0.1469517E+00
          2   -1    0    0  502    0  0.00000000000E+00  0.00000000000E+00  0.33161743198E+04  0.33161743198E+04  0.00000000000E+00 0. -1.
         -2   -1    0    0    0  501 -0.00000000000E+00 -0.00000000000E+00 -0.67694958096E+01  0.67694958096E+01  0.00000000000E+00 0.  1.
         25    1    1    2    0    0 -0.17159426854E+02  0.99783468815E+02  0.16227100557E+04  0.16306637027E+04  0.12500000000E+03 0.  0.
          1    1    1    2  502    0 -0.15720008220E+02 -0.16128378635E+02  0.92893265021E+03  0.92920563488E+03  0.00000000000E+00 0. -1.
         -1    1    1    2    0  501  0.32879435073E+02 -0.83655090180E+02  0.75776211812E+03  0.76307447804E+03  0.00000000000E+00 0.  1.
<mgrwt>
<rscale>  0 0.45782142E+02</rscale>
<asrwt>0</asrwt>
<pdfrwt beam="1">  1        2 0.51017937E+00 0.22522062E+02</pdfrwt>
<pdfrwt beam="2">  1       -2 0.10414635E-02 0.93064506E+02</pdfrwt>
<totfact> 0.36673626E+03</totfact>
</mgrwt>
</event>
<event>
 5    1  0.8459321E-003  0.7758224E+02  0.7546771E-02  0.1440150E+00
          2   -1    0    0  502    0  0.00000000000E+00  0.00000000000E+00  0.15489241445E+04  0.15489241445E+04  0.00000000000E+00 0. -1.
          1   -1    0    0  501    0 -0.00000000000E+00 -0.00000000000E+00 -0.89374488097E+02  0.89374488097E+02  0.00000000000E+00 0. -1.
         25    1    1    2    0    0  0.14657721510E+02  0.10288130341E+03  0.84141140333E+02  0.18304136933E+03  0.12500000000E+03 0.  0.
          2    1    1    2  501    0  0.12909820122E+02 -0.30905590992E+02 -0.31654434664E+02  0.46084945959E+02  0.00000000000E+00 0. -1.
          1    1    1    2  502    0 -0.27567541631E+02 -0.71975712417E+02  0.14070629507E+04  0.14091723173E+04  0.00000000000E+00 0. -1.
<mgrwt>
<rscale>  0 0.50975541E+02</rscale>
<asrwt>0</asrwt>
<pdfrwt beam="1">  1        2 0.23829600E+00 0.77582236E+02</pdfrwt>
<pdfrwt beam="2">  1        1 0.13749922E-01 0.33493567E+02</pdfrwt>
<totfact> 0.72604524E+02</totfact>
</mgrwt>
</event>
<event>
 5    1  0.8459321E-003  0.4553391E+02  0.7546771E-02  0.1486878E+00
          1   -1    0    0  501    0 -0.00000000000E+00  0.00000000000E+00  0.60248321686E+02  0.60248321686E+02  0.00000000000E+00 0. -1.
          2   -1    0    0  502    0  0.00000000000E+00 -0.00000000000E+00 -0.50636435528E+03  0.50636435528E+03  0.00000000000E+00 0. -1.
         25    1    1    2    0    0  0.27385532179E+02 -0.76522099841E+02 -0.13183522977E+03  0.19902544296E+03  0.12500000000E+03 0.  0.
          2    1    1    2  501    0 -0.17606221495E+01  0.40668447047E+02  0.86898943553E+01  0.41623750906E+02  0.00000000000E+00 0. -1.
          1    1    1    2  502    0 -0.25624910029E+02  0.35853652794E+02 -0.32297069817E+03  0.32596348310E+03  0.00000000000E+00 0. -1.
<mgrwt>
<rscale>  0 0.43052616E+02</rscale>
<asrwt>0</asrwt>
<pdfrwt beam="2">  1        2 0.77902206E-01 0.45533906E+02</pdfrwt>
<pdfrwt beam="1">  1        1 0.92689729E-02 0.40706540E+02</pdfrwt>
<totfact> 0.53330368E+03</totfact>
</mgrwt>
</event>
<event>
 5    1  0.8459321E-003  0.5537960E+02  0.7546771E-02  0.1441620E+00
          1   -1    0    0  502    0  0.00000000000E+00  0.00000000000E+00  0.81955343375E+03  0.81955343375E+03  0.00000000000E+00 0. -1.
         -1   -1    0    0    0  501 -0.00000000000E+00 -0.00000000000E+00 -0.33734418148E+02  0.33734418148E+02  0.00000000000E+00 0.  1.
         25    1    1    2    0    0  0.51667794402E+01  0.62601198064E+01  0.18457805343E+03  0.22306936705E+03  0.12500000000E+03 0.  0.
          2    1    1    2  502    0 -0.14641016481E+02  0.53409180800E+02  0.54458270061E+03  0.54739128396E+03  0.00000000000E+00 0. -1.
         -2    1    1    2    0  501  0.94742370407E+01 -0.59669300607E+02  0.56658261566E+02  0.82827200883E+02  0.00000000000E+00 0.  1.
<mgrwt>
<rscale>  0 0.50696687E+02</rscale>
<asrwt>0</asrwt>
<pdfrwt beam="1">  1        1 0.12608513E+00 0.55379599E+02</pdfrwt>
<pdfrwt beam="2">  1       -1 0.51899111E-02 0.46409763E+02</pdfrwt>
<totfact> 0.34007657E+03</totfact>
</mgrwt>
</event>
<event>
 5    1  0.8459321E-003  0.6311188E+02  0.7546771E-02  0.1466095E+00
          2   -1    0    0  502    0  0.00000000000E+00  0.00000000000E+00  0.20418424501E+04  0.20418424501E+04  0.00000000000E+00 0. -1.
          1   -1    0    0  501    0 -0.00000000000E+00 -0.00000000000E+00 -0.16471069699E+03  0.16471069699E+03  0.00000000000E+00 0. -1.
         25    1    1    2    0    0 -0.48017397833E+01  0.29719869152E+02  0.47221066663E+03  0.48940192174E+03  0.12500000000E+03 0.  0.
          2    1    1    2  501    0  0.10655628116E+01 -0.63551736352E+02 -0.14945150299E+03  0.16240600470E+03  0.00000000000E+00 0. -1.
          1    1    1    2  502    0  0.37361769717E+01  0.33831867200E+02  0.15543725895E+04  0.15547452207E+04  0.00000000000E+00 0. -1.
<mgrwt>
<rscale>  0 0.46348389E+02</rscale>
<asrwt>0</asrwt>
<pdfrwt beam="1">  1        2 0.31412959E+00 0.34037542E+02</pdfrwt>
<pdfrwt beam="2">  1        1 0.25340109E-01 0.63111878E+02</pdfrwt>
<totfact> 0.22106651E+02</totfact>
</mgrwt>
</event>
<event>
 5    1  0.8459321E-003  0.4404252E+02  0.7546771E-02  0.1548657E+00
         -1   -1    0    0    0  501 -0.00000000000E+00  0.00000000000E+00  0.33368973955E+02  0.33368973955E+02  0.00000000000E+00 0.  1.
          1   -1    0    0  502    0  0.00000000000E+00 -0.00000000000E+00 -0.41678919848E+03  0.41678919848E+03  0.00000000000E+00 0. -1.
         25    1    1    2    0    0 -0.14744485303E+02  0.37295252836E+02 -0.17054034894E+03  0.21521465179E+03  0.12500000000E+03 0.  0.
          2    1    1    2  502    0  0.26567522206E+02  0.81988290319E+01 -0.16686175033E+03  0.16916234143E+03  0.00000000000E+00 0. -1.
         -2    1    1    2    0  501 -0.11823036903E+02 -0.45494081868E+02 -0.46018125253E+02  0.65781179211E+02  0.00000000000E+00 0.  1.
<mgrwt>
<rscale>  0 0.34993594E+02</rscale>
<asrwt>0</asrwt>
<pdfrwt beam="2">  1        1 0.64121417E-01 0.27803849E+02</pdfrwt>
<pdfrwt beam="1">  1       -1 0.51336881E-02 0.44042522E+02</pdfrwt>
<totfact> 0.84255848E+03</totfact>
</mgrwt>
</event>
<event>
 5    1  0.8459321E-003  0.1376537E+03  0.7546771E-02  0.1275460E+00
          1   -1    0    0  501    0 -0.00000000000E+00  0.00000000000E+00  0.34580396110E+03  0.34580396110E+03  0.00000000000E+00 0. -1.
          2   -1    0    0  502    0  0.00000000000E+00 -0.00000000000E+00 -0.28593289821E+04  0.28593289821E+04  0.00000000000E+00 0. -1.
         25    1    1    2    0    0 -0.16710710358E+03 -0.70066583761E+02  0.10908487753E+03  0.24567991520E+03  0.12500000000E+03 0.  0.
          2    1    1    2  501    0  0.29736804057E+02  0.70026795393E+02  0.15804704857E+03  0.17540495760E+03  0.00000000000E+00 0. -1.
          1    1    1    2  502    0  0.13737029952E+03  0.39788367372E-01 -0.27806569471E+04  0.27840480704E+04  0.00000000000E+00 0. -1.
<mgrwt>
<rscale>  0 0.10233556E+03</rscale>
<asrwt>0</asrwt>
<pdfrwt beam="2">  1        2 0.43989676E+00 0.13765365E+03</pdfrwt>
<pdfrwt beam="1">  1        1 0.53200610E-01 0.76079101E+02</pdfrwt>
<totfact> 0.28052491E+01</totfact>
</mgrwt>
</event>
<event>
 5    1  0.8459321E-003  0.8147123E+02  0.7546771E-02  0.1417129E+00
          1   -1    0    0  502    0  0.00000000000E+00  0.00000000000E+00  0.13058560664E+03  0.13058560664E+03  0.00000000000E+00 0. -1.
         -1   -1    0    0    0  501 -0.00000000000E+00 -0.00000000000E+00 -0.31436640915E+03  0.31436640915E+03  0.00000000000E+00 0.  1.
         25    1    1    2    0    0 -0.77967942281E+02  0.78539249531E+02 -0.22422263547E+02  0.16844931476E+03  0.12500000000E+03 0.  0.
          2    1    1    2  502    0  0.57759415452E+02 -0.46370922708E+02  0.31097225922E+02  0.80333367950E+02  0.00000000000E+00 0. -1.
         -2    1    1    2    0  501  0.20208526829E+02 -0.32168326823E+02 -0.19245576488E+03  0.19616933309E+03  0.00000000000E+00 0.  1.
<mgrwt>
<rscale>  0 0.55633027E+02</rscale>
<asrwt>0</asrwt>
<pdfrwt beam="1">  1        1 0.20090093E-01 0.81471226E+02</pdfrwt>
<pdfrwt beam="2">  1       -1 0.48364063E-01 0.37989285E+02</pdfrwt>
<totfact> 0.10791505E+03</totfact>
</mgrwt>
</event>
<event>
 5    1  0.8459321E-003  0.1690810E+03  0.7546771E-02  0.1263091E+00
          2   -1    0    0  502    0  0.00000000000E+00  0.00000000000E+00  0.61160138389E+03  0.61160138389E+03  0.00000000000E+00 0. -1.
         -2   -1    0    0    0  501 -0.00000000000E+00 -0.00000000000E+00 -0.10978235198E+04  0.10978235198E+04  0.00000000000E+00 0.  1.
         25    1    1    2    0    0  0.13282582569E+03 -0.14532622071E+03  0.27607990814E+03  0.36139663263E+03  0.12500000000E+03 0.  0.
          1    1    1    2  502    0  0.17007327301E+02  0.67714215227E+02  0.28182996582E+03  0.29034908948E+03  0.00000000000E+00 0. -1.
         -1    1    1    2    0  501 -0.14983315299E+03  0.77612005481E+02 -0.10441320099E+04  0.10576791816E+04  0.00000000000E+00 0.  1.
<mgrwt>
<rscale>  0 0.10864984E+03</rscale>
<asrwt>0</asrwt>
<pdfrwt beam="1">  1        2 0.94092521E-01 0.69817363E+02</pdfrwt>
<pdfrwt beam="2">  1       -2 0.16889593E+00 0.16908097E+03</pdfrwt>
<totfact> 0.12286060E+01</totfact>
</mgrwt>
</event>
<event>
 5    1  0.8459321E-003  0.1523663E+03  0.7546771E-02  0.1283096E+00
          2   -1    0    0  502    0  0.00000000000E+00  0.00000000000E+00  0.13835677908E+04  0.13835677908E+04  0.00000000000E+00 0. -1.
         -2   -1    0    0    0  501 -0.00000000000E+00 -0.00000000000E+00 -0.25479460421E+03  0.25479460421E+03  0.00000000000E+00 0.  1.
         25    1    1    2    0    0  0.18091479081E+03 -0.10199451531E+03  0.99769696293E+03  0.10267216139E+04  0.12500000000E+03 0.  0.
          3    1    1    2  502    0 -0.63547567231E+02  0.68004266892E+01  0.34436340437E+03  0.35024376279E+03  0.00000000000E+00 0. -1.
         -1    1    1    2    0  501 -0.11736722358E+03  0.95194088616E+02 -0.21328718074E+03  0.26139701825E+03  0.00000000000E+00 0.  1.
<mgrwt>
<rscale>  0 0.98680258E+02</rscale>
<asrwt>0</asrwt>
<pdfrwt beam="1">  1        2 0.21285658E+00 0.63910399E+02</pdfrwt>
<pdfrwt beam="2">  1       -2 0.39199171E-01 0.15236634E+03</pdfrwt>
<totfact> 0.10961178E+02</totfact>
</mgrwt>
</event>
<event>
 5    1  0.8459321E-003  0.2020474E+03  0.7546771E-02  0.1308824E+00
          1   -1    0    0  501    0 -0.00000000000E+00  0.00000000000E+00  0.10734495949E+04  0.10734495949E+04  0.00000000000E+00 0. -1.
          2   -1    0    0  502    0  0.00000000000E+00 -0.00000000000E+00 -0.19174849165E+03  0.19174849165E+03  0.00000000000E+00 0. -1.
         25    1    1    2    0    0 -0.20311574781E+03  0.95398446567E+01  0.24292925359E+03  0.34056811051E+03  0.12500000000E+03 0.  0.
          2    1    1    2  501    0  0.20046281509E+03  0.28328819031E+02  0.76576951702E+03  0.79208005619E+03  0.00000000000E+00 0. -1.
          1    1    1    2  502    0  0.26529327275E+01 -0.37868663687E+02 -0.12699766736E+03  0.13254991986E+03  0.00000000000E+00 0. -1.
<mgrwt>
<rscale>  0 0.87578629E+02</rscale>
<asrwt>0</asrwt>
<pdfrwt beam="2">  1        2 0.29499769E-01 0.37961477E+02</pdfrwt>
<pdfrwt beam="1">  1        1 0.16514609E+00 0.20204736E+03</pdfrwt>
<totfact> 0.33468637E+02</totfact>
</mgrwt>
</event>
<event>
 5    1  0.8459321E-003  0.7309945E+02  0.7546771E-02  0.1353475E+00
          2   -1    0    0  502    0  0.00000000000E+00  0.00000000000E+00  0.13042393062E+04  0.13042393062E+04  0.00000000000E+00 0. -1.
          1   -1    0    0  501    0 -0.00000000000E+00 -0.00000000000E+00 -0.33245919519E+02  0.33245919519E+02  0.00000000000E+00 0. -1.
         25    1    1    2    0    0  0.13793019484E+02  0.39535310516E+01  0.17121434170E+03  0.21247406571E+03  0.12500000000E+03 0.  0.
          2    1    1    2  501    0  0.25408998300E+02 -0.68541320458E+02  0.10832323115E+03  0.13068072624E+03  0.00000000000E+00 0. -1.
          1    1    1    2  502    0 -0.39202017784E+02  0.64587789406E+02  0.99145581385E+03  0.99433043379E+03  0.00000000000E+00 0. -1.
<mgrwt>
<rscale>  0 0.71983452E+02</rscale>
<asrwt>0</asrwt>
<pdfrwt beam="1">  1        2 0.20065216E+00 0.70884490E+02</pdfrwt>
<pdfrwt beam="2">  1        1 0.51147579E-02 0.73099451E+02</pdfrwt>
<totfact> 0.37416206E+03</totfact>
</mgrwt>
</event>
<event>
 5    1  0.8459321E-003  0.8629199E+02  0.7546771E-02  0.1371906E+00
          1   -1    0    0  501    0 -0.00000000000E+00  0.00000000000E+00  0.74571314003E+03  0.74571314003E+03  0.00000000000E+00 0. -1.
          2   -1    0    0  502    0  0.00000000000E+00 -0.00000000000E+00 -0.32719423274E+03  0.32719423274E+03  0.00000000000E+00 0. -1.
         25    1    1    2    0    0 -0.10798459604E+03 -0.51792818959E+01  0.15440755684E+03  0.22617292400E+03  0.12500000000E+03 0.  0.
          2    1    1    2  501    0  0.30161346722E+02  0.41698799620E+02  0.54784847889E+03  0.55026034979E+03  0.00000000000E+00 0. -1.
          1    1    1    2  502    0  0.77823249313E+02 -0.36519517724E+02 -0.28373712845E+03  0.29647409898E+03  0.00000000000E+00 0. -1.
<mgrwt>
<rscale>  0 0.66640016E+02</rscale>
<asrwt>0</asrwt>
<pdfrwt beam="2">  1        2 0.50337575E-01 0.86291985E+02</pdfrwt>
<pdfrwt beam="1">  1        1 0.11472510E+00 0.51463548E+02</pdfrwt>
<totfact> 0.37476033E+02</totfact>
</mgrwt>
</event>
<event>
 5    1  0.8459321E-003  0.2012318E+03  0.7546771E-02  0.1233569E+00
          2   -1    0    0  502    0  0.00000000000E+00  0.00000000000E+00  0.33327815585E+03  0.33327815585E+03  0.00000000000E+00 0. -1.
          1   -1    0    0  501    0 -0.00000000000E+00 -0.00000000000E+00 -0.51267792991E+03  0.51267792991E+03  0.00000000000E+00 0. -1.
         25    1    1    2    0    0 -0.19130989530E+02  0.22345953781E+03 -0.16110440673E+03  0.30311679212E+03  0.12500000000E+03 0.  0.
          2    1    1    2  501    0 -0.65977160429E+02 -0.43178458863E+02 -0.23530012939E+03  0.24816026253E+03  0.00000000000E+00 0. -1.
          1    1    1    2  502    0  0.85108149959E+02 -0.18028107894E+03  0.21700476207E+03  0.29467903111E+03  0.00000000000E+00 0. -1.
<mgrwt>
<rscale>  0 0.12596499E+03</rscale>
<asrwt>0</asrwt>
<pdfrwt beam="1">  1        2 0.51273563E-01 0.20123177E+03</pdfrwt>
<pdfrwt beam="2">  1        1 0.78873527E-01 0.78850270E+02</pdfrwt>
<totfact> 0.59794126E+02</totfact>
</mgrwt>
</event>
<event>
 5    1  0.8459321E-003  0.4884886E+02  0.7546771E-02  0.1569004E+00
          2   -1    0    0  502    0  0.00000000000E+00  0.00000000000E+00  0.32131135321E+03  0.32131135321E+03  0.00000000000E+00 0. -1.
         -2   -1    0    0    0  501 -0.00000000000E+00 -0.00000000000E+00 -0.43456996249E+02  0.43456996249E+02  0.00000000000E+00 0.  1.
         25    1    1    2    0    0 -0.12138229740E+02 -0.33499578144E+02  0.19202150712E+03  0.23187672922E+03  0.12500000000E+03 0.  0.
          1    1    1    2  502    0  0.37253771905E+01  0.53860556624E+02  0.94808249745E+02  0.10910289737E+03  0.00000000000E+00 0. -1.
         -1    1    1    2    0  501  0.84128525493E+01 -0.20360978480E+02 -0.89753998968E+01  0.23788722874E+02  0.00000000000E+00 0.  1.
<mgrwt>
<rscale>  0 0.32804996E+02</rscale>
<asrwt>0</asrwt>
<pdfrwt beam="1">  1        2 0.49432514E-01 0.48848863E+02</pdfrwt>
<pdfrwt beam="2">  1       -2 0.66856919E-02 0.22030559E+02</pdfrwt>
<totfact> 0.99436507E+03</totfact>
</mgrwt>
</event>
<event>
 5    1  0.8459321E-003  0.7928125E+02  0.7546771E-02  0.1394040E+00
          1   -1    0    0  501    0 -0.00000000000E+00  0.00000000000E+00  0.50373947158E+02  0.50373947158E+02  0.00000000000E+00 0. -1.
          2   -1    0    0  502    0  0.00000000000E+00 -0.00000000000E+00 -0.17085033785E+04  0.17085033785E+04  0.00000000000E+00 0. -1.
         25    1    1    2    0    0 -0.50573949416E+02 -0.44702947252E+02 -0.39327574894E+03  0.41814697482E+03  0.12500000000E+03 0.  0.
          2    1    1    2  501    0  0.81269874633E+02  0.93753155891E+01 -0.71110838512E+01  0.82117334216E+02  0.00000000000E+00 0. -1.
          1    1    1    2  502    0 -0.30695925217E+02  0.35327631663E+02 -0.12577425986E+04  0.12586130166E+04  0.00000000000E+00 0. -1.
<mgrwt>
<rscale>  0 0.60913034E+02</rscale>
<asrwt>0</asrwt>
<pdfrwt beam="2">  1        2 0.26284662E+00 0.46800442E+02</pdfrwt>
<pdfrwt beam="1">  1        1 0.77498395E-02 0.79281254E+02</pdfrwt>
<totfact> 0.14099408E+03</totfact>
</mgrwt>
</event>
<event>
 5    1  0.8459321E-003  0.1647537E+03  0.7546771E-02  0.1267744E+00
         -2   -1    0    0    0  501 -0.00000000000E+00  0.00000000000E+00  0.16778056796E+03  0.16778056796E+03  0.00000000000E+00 0.  1.
          2   -1    0    0  502    0  0.00000000000E+00 -0.00000000000E+00 -0.25889732360E+04  0.25889732360E+04  0.00000000000E+00 0. -1.
         25    1    1    2    0    0  0.14486884335E+03  0.13234086869E+03 -0.11562809756E+04  0.11794540185E+04  0.12500000000E+03 0.  0.
          1    1    1    2  502    0 -0.14185983759E+03 -0.63930898353E+02 -0.14091066100E+04  0.14176716162E+04  0.00000000000E+00 0. -1.
         -1    1    1    2    0  501 -0.30090057528E+01 -0.68409970332E+02  0.14419491752E+03  0.15962816918E+03  0.00000000000E+00 0.  1.
<mgrwt>
<rscale>  0 0.10621530E+03</rscale>
<asrwt>0</asrwt>
<pdfrwt beam="2">  1        2 0.39830357E+00 0.16475366E+03</pdfrwt>
<pdfrwt beam="1">  1       -2 0.25812395E-01 0.68476114E+02</pdfrwt>
<totfact> 0.50042042E+01</totfact>
</mgrwt>
</event>
<event>
 5    1  0.8459321E-003  0.7966225E+02  0.7546771E-02  0.1451177E+00
         -1   -1    0    0    0  501 -0.00000000000E+00  0.00000000000E+00  0.57671109313E+02  0.57671109313E+02  0.00000000000E+00 0.  1.
          1   -1    0    0  502    0  0.00000000000E+00 -0.00000000000E+00 -0.42660237229E+04  0.42660237229E+04  0.00000000000E+00 0. -1.
         25    1    1    2    0    0 -0.21338585695E+02  0.10684088004E+03 -0.32692245755E+03  0.36657005079E+03  0.12500000000E+03 0.  0.
          2    1    1    2  502    0  0.18229726832E+02 -0.76943375449E+02 -0.39128461256E+04  0.39136450284E+04  0.00000000000E+00 0. -1.
         -2    1    1    2    0  501  0.31088588628E+01 -0.29897504589E+02  0.31415969510E+02  0.43479753039E+02  0.00000000000E+00 0.  1.
<mgrwt>
<rscale>  0 0.48934078E+02</rscale>
<asrwt>0</asrwt>
<pdfrwt beam="2">  1        1 0.65631150E+00 0.79662245E+02</pdfrwt>
<pdfrwt beam="1">  1       -1 0.88724762E-02 0.30058706E+02</pdfrwt>
<totfact> 0.60381468E+00</totfact>
</mgrwt>
</event>
<event>
 5    1  0.8459321E-003  0.7163841E+02  0.7546771E-02  0.1521854E+00
         -1   -1    0    0    0  501 -0.00000000000E+00  0.00000000000E+00  0.10016428564E+04  0.10016428564E+04  0.00000000000E+00 0.  1.
          1   -1    0    0  502    0  0.00000000000E+00 -0.00000000000E+00 -0.32081342045E+03  0.32081342045E+03  0.00000000000E+00 0. -1.
         25    1    1    2    0    0  0.86655669675E+02 -0.23305531627E+02 -0.18477526821E+03  0.24045634247E+03  0.12500000000E+03 0.  0.
          2    1    1    2  502    0 -0.15912474872E+02  0.12724673485E+02 -0.10591177329E+03  0.10785373379E+03  0.00000000000E+00 0. -1.
         -2    1    1    2    0  501 -0.70743194802E+02  0.10580858141E+02  0.97151647741E+03  0.97414620055E+03  0.00000000000E+00 0.  1.
<mgrwt>
<rscale>  0 0.38204761E+02</rscale>
<asrwt>0</asrwt>
<pdfrwt beam="2">  1        1 0.49355911E-01 0.20374596E+02</pdfrwt>
<pdfrwt beam="1">  1       -1 0.15409890E+00 0.71638415E+02</pdfrwt>
<totfact> 0.31345579E+01</totfact>
</mgrwt>
</event>
<event>
 5    1  0.8459321E-003  0.8835538E+02  0.7546771E-02  0.1444342E+00
          1   -1    0    0  501    0 -0.00000000000E+00  0.00000000000E+00  0.24071817919E+02  0.24071817919E+02  0.00000000000E+00 0. -1.
          2   -1    0    0  502    0  0.00000000000E+00 -0.00000000000E+00 -0.12587624490E+04  0.12587624490E+04  0.00000000000E+00 0. -1.
         25    1    1    2    0    0 -0.63366308055E+02  0.45504425422E+02 -0.67399488223E+03  0.68991306916E+03  0.12500000000E+03 0.  0.
          2    1    1    2  501    0  0.41376029353E+01  0.28203672390E+02 -0.46370657034E+01  0.28880257489E+02  0.00000000000E+00 0. -1.
          1    1    1    2  502    0  0.59228705120E+02 -0.73708097812E+02 -0.55605868311E+03  0.56404094023E+03  0.00000000000E+00 0. -1.
<mgrwt>
<rscale>  0 0.50185849E+02</rscale>
<asrwt>0</asrwt>
<pdfrwt beam="2">  1        2 0.19365575E+00 0.88355379E+02</pdfrwt>
<pdfrwt beam="1">  1        1 0.37033568E-02 0.28505559E+02</pdfrwt>
<totfact> 0.53392868E+03</totfact>
</mgrwt>
</event>
<event>
 5    1  0.8459321E-003  0.7674595E+02  0.7546771E-02  0.1476881E+00
          1   -1    0    0  501    0 -0.00000000000E+00  0.00000000000E+00  0.31877473852E+03  0.31877473852E+03  0.00000000000E+00 0. -1.
          2   -1    0    0  502    0  0.00000000000E+00 -0.00000000000E+00 -0.25545877075E+03  0.25545877075E+03  0.00000000000E+00 0. -1.
         25    1    1    2    0    0  0.34970806491E+02 -0.38371248608E+02 -0.86659890885E+02  0.16071791037E+03  0.12500000000E+03 0.  0.
          2    1    1    2  501    0 -0.52515752000E+02  0.57442248744E+02  0.27501677730E+03  0.28581767606E+03  0.00000000000E+00 0. -1.
          1    1    1    2  502    0  0.17544945509E+02 -0.19071000136E+02 -0.12504091865E+03  0.12769792284E+03  0.00000000000E+00 0. -1.
<mgrwt>
<rscale>  0 0.44595782E+02</rscale>
<asrwt>0</asrwt>
<pdfrwt beam="2">  1        2 0.39301349E-01 0.25913860E+02</pdfrwt>
<pdfrwt beam="1">  1        1 0.49042267E-01 0.76745946E+02</pdfrwt>
<totfact> 0.13900508E+03</totfact>
</mgrwt>
</event>
<event>
 5    1  0.8459321E-003  0.2062925E+03  0.7546771E-02  0.1276397E+00
          1   -1    0    0  501    0 -0.00000000000E+00  0.00000000000E+00  0.58053982374E+03  0.58053982374E+03  0.00000000000E+00 0. -1.
          2   -1    0    0  502    0  0.00000000000E+00 -0.00000000000E+00 -0.10136513926E+04  0.10136513926E+04  0.00000000000E+00 0. -1.
         25    1    1    2    0    0 -0.37674089302E+02  0.20791354243E+03 -0.16903009219E+03  0.29806635201E+03  0.12500000000E+03 0.  0.
          2    1    1    2  501    0 -0.46371467450E+02 -0.19518885099E+02  0.50110193110E+03  0.50362133118E+03  0.00000000000E+00 0. -1.
          1    1    1    2  502    0  0.84045556753E+02 -0.18839465733E+03 -0.76518340773E+03  0.79250353311E+03  0.00000000000E+00 0. -1.
<mgrwt>
<rscale>  0 0.10187734E+03</rscale>
<asrwt>0</asrwt>
<pdfrwt beam="2">  1        2 0.15594637E+00 0.20629247E+03</pdfrwt>
<pdfrwt beam="1">  1        1 0.89313819E-01 0.50312025E+02</pdfrwt>
<totfact> 0.13900191E+02</totfact>
</mgrwt>
</event>
<event>
 5    1  0.8459321E-003  0.5124347E+02  0.7546771E-02  0.1451382E+00
          1   -1    0    0  502    0  0.00000000000E+00  0.00000000000E+00  0.85226829107E+03  0.85226829107E+03  0.00000000000E+00 0. -1.
         -1   -1    0    0    0  501 -0.00000000000E+00 -0.00000000000E+00 -0.18174425214E+03  0.18174425214E+03  0.00000000000E+00 0.  1.
         25    1    1    2    0    0  0.43090921177E+02  0.31590598309E+02 -0.83699237783E+02  0.15964133486E+03  0.12500000000E+03 0.  0.
          2    1    1    2  502    0 -0.82931106441E+00 -0.51363683751E+02  0.80429278917E+03  0.80593163884E+03  0.00000000000E+00 0. -1.
         -2    1    1    2    0  501 -0.42261610112E+02  0.19773085442E+02 -0.50069512466E+02  0.68439569518E+02  0.00000000000E+00 0.  1.
<mgrwt>
<rscale>  0 0.48897293E+02</rscale>
<asrwt>0</asrwt>
<pdfrwt beam="1">  1        1 0.13111820E+00 0.51243474E+02</pdfrwt>
<pdfrwt beam="2">  1       -1 0.27960655E-01 0.46658532E+02</pdfrwt>
<totfact> 0.25549042E+02</totfact>
</mgrwt>
</event>
<event>
 5    1  0.8459321E-003  0.7137223E+02  0.7546771E-02  0.1391666E+00
         -2   -1    0    0    0  501 -0.00000000000E+00  0.00000000000E+00  0.50939703115E+03  0.50939703115E+03  0.00000000000E+00 0.  1.
          2   -1    0    0  502    0  0.00000000000E+00 -0.00000000000E+00 -0.31251105826E+04  0.31251105826E+04  0.00000000000E+00 0. -1.
         25    1    1    2    0    0  0.30873159288E+02 -0.11119596240E+03 -0.54019192757E+03  0.56634796074E+03  0.12500000000E+03 0.  0.
          1    1    1    2  502    0 -0.34631465748E+02  0.40098836683E+02 -0.25690128172E+04  0.25695591276E+04  0.00000000000E+00 0. -1.
         -1    1    1    2    0  501  0.37583064600E+01  0.71097125720E+02  0.49349119329E+03  0.49860052547E+03  0.00000000000E+00 0.  1.
<mgrwt>
<rscale>  0 0.61494335E+02</rscale>
<asrwt>0</asrwt>
<pdfrwt beam="2">  1        2 0.48078624E+00 0.52983536E+02</pdfrwt>
<pdfrwt beam="1">  1       -2 0.78368775E-01 0.71372233E+02</pdfrwt>
<totfact> 0.35685578E+00</totfact>
</mgrwt>
</event>
<event>
 5    1  0.8459321E-003  0.5882167E+02  0.7546771E-02  0.1530935E+00
          2   -1    0    0  502    0  0.00000000000E+00  0.00000000000E+00  0.17485559248E+04  0.17485559248E+04  0.00000000000E+00 0. -1.
          1   -1    0    0  501    0 -0.00000000000E+00 -0.00000000000E+00 -0.12757651637E+03  0.12757651637E+03  0.00000000000E+00 0. -1.
         25    1    1    2    0    0 -0.72118420512E+01 -0.79555599116E+02  0.45344103236E+03  0.47709000602E+03  0.12500000000E+03 0.  0.
          2    1    1    2  501    0 -0.27742011290E+01  0.58432785110E+02 -0.10824724410E+03  0.12304288855E+03  0.00000000000E+00 0. -1.
          1    1    1    2  502    0  0.99860431802E+01  0.21122814006E+02  0.12757856201E+04  0.12759995466E+04  0.00000000000E+00 0. -1.
<mgrwt>
<rscale>  0 0.37071984E+02</rscale>
<asrwt>0</asrwt>
<pdfrwt beam="1">  1        2 0.26900859E+00 0.23364382E+02</pdfrwt>
<pdfrwt beam="2">  1        1 0.19627158E-01 0.58821671E+02</pdfrwt>
<totfact> 0.43415155E+02</totfact>
</mgrwt>
</event>
<event>
 5    1  0.8459321E-003  0.8395489E+02  0.7546771E-02  0.1331800E+00
          2   -1    0    0  502    0  0.00000000000E+00  0.00000000000E+00  0.44912731963E+04  0.44912731963E+04  0.00000000000E+00 0. -1.
          1   -1    0    0  501    0 -0.00000000000E+00 -0.00000000000E+00 -0.20069217519E+04  0.20069217519E+04  0.00000000000E+00 0. -1.
         25    1    1    2    0    0  0.10944106087E+02 -0.47523287004E+02  0.50551803078E+01  0.13427133392E+03  0.12500000000E+03 0.  0.
          2    1    1    2  501    0 -0.73916541613E+02 -0.85678857437E+01 -0.19411986718E+04  0.19426243453E+04  0.00000000000E+00 0. -1.
          1    1    1    2  502    0  0.62972435526E+02  0.56091172748E+02  0.44204949358E+04  0.44212992689E+04  0.00000000000E+00 0. -1.
<mgrwt>
<rscale>  0 0.79039262E+02</rscale>
<asrwt>0</asrwt>
<pdfrwt beam="1">  1        2 0.69096511E+00 0.83954889E+02</pdfrwt>
<pdfrwt beam="2">  1        1 0.30875719E+00 0.74411449E+02</pdfrwt>
<totfact> 0.12279159E-01</totfact>
</mgrwt>
</event>
<event>
 5    1  0.9061473E-003  0.1137234E+03  0.7546771E-02  0.1295614E+00
          1   -1    0    0  502    0  0.00000000000E+00  0.00000000000E+00  0.83128890535E+03  0.83128890535E+03  0.00000000000E+00 0. -1.
         -1   -1    0    0    0  501 -0.00000000000E+00 -0.00000000000E+00 -0.75679968587E+02  0.75679968587E+02  0.00000000000E+00 0.  1.
         25    1    1    2    0    0  0.60439943835E+01  0.16509107852E+03  0.66676773795E+03  0.69820900198E+03  0.12500000000E+03 0.  0.
          2    1    1    2  502    0 -0.43612101632E+02 -0.62419137976E+02  0.56273316081E+02  0.94682893371E+02  0.00000000000E+00 0. -1.
         -2    1    1    2    0  501  0.37568107248E+02 -0.10267194054E+03  0.32567882729E+02  0.11407697858E+03  0.00000000000E+00 0.  1.
<mgrwt>
<rscale>  0 0.93056659E+02</rscale>
<asrwt>0</asrwt>
<pdfrwt beam="1">  1        1 0.12789059E+00 0.76145677E+02</pdfrwt>
<pdfrwt beam="2">  1       -1 0.11643073E-01 0.11372335E+03</pdfrwt>
<totfact> 0.10658586E+03</totfact>
</mgrwt>
</event>
<event>
 5    1  0.8459321E-003  0.5923133E+02  0.7546771E-02  0.1443485E+00
          1   -1    0    0  501    0 -0.00000000000E+00  0.00000000000E+00  0.28572733033E+03  0.28572733033E+03  0.00000000000E+00 0. -1.
          2   -1    0    0  502    0  0.00000000000E+00 -0.00000000000E+00 -0.85502741458E+03  0.85502741458E+03  0.00000000000E+00 0. -1.
         25    1    1    2    0    0 -0.35598847069E+02  0.43362363337E+02  0.61487660276E+02  0.15017757766E+03  0.12500000000E+03 0.  0.
          2    1    1    2  501    0  0.39723764145E+02  0.15914668025E+02  0.17624198806E+03  0.18136287506E+03  0.00000000000E+00 0. -1.
          1    1    1    2  502    0 -0.41249170754E+01 -0.59277031362E+02 -0.80702973259E+03  0.80921429218E+03  0.00000000000E+00 0. -1.
<mgrwt>
<rscale>  0 0.50345761E+02</rscale>
<asrwt>0</asrwt>
<pdfrwt beam="2">  1        2 0.13154268E+00 0.59231334E+02</pdfrwt>
<pdfrwt beam="1">  1        1 0.43958051E-01 0.42793155E+02</pdfrwt>
<totfact> 0.43848922E+02</totfact>
</mgrwt>
</event>
<event>
 5    1  0.8459321E-003  0.1373295E+03  0.7546771E-02  0.1260999E+00
          1   -1    0    0  501    0 -0.00000000000E+00  0.00000000000E+00  0.16181904200E+04  0.16181904200E+04  0.00000000000E+00 0. -1.
          2   -1    0    0  502    0  0.00000000000E+00 -0.00000000000E+00 -0.30995241768E+03  0.30995241768E+03  0.00000000000E+00 0. -1.
         25    1    1    2    0    0 -0.44822247064E+02  0.76854714741E+02 -0.43661375738E+02  0.15952114826E+03  0.12500000000E+03 0.  0.
          2    1    1    2  501    0  0.10010150926E+02  0.87165957625E+02  0.15250611738E+04  0.15275829572E+04  0.00000000000E+00 0. -1.
          1    1    1    2  502    0  0.34812096138E+02 -0.16402067237E+03 -0.17316179566E+03  0.24103873232E+03  0.00000000000E+00 0. -1.
<mgrwt>
<rscale>  0 0.10976853E+03</rscale>
<asrwt>0</asrwt>
<pdfrwt beam="2">  1        2 0.47684988E-01 0.13732945E+03</pdfrwt>
<pdfrwt beam="1">  1        1 0.24895237E+00 0.87738858E+02</pdfrwt>
<totfact> 0.96280684E+01</totfact>
</mgrwt>
</event>
<event>
 5    1  0.8459321E-003  0.1286296E+03  0.7546771E-02  0.1260414E+00
         -2   -1    0    0    0  501 -0.00000000000E+00  0.00000000000E+00  0.81958637439E+03  0.81958637439E+03  0.00000000000E+00 0.  1.
          2   -1    0    0  502    0  0.00000000000E+00 -0.00000000000E+00 -0.99977304789E+03  0.99977304789E+03  0.00000000000E+00 0. -1.
         25    1    1    2    0    0 -0.94430326913E+02 -0.19887054114E+03  0.26481789353E+03  0.36636060856E+03  0.12500000000E+03 0.  0.
          1    1    1    2  502    0  0.43041720896E+02  0.11990692793E+03 -0.94026530259E+03  0.94885673332E+03  0.00000000000E+00 0. -1.
         -1    1    1    2    0  501  0.51388606016E+02  0.78963613204E+02  0.49526073556E+03  0.50414208040E+03  0.00000000000E+00 0.  1.
<mgrwt>
<rscale>  0 0.11008426E+03</rscale>
<asrwt>0</asrwt>
<pdfrwt beam="2">  1        2 0.15381124E+00 0.12862957E+03</pdfrwt>
<pdfrwt beam="1">  1       -2 0.12609021E+00 0.94212744E+02</pdfrwt>
<totfact> 0.14200895E+01</totfact>
</mgrwt>
</event>
<event>
 5    1  0.8459321E-003  0.4801925E+02  0.7546771E-02  0.1481691E+00
          1   -1    0    0  501    0 -0.00000000000E+00  0.00000000000E+00  0.35862515490E+03  0.35862515490E+03  0.00000000000E+00 0. -1.
          2   -1    0    0  502    0  0.00000000000E+00 -0.00000000000E+00 -0.13016656164E+03  0.13016656164E+03  0.00000000000E+00 0. -1.
         25    1    1    2    0    0  0.41832784011E+02 -0.47622953980E+02  0.14923031678E+03  0.20472570676E+03  0.12500000000E+03 0.  0.
          2    1    1    2  501    0 -0.40030199687E+02 -0.30833127813E+00  0.17362607392E+03  0.17818115921E+03  0.00000000000E+00 0. -1.
          1    1    1    2  502    0 -0.18025843240E+01  0.47931285258E+02 -0.94397797441E+02  0.10588485056E+03  0.00000000000E+00 0. -1.
<mgrwt>
<rscale>  0 0.43843780E+02</rscale>
<asrwt>0</asrwt>
<pdfrwt beam="2">  1        2 0.20025625E-01 0.48019246E+02</pdfrwt>
<pdfrwt beam="1">  1        1 0.55173100E-01 0.40031387E+02</pdfrwt>
<totfact> 0.24925493E+03</totfact>
</mgrwt>
</event>
<event>
 5    1  0.8459321E-003  0.5244133E+02  0.7546771E-02  0.1503565E+00
          2   -1    0    0  502    0  0.00000000000E+00  0.00000000000E+00  0.20805772433E+04  0.20805772433E+04  0.00000000000E+00 0. -1.
          1   -1    0    0  501    0 -0.00000000000E+00 -0.00000000000E+00 -0.23988886734E+02  0.23988886734E+02  0.00000000000E+00 0. -1.
         25    1    1    2    0    0 -0.32707726899E+02 -0.28806817273E+02  0.55973182868E+03  0.57517332010E+03  0.12500000000E+03 0.  0.
          2    1    1    2  501    0  0.53510519526E+02  0.51637804705E+01  0.28779149677E+02  0.60977699078E+02  0.00000000000E+00 0. -1.
          1    1    1    2  502    0 -0.20802792627E+02  0.23643036803E+02  0.14680773782E+04  0.14684151109E+04  0.00000000000E+00 0. -1.
<mgrwt>
<rscale>  0 0.40638467E+02</rscale>
<asrwt>0</asrwt>
<pdfrwt beam="1">  1        2 0.32008866E+00 0.31492052E+02</pdfrwt>
<pdfrwt beam="2">  1        1 0.36905996E-02 0.52441327E+02</pdfrwt>
<totfact> 0.25229669E+03</totfact>
</mgrwt>
</event>
<event>
 5    1  0.8459321E-003  0.9498590E+02  0.7546771E-02  0.1390852E+00
          1   -1    0    0  501    0 -0.00000000000E+00  0.00000000000E+00  0.67733527390E+03  0.67733527390E+03  0.00000000000E+00 0. -1.
          2   -1    0    0  502    0  0.00000000000E+00 -0.00000000000E+00 -0.22002938768E+03  0.22002938768E+03  0.00000000000E+00 0. -1.
         25    1    1    2    0    0 -0.25394449089E+02  0.12194685682E+03 -0.10729238338E+03  0.20652498509E+03  0.12500000000E+03 0.  0.
          2    1    1    2  501    0 -0.36337214242E+01 -0.94321576650E+02  0.61738877106E+03  0.62456277378E+03  0.00000000000E+00 0. -1.
          1    1    1    2  502    0  0.29028170513E+02 -0.27625280175E+02 -0.52790501470E+02  0.66276902715E+02  0.00000000000E+00 0. -1.
<mgrwt>
<rscale>  0 0.61695262E+02</rscale>
<asrwt>0</asrwt>
<pdfrwt beam="2">  1        2 0.33850675E-01 0.40072319E+02</pdfrwt>
<pdfrwt beam="1">  1        1 0.10420543E+00 0.94985901E+02</pdfrwt>
<totfact> 0.62168984E+02</totfact>
</mgrwt>
</event>
<event>
 5    1  0.8459321E-003  0.7977168E+02  0.7546771E-02  0.1375959E+00
          2   -1    0    0  502    0  0.00000000000E+00  0.00000000000E+00  0.23400442477E+03  0.23400442477E+03  0.00000000000E+00 0. -1.
          1   -1    0    0  501    0 -0.00000000000E+00 -0.00000000000E+00 -0.17098218552E+03  0.17098218552E+03  0.00000000000E+00 0. -1.
         25    1    1    2    0    0 -0.12749067246E+03  0.88690071167E+01  0.55071374854E+02  0.18705717623E+03  0.12500000000E+03 0.  0.
          2    1    1    2  501    0  0.73646880274E+02 -0.90244895394E+01 -0.83563265329E+02  0.11175027382E+03  0.00000000000E+00 0. -1.
          1    1    1    2  502    0  0.53843792187E+02  0.15548242264E+00  0.91514129716E+02  0.10617916024E+03  0.00000000000E+00 0. -1.
<mgrwt>
<rscale>  0 0.65537986E+02</rscale>
<asrwt>0</asrwt>
<pdfrwt beam="1">  1        2 0.36000680E-01 0.53844017E+02</pdfrwt>
<pdfrwt beam="2">  1        1 0.26304952E-01 0.79771678E+02</pdfrwt>
<totfact> 0.33029794E+03</totfact>
</mgrwt>
</event>
<event>
 5    1  0.8459321E-003  0.1228847E+03  0.7546771E-02  0.1282186E+00
         -2   -1    0    0    0  501  0.00000000000E+00  0.00000000000E+00  0.45093852534E+03  0.45093852534E+03  0.00000000000E+00 0.  1.
         -1   -1    0    0    0  502 -0.00000000000E+00 -0.00000000000E+00 -0.47870535511E+03  0.47870535511E+03  0.00000000000E+00 0.  1.
         25    1    1    2    0    0  0.72898986001E+02  0.31696407241E+02  0.34352055040E+03  0.37409930892E+03  0.12500000000E+03 0.  0.
         -2    1    1    2    0  502 -0.57691541375E+02 -0.11016623975E+03 -0.43556855342E+03  0.45297337566E+03  0.00000000000E+00 0.  1.
         -1    1    1    2    0  501 -0.15207444627E+02  0.78469832508E+02  0.64281173256E+02  0.10257119586E+03  0.00000000000E+00 0.  1.
<mgrwt>
<rscale>  0 0.99106782E+02</rscale>
<asrwt>0</asrwt>
<pdfrwt beam="1">  1       -2 0.69375158E-01 0.79929850E+02</pdfrwt>
<pdfrwt beam="2">  1       -1 0.73646977E-01 0.12288468E+03</pdfrwt>
<totfact> 0.29303084E+01</totfact>
</mgrwt>
</event>
<event>
 5    1  0.8459321E-003  0.8057354E+02  0.7546771E-02  0.1336257E+00
          2   -1    0    0  502    0  0.00000000000E+00  0.00000000000E+00  0.92302738841E+03  0.92302738841E+03  0.00000000000E+00 0. -1.
         -2   -1    0    0    0  501 -0.00000000000E+00 -0.00000000000E+00 -0.14225633849E+03  0.14225633849E+03  0.00000000000E+00 0.  1.
         25    1    1    2    0    0 -0.15949531173E+02 -0.28912888552E+02  0.13063812102E+03  0.18379788174E+03  0.12500000000E+03 0.  0.
          1    1    1    2  502    0 -0.61272771771E+02  0.52323450698E+02  0.74930953560E+03  0.75362913704E+03  0.00000000000E+00 0. -1.
         -1    1    1    2    0  501  0.77222302943E+02 -0.23410562146E+02 -0.99176606710E+02  0.12785670812E+03  0.00000000000E+00 0.  1.
<mgrwt>
<rscale>  0 0.77514476E+02</rscale>
<asrwt>0</asrwt>
<pdfrwt beam="1">  1        2 0.14200421E+00 0.80573544E+02</pdfrwt>
<pdfrwt beam="2">  1       -2 0.21885591E-01 0.74571550E+02</pdfrwt>
<totfact> 0.53854111E+02</totfact>
</mgrwt>
</event>
<event>
 5    1  0.8459321E-003  0.6775770E+02  0.7546771E-02  0.1388214E+00
          3   -1    0    0  501    0 -0.00000000000E+00  0.00000000000E+00  0.14624926289E+03  0.14624926289E+03  0.00000000000E+00 0. -1.
          2   -1    0    0  502    0  0.00000000000E+00 -0.00000000000E+00 -0.14076705133E+04  0.14076705133E+04  0.00000000000E+00 0. -1.
         25    1    1    2    0    0  0.12904276056E+02  0.27309701915E+02 -0.63685841683E+02  0.14350340271E+03  0.12500000000E+03 0.  0.
          2    1    1    2  501    0  0.27252991041E+02 -0.68295526178E+02  0.92914853982E+02  0.11849124232E+03  0.00000000000E+00 0. -1.
          1    1    1    2  502    0 -0.40157267098E+02  0.40985824263E+02 -0.12906502627E+04  0.12919251311E+04  0.00000000000E+00 0. -1.
<mgrwt>
<rscale>  0 0.62353224E+02</rscale>
<asrwt>0</asrwt>
<pdfrwt beam="2">  1        2 0.21656469E+00 0.57379821E+02</pdfrwt>
<pdfrwt beam="1">  1        3 0.22499887E-01 0.67757698E+02</pdfrwt>
<totfact> 0.17715082E+02</totfact>
</mgrwt>
</event>
<event>
 5    1  0.8459321E-003  0.5835104E+02  0.7546771E-02  0.1469598E+00
          2   -1    0    0  502    0  0.00000000000E+00  0.00000000000E+00  0.32021604570E+03  0.32021604570E+03  0.00000000000E+00 0. -1.
          1   -1    0    0  501    0 -0.00000000000E+00 -0.00000000000E+00 -0.68322408302E+03  0.68322408302E+03  0.00000000000E+00 0. -1.
         25    1    1    2    0    0 -0.16100958112E+02  0.28904946286E+02 -0.19612170289E+03  0.23491159851E+03  0.12500000000E+03 0.  0.
          2    1    1    2  501    0 -0.35869060638E+02 -0.14867038327E+01 -0.46413830212E+03  0.46552461083E+03  0.00000000000E+00 0. -1.
          3    1    1    2  502    0  0.51970018750E+02 -0.27418242453E+02  0.29725196768E+03  0.30300391937E+03  0.00000000000E+00 0. -1.
<mgrwt>
<rscale>  0 0.45768919E+02</rscale>
<asrwt>0</asrwt>
<pdfrwt beam="1">  1        2 0.49264008E-01 0.58351037E+02</pdfrwt>
<pdfrwt beam="2">  1        1 0.10511140E+00 0.35899858E+02</pdfrwt>
<totfact> 0.43790148E+02</totfact>
</mgrwt>
</event>
<event>
 5    1  0.8459321E-003  0.6022965E+02  0.7546771E-02  0.1526150E+00
          2   -1    0    0  502    0  0.00000000000E+00  0.00000000000E+00  0.48430822283E+03  0.48430822283E+03  0.00000000000E+00 0. -1.
          1   -1    0    0  501    0 -0.00000000000E+00 -0.00000000000E+00 -0.14899418646E+04  0.14899418646E+04  0.00000000000E+00 0. -1.
         25    1    1    2    0    0  0.56678008475E+02  0.44600438092E+02 -0.23023291154E+03  0.27172373705E+03  0.12500000000E+03 0.  0.
          2    1    1    2  501    0 -0.56106953904E+02 -0.21055901653E+02 -0.12379390952E+04  0.12393887787E+04  0.00000000000E+00 0. -1.
          1    1    1    2  502    0 -0.57105457048E+00 -0.23544536439E+02  0.46253836494E+03  0.46313757173E+03  0.00000000000E+00 0. -1.
<mgrwt>
<rscale>  0 0.37662928E+02</rscale>
<asrwt>0</asrwt>
<pdfrwt beam="1">  1        2 0.74508958E-01 0.23551461E+02</pdfrwt>
<pdfrwt beam="2">  1        1 0.22922182E+00 0.60229646E+02</pdfrwt>
<totfact> 0.76099016E+01</totfact>
</mgrwt>
</event>
<event>
 5    1  0.8459321E-003  0.1150372E+03  0.7546771E-02  0.1301885E+00
          1   -1    0    0  501    0 -0.00000000000E+00  0.00000000000E+00  0.93135442723E+02  0.93135442723E+02  0.00000000000E+00 0. -1.
          2   -1    0    0  502    0  0.00000000000E+00 -0.00000000000E+00 -0.13047916853E+04  0.13047916853E+04  0.00000000000E+00 0. -1.
         25    1    1    2    0    0  0.10513153393E+03 -0.11329290871E+03 -0.37384632308E+03  0.42340760015E+03  0.12500000000E+03 0.  0.
          2    1    1    2  501    0 -0.23254070631E+01  0.71001673904E+02  0.45421835440E+02  0.84319560897E+02  0.00000000000E+00 0. -1.
          1    1    1    2  502    0 -0.10280612686E+03  0.42291234807E+02 -0.88323175499E+03  0.89019996702E+03  0.00000000000E+00 0. -1.
<mgrwt>
<rscale>  0 0.90400277E+02</rscale>
<asrwt>0</asrwt>
<pdfrwt beam="2">  1        2 0.20073717E+00 0.11503716E+03</pdfrwt>
<pdfrwt beam="1">  1        1 0.14328530E-01 0.71039744E+02</pdfrwt>
<totfact> 0.93638394E+02</totfact>
</mgrwt>
</event>
<event>
 5    1  0.1005567E-002  0.8202411E+02  0.7546771E-02  0.1420184E+00
          1   -1    0    0  501    0 -0.00000000000E+00  0.00000000000E+00  0.61716656278E+03  0.61716656278E+03  0.00000000000E+00 0. -1.
          2   -1    0    0  502    0  0.00000000000E+00 -0.00000000000E+00 -0.25513046100E+04  0.25513046100E+04  0.00000000000E+00 0. -1.
         25    1    1    2    0    0  0.52729733939E+02 -0.54868869995E+02  0.89364130456E+02  0.17147001355E+03  0.12500000000E+03 0.  0.
          2    1    1    2  501    0  0.24637773049E+02  0.27409732310E+02  0.48537947425E+03  0.48677669142E+03  0.00000000000E+00 0. -1.
          1    1    1    2  502    0 -0.77367506988E+02  0.27459137685E+02 -0.25088816519E+04  0.25102244678E+04  0.00000000000E+00 0. -1.
<mgrwt>
<rscale>  0 0.54982028E+02</rscale>
<asrwt>0</asrwt>
<pdfrwt beam="2">  1        2 0.39250840E+00 0.82024112E+02</pdfrwt>
<pdfrwt beam="1">  1        1 0.94948703E-01 0.36855302E+02</pdfrwt>
<totfact> 0.21911712E+01</totfact>
</mgrwt>
</event>
<event>
 5    1  0.8459321E-003  0.1009179E+03  0.7546771E-02  0.1305263E+00
         -2   -1    0    0    0  501 -0.00000000000E+00  0.00000000000E+00  0.21571787221E+03  0.21571787221E+03  0.00000000000E+00 0.  1.
          2   -1    0    0  502    0  0.00000000000E+00 -0.00000000000E+00 -0.21628367404E+04  0.21628367404E+04  0.00000000000E+00 0. -1.
         25    1    1    2    0    0  0.11848387593E+03  0.89647514778E+02 -0.88433719804E+03  0.90540178131E+03  0.12500000000E+03 0.  0.
          1    1    1    2  502    0 -0.78468528565E+02  0.25629532090E+01 -0.12543550725E+04  0.12568096620E+04  0.00000000000E+00 0. -1.
         -1    1    1    2    0  501 -0.40015347367E+02 -0.92210467987E+02  0.19157340230E+03  0.21634316929E+03  0.00000000000E+00 0.  1.
<mgrwt>
<rscale>  0 0.89011805E+02</rscale>
<asrwt>0</asrwt>
<pdfrwt beam="2">  1        2 0.33274412E+00 0.78510373E+02</pdfrwt>
<pdfrwt beam="1">  1       -2 0.33187364E-01 0.10091789E+03</pdfrwt>
<totfact> 0.59390650E+01</totfact>
</mgrwt>
</event>
<event>
 5    1  0.8459321E-003  0.1585000E+03  0.7546771E-02  0.1307136E+00
          2   -1    0    0  502    0  0.00000000000E+00  0.00000000000E+00  0.23805198942E+04  0.23805198942E+04  0.00000000000E+00 0. -1.
          1   -1    0    0  501    0 -0.00000000000E+00 -0.00000000000E+00 -0.15037414930E+03  0.15037414930E+03  0.00000000000E+00 0. -1.
         25    1    1    2    0    0 -0.15695120079E+03 -0.12601056540E+03  0.60243055819E+03  0.64734837565E+03  0.12500000000E+03 0.  0.
          2    1    1    2  501    0  0.36893925389E+02  0.32459755769E+02 -0.11976255514E+03  0.12945218071E+03  0.00000000000E+00 0. -1.
          1    1    1    2  502    0  0.12005727540E+03  0.93550809627E+02  0.17474777419E+04  0.17540934872E+04  0.00000000000E+00 0. -1.
<mgrwt>
<rscale>  0 0.88254073E+02</rscale>
<asrwt>0</asrwt>
<pdfrwt beam="1">  1        2 0.36623380E+00 0.15849996E+03</pdfrwt>
<pdfrwt beam="2">  1        1 0.23134486E-01 0.49140589E+02</pdfrwt>
<totfact> 0.13653779E+02</totfact>
</mgrwt>
</event>
<event>
 5    1  0.8459321E-003  0.1665058E+03  0.7546771E-02  0.1376513E+00
          2   -1    0    0  502    0  0.00000000000E+00  0.00000000000E+00  0.10011219426E+04  0.10011219426E+04  0.00000000000E+00 0. -1.
          1   -1    0    0  501    0 -0.00000000000E+00 -0.00000000000E+00 -0.44278947524E+03  0.44278947524E+03  0.00000000000E+00 0. -1.
         25    1    1    2    0    0 -0.43993472910E+02 -0.16844916678E+03 -0.20170795246E+03  0.29431555435E+03  0.12500000000E+03 0.  0.
          2    1    1    2  501    0  0.25485848047E+02  0.31470802378E+01 -0.18664779735E+03  0.18840603181E+03  0.00000000000E+00 0. -1.
          1    1    1    2  502    0  0.18507624863E+02  0.16530208654E+03  0.94668821721E+03  0.96118983172E+03  0.00000000000E+00 0. -1.
<mgrwt>
<rscale>  0 0.65389397E+02</rscale>
<asrwt>0</asrwt>
<pdfrwt beam="1">  1        2 0.15401876E+00 0.16650584E+03</pdfrwt>
<pdfrwt beam="2">  1        1 0.68121458E-01 0.25679419E+02</pdfrwt>
<totfact> 0.20284921E+02</totfact>
</mgrwt>
</event>
<event>
 5    1  0.8459321E-003  0.8637470E+02  0.7546771E-02  0.1365746E+00
         -2   -1    0    0    0  501 -0.00000000000E+00  0.00000000000E+00  0.78958170592E+02  0.78958170592E+02  0.00000000000E+00 0.  1.
          2   -1    0    0  502    0  0.00000000000E+00 -0.00000000000E+00 -0.58215559530E+03  0.58215559530E+03  0.00000000000E+00 0. -1.
         25    1    1    2    0    0  0.42422968348E+02 -0.47227473497E+02 -0.10191338208E+03  0.17332478168E+03  0.12500000000E+03 0.  0.
          1    1    1    2  502    0  0.51667137240E+02  0.16071767315E+02 -0.38324583815E+03  0.38704672487E+03  0.00000000000E+00 0. -1.
         -1    1    1    2    0  501 -0.94090105587E+02  0.31155706183E+02 -0.18038204482E+02  0.10074225935E+03  0.00000000000E+00 0.  1.
<mgrwt>
<rscale>  0 0.68364153E+02</rscale>
<asrwt>0</asrwt>
<pdfrwt beam="2">  1        2 0.89562399E-01 0.54109101E+02</pdfrwt>
<pdfrwt beam="1">  1       -2 0.12147411E-01 0.86374700E+02</pdfrwt>
<totfact> 0.24645658E+03</totfact>
</mgrwt>
</event>
<event>
 5    1  0.8459321E-003  0.3250037E+02  0.7546771E-02  0.1577291E+00
          2   -1    0    0  502    0  0.00000000000E+00  0.00000000000E+00  0.10770614794E+04  0.10770614794E+04  0.00000000000E+00 0. -1.
          1   -1    0    0  501    0 -0.00000000000E+00 -0.00000000000E+00 -0.49806079464E+02  0.49806079464E+02  0.00000000000E+00 0. -1.
         25    1    1    2    0    0  0.16078219894E+02  0.40465413259E+01  0.14411438485E+03  0.19149109528E+03  0.12500000000E+03 0.  0.
          2    1    1    2  501    0 -0.16970363586E+02  0.28441580258E+02 -0.15204657635E+02  0.36443083591E+02  0.00000000000E+00 0. -1.
          1    1    1    2  502    0  0.89214369213E+00 -0.32488121584E+02  0.89834567275E+03  0.89893338002E+03  0.00000000000E+00 0. -1.
<mgrwt>
<rscale>  0 0.31968963E+02</rscale>
<asrwt>0</asrwt>
<pdfrwt beam="1">  1        2 0.16570175E+00 0.32500369E+02</pdfrwt>
<pdfrwt beam="2">  1        1 0.76624745E-02 0.31446246E+02</pdfrwt>
<totfact> 0.28125688E+03</totfact>
</mgrwt>
</event>
<event>
 5    1  0.8459321E-003  0.3297660E+02  0.7546771E-02  0.1604006E+00
          1   -1    0    0  501    0 -0.00000000000E+00  0.00000000000E+00  0.56329689239E+03  0.56329689239E+03  0.00000000000E+00 0. -1.
          2   -1    0    0  502    0  0.00000000000E+00 -0.00000000000E+00 -0.89299222286E+03  0.89299222286E+03  0.00000000000E+00 0. -1.
         25    1    1    2    0    0 -0.17645157866E+02  0.14460501345E+02 -0.41099547860E+02  0.13354636097E+03  0.12500000000E+03 0.  0.
          2    1    1    2  501    0 -0.14623448034E+02 -0.21906415922E+02  0.51639739972E+03  0.51706867119E+03  0.00000000000E+00 0. -1.
          1    1    1    2  502    0  0.32268605900E+02  0.74459145772E+01 -0.80499318233E+03  0.80567408309E+03  0.00000000000E+00 0. -1.
<mgrwt>
<rscale>  0 0.29471453E+02</rscale>
<asrwt>0</asrwt>
<pdfrwt beam="2">  1        2 0.13738342E+00 0.32976601E+02</pdfrwt>
<pdfrwt beam="1">  1        1 0.86661061E-01 0.26338874E+02</pdfrwt>
<totfact> 0.18975351E+02</totfact>
</mgrwt>
</event>
<event>
 5    1  0.8459321E-003  0.7325990E+02  0.7546771E-02  0.1401805E+00
          1   -1    0    0  501    0 -0.00000000000E+00  0.00000000000E+00  0.63265277538E+03  0.63265277538E+03  0.00000000000E+00 0. -1.
          2   -1    0    0  502    0  0.00000000000E+00 -0.00000000000E+00 -0.71899656404E+03  0.71899656404E+03  0.00000000000E+00 0. -1.
         25    1    1    2    0    0  0.84591696716E+02 -0.72439305959E+02  0.35248158944E+03  0.39021978306E+03  0.12500000000E+03 0.  0.
          2    1    1    2  501    0 -0.17070275794E+02  0.44452935272E+02  0.25720308276E+03  0.26157385869E+03  0.00000000000E+00 0. -1.
          1    1    1    2  502    0 -0.67521420922E+02  0.27986370687E+02 -0.69602846086E+03  0.69985569767E+03  0.00000000000E+00 0. -1.
<mgrwt>
<rscale>  0 0.59063335E+02</rscale>
<asrwt>0</asrwt>
<pdfrwt beam="2">  1        2 0.11061486E+00 0.73259901E+02</pdfrwt>
<pdfrwt beam="1">  1        1 0.97331196E-01 0.47617830E+02</pdfrwt>
<totfact> 0.20121397E+02</totfact>
</mgrwt>
</event>
<event>
 5    1  0.8459321E-003  0.4526410E+02  0.7546771E-02  0.1575425E+00
          2   -1    0    0  502    0  0.00000000000E+00  0.00000000000E+00  0.88645779299E+02  0.88645779299E+02  0.00000000000E+00 0. -1.
         -2   -1    0    0    0  501 -0.00000000000E+00 -0.00000000000E+00 -0.15367731225E+03  0.15367731225E+03  0.00000000000E+00 0.  1.
         25    1    1    2    0    0  0.35023024064E+02  0.91667510248E+01 -0.58450781134E+02  0.14266091039E+03  0.12500000000E+03 0.  0.
          1    1    1    2  502    0 -0.34304113912E+02 -0.31997241349E+02  0.30612161515E+02  0.56015177567E+02  0.00000000000E+00 0. -1.
         -1    1    1    2    0  501 -0.71891015287E+00  0.22830490324E+02 -0.37192913336E+02  0.43647003593E+02  0.00000000000E+00 0.  1.
<mgrwt>
<rscale>  0 0.32154532E+02</rscale>
<asrwt>0</asrwt>
<pdfrwt beam="1">  1        2 0.13637812E-01 0.45264104E+02</pdfrwt>
<pdfrwt beam="2">  1       -2 0.23642663E-01 0.22841806E+02</pdfrwt>
<totfact> 0.56910917E+03</totfact>
</mgrwt>
</event>
<event>
 5    1  0.8459321E-003  0.6474429E+02  0.7546771E-02  0.1381748E+00
          2   -1    0    0  502    0  0.00000000000E+00  0.00000000000E+00  0.69464449539E+03  0.69464449539E+03  0.00000000000E+00 0. -1.
          1   -1    0    0  501    0 -0.00000000000E+00 -0.00000000000E+00 -0.32522014250E+03  0.32522014250E+03  0.00000000000E+00 0. -1.
         25    1    1    2    0    0 -0.25396733272E+02 -0.43617122845E+02  0.93930465652E+01  0.13513207166E+03  0.12500000000E+03 0.  0.
          2    1    1    2  501    0  0.67088835753E+02 -0.39829003204E+01 -0.25640014885E+03  0.26506190165E+03  0.00000000000E+00 0. -1.
          1    1    1    2  502    0 -0.41692102481E+02  0.47600023166E+02  0.61643145517E+03  0.61967066458E+03  0.00000000000E+00 0. -1.
<mgrwt>
<rscale>  0 0.64006500E+02</rscale>
<asrwt>0</asrwt>
<pdfrwt beam="1">  1        2 0.10686838E+00 0.63277118E+02</pdfrwt>
<pdfrwt beam="2">  1        1 0.50033868E-01 0.64744291E+02</pdfrwt>
<totfact> 0.47974462E+02</totfact>
</mgrwt>
</event>
<event>
 5    1  0.8733168E-003  0.5883313E+02  0.7546771E-02  0.1473626E+00
          1   -1    0    0  501    0 -0.00000000000E+00  0.00000000000E+00  0.90175362358E+03  0.90175362358E+03  0.00000000000E+00 0. -1.
          2   -1    0    0  502    0  0.00000000000E+00 -0.00000000000E+00 -0.11306766486E+04  0.11306766486E+04  0.00000000000E+00 0. -1.
         25    1    1    2    0    0 -0.78334489444E+02 -0.14609835701E+01  0.28642144633E+03  0.32218111619E+03  0.12500000000E+03 0.  0.
          2    1    1    2  501    0  0.25193216619E+02 -0.23709510646E+02  0.59617376045E+03  0.59717668383E+03  0.00000000000E+00 0. -1.
          1    1    1    2  502    0  0.53141272825E+02  0.25170494216E+02 -0.11115182318E+04  0.11130724722E+04  0.00000000000E+00 0. -1.
<mgrwt>
<rscale>  0 0.45114890E+02</rscale>
<asrwt>0</asrwt>
<pdfrwt beam="2">  1        2 0.17395025E+00 0.58833126E+02</pdfrwt>
<pdfrwt beam="1">  1        1 0.13873133E+00 0.34595362E+02</pdfrwt>
<totfact> 0.70663697E+01</totfact>
</mgrwt>
</event>
<event>
 5    1  0.8459321E-003  0.1549362E+03  0.7546771E-02  0.1322939E+00
          1   -1    0    0  501    0 -0.00000000000E+00  0.00000000000E+00  0.30214613273E+03  0.30214613273E+03  0.00000000000E+00 0. -1.
          2   -1    0    0  502    0  0.00000000000E+00 -0.00000000000E+00 -0.18322706985E+03  0.18322706985E+03  0.00000000000E+00 0. -1.
         25    1    1    2    0    0 -0.35617280269E+02 -0.12185501311E+03  0.17283038215E+03  0.24821880643E+03  0.12500000000E+03 0.  0.
          2    1    1    2  501    0 -0.37278040590E+02 -0.22619385373E+02  0.31862713756E+02  0.54004827865E+02  0.00000000000E+00 0. -1.
          1    1    1    2  502    0  0.72895320859E+02  0.14447439848E+03 -0.85774033029E+02  0.18314956828E+03  0.00000000000E+00 0. -1.
<mgrwt>
<rscale>  0 0.82193682E+02</rscale>
<asrwt>0</asrwt>
<pdfrwt beam="2">  1        2 0.28188780E-01 0.15493617E+03</pdfrwt>
<pdfrwt beam="1">  1        1 0.46484020E-01 0.43603772E+02</pdfrwt>
<totfact> 0.21844046E+03</totfact>
</mgrwt>
</event>
<event>
 5    1  0.8459321E-003  0.1629761E+03  0.7546771E-02  0.1275306E+00
          2   -1    0    0  502    0  0.00000000000E+00  0.00000000000E+00  0.88887396270E+03  0.88887396270E+03  0.00000000000E+00 0. -1.
          1   -1    0    0  501    0 -0.00000000000E+00 -0.00000000000E+00 -0.15446683270E+04  0.15446683270E+04  0.00000000000E+00 0. -1.
         25    1    1    2    0    0  0.12078864517E+03 -0.15157162372E+03 -0.24013747479E+02  0.23187391830E+03  0.12500000000E+03 0.  0.
          2    1    1    2  501    0 -0.56436430105E+02  0.15186239181E+03 -0.14107616590E+04  0.14200337021E+04  0.00000000000E+00 0. -1.
          1    1    1    2  502    0 -0.64352215067E+02 -0.29076808764E+00  0.77898104217E+03  0.78163466926E+03  0.00000000000E+00 0. -1.
<mgrwt>
<rscale>  0 0.10241084E+03</rscale>
<asrwt>0</asrwt>
<pdfrwt beam="1">  1        2 0.13674984E+00 0.64352872E+02</pdfrwt>
<pdfrwt beam="2">  1        1 0.23764128E+00 0.16297610E+03</pdfrwt>
<totfact> 0.31698540E+01</totfact>
</mgrwt>
</event>
<event>
 5    1  0.8459321E-003  0.3523417E+02  0.7546771E-02  0.1586063E+00
          2   -1    0    0  502    0  0.00000000000E+00  0.00000000000E+00  0.16540155093E+04  0.16540155093E+04  0.00000000000E+00 0. -1.
          1   -1    0    0  501    0 -0.00000000000E+00 -0.00000000000E+00 -0.42712833149E+03  0.42712833149E+03  0.00000000000E+00 0. -1.
         25    1    1    2    0    0 -0.60047070660E+02  0.17930675604E+02 -0.24884960613E+03  0.28544401604E+03  0.12500000000E+03 0.  0.
          2    1    1    2  501    0  0.26583202217E+02 -0.69650367968E+01 -0.15861034939E+03  0.16097335591E+03  0.00000000000E+00 0. -1.
          1    1    1    2  502    0  0.33463868442E+02 -0.10965638807E+02  0.16343471333E+04  0.16347264688E+04  0.00000000000E+00 0. -1.
<mgrwt>
<rscale>  0 0.31116763E+02</rscale>
<asrwt>0</asrwt>
<pdfrwt beam="1">  1        2 0.25446392E+00 0.35234170E+02</pdfrwt>
<pdfrwt beam="2">  1        1 0.65712052E-01 0.27480509E+02</pdfrwt>
<totfact> 0.10730415E+02</totfact>
</mgrwt>
</event>
<event>
 5    1  0.8459321E-003  0.1727566E+03  0.7546771E-02  0.1222231E+00
          2   -1    0    0  502    0  0.00000000000E+00  0.00000000000E+00  0.16954547087E+04  0.16954547087E+04  0.00000000000E+00 0. -1.
          1   -1    0    0  501    0 -0.00000000000E+00 -0.00000000000E+00 -0.60760635451E+02  0.60760635451E+02  0.00000000000E+00 0. -1.
         25    1    1    2    0    0  0.17613464864E+03  0.34607654773E+02  0.88823973695E+03  0.91477643964E+03  0.12500000000E+03 0.  0.
          2    1    1    2  501    0 -0.46919741153E+02  0.92024230537E+02  0.37703833879E+02  0.10996135778E+03  0.00000000000E+00 0. -1.
          1    1    1    2  502    0 -0.12921490748E+03 -0.12663188531E+03  0.70875050239E+03  0.73147754671E+03  0.00000000000E+00 0. -1.
<mgrwt>
<rscale>  0 0.13358498E+03</rscale>
<asrwt>0</asrwt>
<pdfrwt beam="1">  1        2 0.26083915E+00 0.17275661E+03</pdfrwt>
<pdfrwt beam="2">  1        1 0.93477914E-02 0.10329531E+03</pdfrwt>
<totfact> 0.10074123E+03</totfact>
</mgrwt>
</event>
<event>
 5    1  0.8459321E-003  0.3842570E+02  0.7546771E-02  0.1534537E+00
          2   -1    0    0  502    0  0.00000000000E+00  0.00000000000E+00  0.79753998169E+03  0.79753998169E+03  0.00000000000E+00 0. -1.
         -2   -1    0    0    0  501 -0.00000000000E+00 -0.00000000000E+00 -0.46394026955E+03  0.46394026955E+03  0.00000000000E+00 0.  1.
         25    1    1    2    0    0 -0.55847557275E+01 -0.58923267294E+02  0.13883494632E+03  0.19596755661E+03  0.12500000000E+03 0.  0.
          1    1    1    2  502    0 -0.18367912071E+02  0.33500628851E+02  0.62885747253E+03  0.63001697841E+03  0.00000000000E+00 0. -1.
         -1    1    1    2    0  501  0.23952667799E+02  0.25422638443E+02 -0.43409270671E+03  0.43549571623E+03  0.00000000000E+00 0.  1.
<mgrwt>
<rscale>  0 0.36635697E+02</rscale>
<asrwt>0</asrwt>
<pdfrwt beam="1">  1        2 0.12269846E+00 0.38425696E+02</pdfrwt>
<pdfrwt beam="2">  1       -2 0.71375426E-01 0.34929083E+02</pdfrwt>
<totfact> 0.72821060E+01</totfact>
</mgrwt>
</event>
<event>
 5    1  0.8459321E-003  0.2485879E+03  0.7546771E-02  0.1170228E+00
         -2   -1    0    0    0  501  0.00000000000E+00  0.00000000000E+00  0.61497162142E+03  0.61497162142E+03  0.00000000000E+00 0.  1.
         -1   -1    0    0    0  502 -0.00000000000E+00 -0.00000000000E+00 -0.15627789909E+04  0.15627789909E+04  0.00000000000E+00 0.  1.
         25    1    1    2    0    0 -0.63878414977E+02 -0.18667888171E+03 -0.12925104074E+03  0.26694622737E+03  0.12500000000E+03 0.  0.
         -2    1    1    2    0  502  0.19043845972E+03  0.17946222324E+03 -0.13445367992E+04  0.13697637391E+04  0.00000000000E+00 0.  1.
         -1    1    1    2    0  501 -0.12656004474E+03  0.72166584690E+01  0.52598047050E+03  0.54104064582E+03  0.00000000000E+00 0.  1.
<mgrwt>
<rscale>  0 0.17751733E+03</rscale>
<asrwt>0</asrwt>
<pdfrwt beam="1">  1       -2 0.94611019E-01 0.12676563E+03</pdfrwt>
<pdfrwt beam="2">  1       -1 0.24042754E+00 0.24858790E+03</pdfrwt>
<totfact> 0.68947364E-01</totfact>
</mgrwt>
</event>
<event>
 5    1  0.8459321E-003  0.6266261E+02  0.7546771E-02  0.1524612E+00
          2   -1    0    0  502    0  0.00000000000E+00  0.00000000000E+00  0.23444702330E+04  0.23444702330E+04  0.00000000000E+00 0. -1.
          1   -1    0    0  501    0 -0.00000000000E+00 -0.00000000000E+00 -0.10397579045E+03  0.10397579045E+03  0.00000000000E+00 0. -1.
         25    1    1    2    0    0  0.23405948342E+02 -0.40198258346E+02  0.20014220014E+04  0.20058611034E+04  0.12500000000E+03 0.  0.
          2    1    1    2  501    0 -0.14185459150E+02  0.61126451583E+02 -0.91649397319E+02  0.11107331976E+03  0.00000000000E+00 0. -1.
          1    1    1    2  502    0 -0.92204891925E+01 -0.20928193237E+02  0.33072183853E+03  0.33151160036E+03  0.00000000000E+00 0. -1.
<mgrwt>
<rscale>  0 0.37855680E+02</rscale>
<asrwt>0</asrwt>
<pdfrwt beam="1">  1        2 0.36068769E+00 0.22869340E+02</pdfrwt>
<pdfrwt beam="2">  1        1 0.15996277E-01 0.62662609E+02</pdfrwt>
<totfact> 0.29637320E+02</totfact>
</mgrwt>
</event>
<event>
 5    1  0.8459321E-003  0.7943925E+02  0.7546771E-02  0.1391165E+00
          1   -1    0    0  501    0 -0.00000000000E+00  0.00000000000E+00  0.14687379584E+03  0.14687379584E+03  0.00000000000E+00 0. -1.
          2   -1    0    0  502    0  0.00000000000E+00 -0.00000000000E+00 -0.23622895092E+04  0.23622895092E+04  0.00000000000E+00 0. -1.
         25    1    1    2    0    0 -0.77135765818E+01  0.38080534264E+02 -0.58445219588E+03  0.59893154502E+03  0.12500000000E+03 0.  0.
          2    1    1    2  501    0  0.73187241252E+01  0.47230852622E+02  0.13448385862E+03  0.14272429853E+03  0.00000000000E+00 0. -1.
          3    1    1    2  502    0  0.39485245659E+00 -0.85311386885E+02 -0.17654473761E+04  0.17675074615E+04  0.00000000000E+00 0. -1.
<mgrwt>
<rscale>  0 0.61617866E+02</rscale>
<asrwt>0</asrwt>
<pdfrwt beam="2">  1        2 0.36342912E+00 0.79439245E+02</pdfrwt>
<pdfrwt beam="1">  1        1 0.22595971E-01 0.47794531E+02</pdfrwt>
<totfact> 0.15659240E+02</totfact>
</mgrwt>
</event>
<event>
 5    1  0.8459321E-003  0.2494615E+02  0.7546771E-02  0.1697105E+00
         -2   -1    0    0    0  501 -0.00000000000E+00  0.00000000000E+00  0.10190171753E+02  0.10190171753E+02  0.00000000000E+00 0.  1.
          2   -1    0    0  502    0  0.00000000000E+00 -0.00000000000E+00 -0.11367303871E+04  0.11367303871E+04  0.00000000000E+00 0. -1.
         25    1    1    2    0    0 -0.13379910462E+02 -0.38147061691E+02 -0.96918147801E+03  0.97804496708E+03  0.12500000000E+03 0.  0.
          1    1    1    2  502    0  0.15391511399E+02  0.13662736642E+02 -0.13190212133E+03  0.13349808466E+03  0.00000000000E+00 0. -1.
         -1    1    1    2    0  501 -0.20116009363E+01  0.24484325049E+02 -0.25456616026E+02  0.35377507133E+02  0.00000000000E+00 0.  1.
<mgrwt>
<rscale>  0 0.22658584E+02</rscale>
<asrwt>0</asrwt>
<pdfrwt beam="2">  1        2 0.17488146E+00 0.20580792E+02</pdfrwt>
<pdfrwt beam="1">  1       -2 0.15677200E-02 0.24946146E+02</pdfrwt>
<totfact> 0.19602648E+04</totfact>
</mgrwt>
</event>
<event>
 5    1  0.8459321E-003  0.1237066E+03  0.7546771E-02  0.1367190E+00
          1   -1    0    0  501    0 -0.00000000000E+00  0.00000000000E+00  0.20882282073E+04  0.20882282073E+04  0.00000000000E+00 0. -1.
          2   -1    0    0  502    0  0.00000000000E+00 -0.00000000000E+00 -0.65647579796E+03  0.65647579796E+03  0.00000000000E+00 0. -1.
         25    1    1    2    0    0 -0.12973905976E+03  0.85147943952E+02 -0.18396469648E+03  0.27120178012E+03  0.12500000000E+03 0.  0.
          2    1    1    2  501    0  0.30922096314E+02 -0.20910676206E+02  0.20363382346E+04  0.20366803475E+04  0.00000000000E+00 0. -1.
          1    1    1    2  502    0  0.98816963449E+02 -0.64237267746E+02 -0.42062112873E+03  0.43682187762E+03  0.00000000000E+00 0. -1.
<mgrwt>
<rscale>  0 0.67954460E+02</rscale>
<asrwt>0</asrwt>
<pdfrwt beam="2">  1        2 0.10099628E+00 0.12370663E+03</pdfrwt>
<pdfrwt beam="1">  1        1 0.32126587E+00 0.37328708E+02</pdfrwt>
<totfact> 0.24278630E+01</totfact>
</mgrwt>
</event>
<event>
 5    1  0.8459321E-003  0.7065305E+02  0.7546771E-02  0.1474192E+00
          2   -1    0    0  502    0  0.00000000000E+00  0.00000000000E+00  0.26344792291E+03  0.26344792291E+03  0.00000000000E+00 0. -1.
          1   -1    0    0  501    0 -0.00000000000E+00 -0.00000000000E+00 -0.43673275245E+03  0.43673275245E+03  0.00000000000E+00 0. -1.
         25    1    1    2    0    0  0.57413799389E+02 -0.25289309891E+02 -0.69126189235E+02  0.15601065218E+03  0.12500000000E+03 0.  0.
          2    1    1    2  501    0 -0.91295679608E+01 -0.27200540431E+02 -0.31772083820E+03  0.31901371356E+03  0.00000000000E+00 0. -1.
          1    1    1    2  502    0 -0.48284231428E+02  0.52489850321E+02  0.21356219790E+03  0.22515630962E+03  0.00000000000E+00 0. -1.
<mgrwt>
<rscale>  0 0.45024016E+02</rscale>
<asrwt>0</asrwt>
<pdfrwt beam="1">  1        2 0.40530450E-01 0.70653051E+02</pdfrwt>
<pdfrwt beam="2">  1        1 0.67189653E-01 0.28691783E+02</pdfrwt>
<totfact> 0.94621006E+02</totfact>
</mgrwt>
</event>
<event>
 5    1  0.8459321E-003  0.2976198E+02  0.7546771E-02  0.1636376E+00
          2   -1    0    0  502    0  0.00000000000E+00  0.00000000000E+00  0.23411581971E+03  0.23411581971E+03  0.00000000000E+00 0. -1.
          1   -1    0    0  501    0 -0.00000000000E+00 -0.00000000000E+00 -0.46528918843E+03  0.46528918843E+03  0.00000000000E+00 0. -1.
         25    1    1    2    0    0  0.11261549087E+02 -0.43655026340E+02  0.11497408372E+03  0.17571745428E+03  0.12500000000E+03 0.  0.
          2    1    1    2  501    0  0.85775202498E+01  0.22563148931E+02 -0.43221043017E+03  0.43288396307E+03  0.00000000000E+00 0. -1.
          1    1    1    2  502    0 -0.19839069337E+02  0.21091877409E+02  0.86062977726E+02  0.90803590787E+02  0.00000000000E+00 0. -1.
<mgrwt>
<rscale>  0 0.26803189E+02</rscale>
<asrwt>0</asrwt>
<pdfrwt beam="1">  1        2 0.36017819E-01 0.29761976E+02</pdfrwt>
<pdfrwt beam="2">  1        1 0.71582952E-01 0.24138549E+02</pdfrwt>
<totfact> 0.97476609E+02</totfact>
</mgrwt>
</event>
<event>
 5    1  0.8459321E-003  0.8507323E+02  0.7546771E-02  0.1379597E+00
          1   -1    0    0  501    0 -0.00000000000E+00  0.00000000000E+00  0.85632033434E+02  0.85632033434E+02  0.00000000000E+00 0. -1.
          2   -1    0    0  502    0  0.00000000000E+00 -0.00000000000E+00 -0.10130426156E+04  0.10130426156E+04  0.00000000000E+00 0. -1.
         25    1    1    2    0    0 -0.97213143406E+02  0.42076938872E+02 -0.75894175526E+02  0.18057073383E+03  0.12500000000E+03 0.  0.
          2    1    1    2  501    0  0.12693375274E+02 -0.47335736890E+02  0.11991268327E+02  0.50453783593E+02  0.00000000000E+00 0. -1.
          1    1    1    2  502    0  0.84519768133E+02  0.52587980179E+01 -0.86350767493E+03  0.86765013158E+03  0.00000000000E+00 0. -1.
<mgrwt>
<rscale>  0 0.64569942E+02</rscale>
<asrwt>0</asrwt>
<pdfrwt beam="2">  1        2 0.15585271E+00 0.85073233E+02</pdfrwt>
<pdfrwt beam="1">  1        1 0.13174159E-01 0.49008099E+02</pdfrwt>
<totfact> 0.15065365E+03</totfact>
</mgrwt>
</event>
<event>
 5    1  0.8459321E-003  0.7720526E+02  0.7546771E-02  0.1400345E+00
         -2   -1    0    0    0  501 -0.00000000000E+00  0.00000000000E+00  0.75270515895E+02  0.75270515895E+02  0.00000000000E+00 0.  1.
          2   -1    0    0  502    0  0.00000000000E+00 -0.00000000000E+00 -0.63776165676E+03  0.63776165676E+03  0.00000000000E+00 0. -1.
         25    1    1    2    0    0  0.33839956815E+02  0.48752481203E+01 -0.42651644928E+03  0.44576921409E+03  0.12500000000E+03 0.  0.
          1    1    1    2  502    0  0.45708435701E+02  0.20991915622E+00 -0.17331390671E+03  0.17924010549E+03  0.00000000000E+00 0. -1.
         -1    1    1    2    0  501 -0.79548392515E+02 -0.50851672766E+01  0.37339215118E+02  0.88022853076E+02  0.00000000000E+00 0.  1.
<mgrwt>
<rscale>  0 0.59405127E+02</rscale>
<asrwt>0</asrwt>
<pdfrwt beam="2">  1        2 0.98117176E-01 0.45708918E+02</pdfrwt>
<pdfrwt beam="1">  1       -2 0.11580080E-01 0.77205265E+02</pdfrwt>
<totfact> 0.23972820E+03</totfact>
</mgrwt>
</event>
<event>
 5    1  0.8459321E-003  0.4061481E+02  0.7546771E-02  0.1549694E+00
          1   -1    0    0  501    0 -0.00000000000E+00  0.00000000000E+00  0.10612197590E+04  0.10612197590E+04  0.00000000000E+00 0. -1.
          2   -1    0    0  502    0  0.00000000000E+00 -0.00000000000E+00 -0.69550065688E+02  0.69550065688E+02  0.00000000000E+00 0. -1.
         25    1    1    2    0    0  0.36709899292E+02  0.57809169969E+02  0.11602743245E+03  0.18378487946E+03  0.12500000000E+03 0.  0.
          2    1    1    2  501    0 -0.27657680329E+02 -0.29259757197E+02  0.90449919427E+03  0.90539487137E+03  0.00000000000E+00 0. -1.
          1    1    1    2  502    0 -0.90522189634E+01 -0.28549412772E+02 -0.28856933404E+02  0.41590073855E+02  0.00000000000E+00 0. -1.
<mgrwt>
<rscale>  0 0.34877209E+02</rscale>
<asrwt>0</asrwt>
<pdfrwt beam="2">  1        2 0.10700011E-01 0.29950153E+02</pdfrwt>
<pdfrwt beam="1">  1        1 0.16326457E+00 0.40614808E+02</pdfrwt>
<totfact> 0.11406107E+03</totfact>
</mgrwt>
</event>
<event>
 5    1  0.8459321E-003  0.3744364E+02  0.7546771E-02  0.1614527E+00
          1   -1    0    0  502    0  0.00000000000E+00  0.00000000000E+00  0.13151327217E+04  0.13151327217E+04  0.00000000000E+00 0. -1.
         -1   -1    0    0    0  501 -0.00000000000E+00 -0.00000000000E+00 -0.53180657626E+03  0.53180657626E+03  0.00000000000E+00 0.  1.
         25    1    1    2    0    0  0.16786068729E+02  0.29709938278E+01  0.18398848894E+03  0.22308599904E+03  0.12500000000E+03 0.  0.
          2    1    1    2  502    0  0.20452496293E+02 -0.75167464732E+01  0.11108016348E+04  0.11110153365E+04  0.00000000000E+00 0. -1.
         -2    1    1    2    0  501 -0.37238565022E+02  0.45457526454E+01 -0.51146397830E+03  0.51283796241E+03  0.00000000000E+00 0.  1.
<mgrwt>
<rscale>  0 0.28563938E+02</rscale>
<asrwt>0</asrwt>
<pdfrwt beam="1">  1        1 0.20232811E+00 0.21790045E+02</pdfrwt>
<pdfrwt beam="2">  1       -1 0.81816397E-01 0.37443638E+02</pdfrwt>
<totfact> 0.20023551E+01</totfact>
</mgrwt>
</event>
<event>
 5    1  0.8459321E-003  0.5997815E+02  0.7546771E-02  0.1415677E+00
          2   -1    0    0  502    0  0.00000000000E+00  0.00000000000E+00  0.75068021606E+03  0.75068021606E+03  0.00000000000E+00 0. -1.
         -2   -1    0    0    0  501 -0.00000000000E+00 -0.00000000000E+00 -0.44583323760E+03  0.44583323760E+03  0.00000000000E+00 0.  1.
         25    1    1    2    0    0 -0.21291894946E+02 -0.10499081464E+03  0.42653307367E+03  0.45720004252E+03  0.12500000000E+03 0.  0.
          1    1    1    2  502    0  0.25760386320E+02  0.45383639366E+02  0.30450838550E+03  0.30894761540E+03  0.00000000000E+00 0. -1.
         -1    1    1    2    0  501 -0.44684913733E+01  0.59607175272E+02 -0.42619448071E+03  0.43036579574E+03  0.00000000000E+00 0.  1.
<mgrwt>
<rscale>  0 0.55946035E+02</rscale>
<asrwt>0</asrwt>
<pdfrwt beam="1">  1        2 0.11548926E+00 0.52184981E+02</pdfrwt>
<pdfrwt beam="2">  1       -2 0.68589729E-01 0.59978154E+02</pdfrwt>
<totfact> 0.83678665E+01</totfact>
</mgrwt>
</event>
<event>
 5    1  0.8459321E-003  0.5647357E+02  0.7546771E-02  0.1454562E+00
          1   -1    0    0  501    0 -0.00000000000E+00  0.00000000000E+00  0.75368646760E+02  0.75368646760E+02  0.00000000000E+00 0. -1.
          2   -1    0    0  502    0  0.00000000000E+00 -0.00000000000E+00 -0.39640244800E+03  0.39640244800E+03  0.00000000000E+00 0. -1.
         25    1    1    2    0    0 -0.13028527186E+02  0.54932161319E+02 -0.12293258335E+03  0.18418660352E+03  0.12500000000E+03 0.  0.
          2    1    1    2  501    0 -0.34909339237E+02 -0.22182809938E+02  0.30714671540E+02  0.51518249879E+02  0.00000000000E+00 0. -1.
          1    1    1    2  502    0  0.47937866423E+02 -0.32749351380E+02 -0.22881588944E+03  0.23606624136E+03  0.00000000000E+00 0. -1.
<mgrwt>
<rscale>  0 0.48330196E+02</rscale>
<asrwt>0</asrwt>
<pdfrwt beam="2">  1        2 0.60984992E-01 0.56473569E+02</pdfrwt>
<pdfrwt beam="1">  1        1 0.11595176E-01 0.41361081E+02</pdfrwt>
<totfact> 0.51734761E+03</totfact>
</mgrwt>
</event>
<event>
 5    1  0.8459321E-003  0.4520265E+02  0.7546771E-02  0.1497385E+00
         -1   -1    0    0    0  501 -0.00000000000E+00  0.00000000000E+00  0.47543693207E+03  0.47543693207E+03  0.00000000000E+00 0.  1.
          1   -1    0    0  502    0  0.00000000000E+00 -0.00000000000E+00 -0.35623474142E+03  0.35623474142E+03  0.00000000000E+00 0. -1.
         25    1    1    2    0    0 -0.14174410499E+02 -0.42831240663E+02 -0.47050141247E+02  0.14097568897E+03  0.12500000000E+03 0.  0.
          2    1    1    2  502    0  0.37896242643E+02  0.41133891603E+01 -0.25962319182E+03  0.26240664418E+03  0.00000000000E+00 0. -1.
         -2    1    1    2    0  501 -0.23721832144E+02  0.38717851503E+02  0.42587552372E+03  0.42828934034E+03  0.00000000000E+00 0.  1.
<mgrwt>
<rscale>  0 0.41509902E+02</rscale>
<asrwt>0</asrwt>
<pdfrwt beam="2">  1        1 0.54805345E-01 0.38118830E+02</pdfrwt>
<pdfrwt beam="1">  1       -1 0.73144144E-01 0.45202647E+02</pdfrwt>
<totfact> 0.14786879E+02</totfact>
</mgrwt>
</event>
<event>
 5    1  0.8459321E-003  0.8165228E+02  0.7546771E-02  0.1440993E+00
          2   -1    0    0  502    0  0.00000000000E+00  0.00000000000E+00  0.23594167123E+03  0.23594167123E+03  0.00000000000E+00 0. -1.
          1   -1    0    0  501    0 -0.00000000000E+00 -0.00000000000E+00 -0.40645219413E+03  0.40645219413E+03  0.00000000000E+00 0. -1.
         25    1    1    2    0    0 -0.10213132009E+02  0.84421700149E+02 -0.71997597866E+02  0.16745144257E+03  0.12500000000E+03 0.  0.
          2    1    1    2  501    0  0.31171529964E+02 -0.53319768015E+01 -0.27689289050E+03  0.27869296199E+03  0.00000000000E+00 0. -1.
          1    1    1    2  502    0 -0.20958397954E+02 -0.79089723347E+02  0.17837996547E+03  0.19624946080E+03  0.00000000000E+00 0. -1.
<mgrwt>
<rscale>  0 0.50815288E+02</rscale>
<asrwt>0</asrwt>
<pdfrwt beam="1">  1        2 0.36298719E-01 0.81652280E+02</pdfrwt>
<pdfrwt beam="2">  1        1 0.62531106E-01 0.31624267E+02</pdfrwt>
<totfact> 0.11581245E+03</totfact>
</mgrwt>
</event>
<event>
 5    1  0.8459321E-003  0.1131242E+03  0.7546771E-02  0.1378118E+00
          2   -1    0    0  502    0  0.00000000000E+00  0.00000000000E+00  0.16781358893E+03  0.16781358893E+03  0.00000000000E+00 0. -1.
          1   -1    0    0  501    0 -0.00000000000E+00 -0.00000000000E+00 -0.13788581641E+04  0.13788581641E+04  0.00000000000E+00 0. -1.
         25    1    1    2    0    0  0.71036117971E+02 -0.13015207515E+03  0.84821803675E+02  0.21167293427E+03  0.12500000000E+03 0.  0.
          2    1    1    2  501    0 -0.45526440968E+02  0.10293418166E+03 -0.12926676069E+04  0.12975583395E+04  0.00000000000E+00 0. -1.
          3    1    1    2  502    0 -0.25509677003E+02  0.27217893485E+02 -0.31987720041E+01  0.37440479283E+02  0.00000000000E+00 0. -1.
<mgrwt>
<rscale>  0 0.64961055E+02</rscale>
<asrwt>0</asrwt>
<pdfrwt beam="1">  1        2 0.25817474E-01 0.37303584E+02</pdfrwt>
<pdfrwt beam="2">  1        1 0.21213203E+00 0.11312422E+03</pdfrwt>
<totfact> 0.24824983E+02</totfact>
</mgrwt>
</event>
<event>
 5    1  0.8459321E-003  0.1113783E+03  0.7546771E-02  0.1320717E+00
          2   -1    0    0  502    0  0.00000000000E+00  0.00000000000E+00  0.21432479715E+04  0.21432479715E+04  0.00000000000E+00 0. -1.
          1   -1    0    0  501    0 -0.00000000000E+00 -0.00000000000E+00 -0.20451144254E+03  0.20451144254E+03  0.00000000000E+00 0. -1.
         25    1    1    2    0    0  0.14079697759E+02 -0.11685827414E+03  0.80782348215E+03  0.82586795097E+03  0.12500000000E+03 0.  0.
          2    1    1    2  501    0 -0.68746318719E+02  0.87887330683E+02 -0.17877735455E+03  0.21074055550E+03  0.00000000000E+00 0. -1.
          1    1    1    2  502    0  0.54666620961E+02  0.28970943459E+02  0.13096904013E+04  0.13111509075E+04  0.00000000000E+00 0. -1.
<mgrwt>
<rscale>  0 0.83011146E+02</rscale>
<asrwt>0</asrwt>
<pdfrwt beam="1">  1        2 0.32973044E+00 0.61868853E+02</pdfrwt>
<pdfrwt beam="2">  1        1 0.31463300E-01 0.11137834E+03</pdfrwt>
<totfact> 0.14205816E+02</totfact>
</mgrwt>
</event>
<event>
 5    1  0.8459321E-003  0.4342460E+03  0.7546771E-02  0.1212049E+00
          2   -1    0    0  502    0  0.00000000000E+00  0.00000000000E+00  0.99828606356E+03  0.99828606356E+03  0.00000000000E+00 0. -1.
          1   -1    0    0  501    0 -0.00000000000E+00 -0.00000000000E+00 -0.93857538674E+03  0.93857538674E+03  0.00000000000E+00 0. -1.
         25    1    1    2    0    0  0.12348548811E+03 -0.37884990374E+03  0.56214912434E+03  0.70029461895E+03  0.12500000000E+03 0.  0.
          2    1    1    2  501    0 -0.15922772651E+03  0.40741373367E+03 -0.81270453641E+03  0.92294533032E+03  0.00000000000E+00 0. -1.
          1    1    1    2  502    0  0.35742238405E+02 -0.28563829926E+02  0.31026608889E+03  0.31362150102E+03  0.00000000000E+00 0. -1.
<mgrwt>
<rscale>  0 0.14095516E+03</rscale>
<asrwt>0</asrwt>
<pdfrwt beam="1">  1        2 0.15358247E+00 0.45753688E+02</pdfrwt>
<pdfrwt beam="2">  1        1 0.14439621E+00 0.43424603E+03</pdfrwt>
<totfact> 0.68841295E+01</totfact>
</mgrwt>
</event>
<event>
 5    1  0.8459321E-003  0.4722543E+02  0.7546771E-02  0.1573310E+00
          2   -1    0    0  502    0  0.00000000000E+00  0.00000000000E+00  0.26732949133E+03  0.26732949133E+03  0.00000000000E+00 0. -1.
         -2   -1    0    0    0  501 -0.00000000000E+00 -0.00000000000E+00 -0.66825594648E+03  0.66825594648E+03  0.00000000000E+00 0.  1.
         25    1    1    2    0    0 -0.43231332887E+02  0.16969877943E+02 -0.24749828848E+03  0.28113578161E+03  0.12500000000E+03 0.  0.
          3    1    1    2  502    0  0.11724380259E+02  0.18831591948E+02  0.24860749725E+03  0.24959522759E+03  0.00000000000E+00 0. -1.
         -1    1    1    2    0  501  0.31506952629E+02 -0.35801469891E+02 -0.40203566392E+03  0.40485442862E+03  0.00000000000E+00 0.  1.
<mgrwt>
<rscale>  0 0.32366750E+02</rscale>
<asrwt>0</asrwt>
<pdfrwt beam="1">  1        2 0.41127614E-01 0.22183100E+02</pdfrwt>
<pdfrwt beam="2">  1       -2 0.10280861E+00 0.47225433E+02</pdfrwt>
<totfact> 0.10201592E+02</totfact>
</mgrwt>
</event>
<event>
 5    1  0.8459321E-003  0.7660528E+02  0.7546771E-02  0.1389647E+00
          1   -1    0    0  502    0  0.00000000000E+00  0.00000000000E+00  0.23000396716E+04  0.23000396716E+04  0.00000000000E+00 0. -1.
         -1   -1    0    0    0  501 -0.00000000000E+00 -0.00000000000E+00 -0.14325803762E+02  0.14325803762E+02  0.00000000000E+00 0.  1.
         25    1    1    2    0    0  0.79711643532E+02 -0.33745032119E+02  0.11990072242E+04  0.12086091167E+04  0.12500000000E+03 0.  0.
          2    1    1    2  502    0 -0.40872327369E+02  0.65503530124E+02  0.10167051337E+04  0.10196325752E+04  0.00000000000E+00 0. -1.
         -2    1    1    2    0  501 -0.38839316162E+02 -0.31758498005E+02  0.70001509944E+02  0.86123783416E+02  0.00000000000E+00 0.  1.
<mgrwt>
<rscale>  0 0.61994653E+02</rscale>
<asrwt>0</asrwt>
<pdfrwt beam="1">  1        1 0.35385196E+00 0.76605279E+02</pdfrwt>
<pdfrwt beam="2">  1       -1 0.22039716E-02 0.50170656E+02</pdfrwt>
<totfact> 0.12260512E+03</totfact>
</mgrwt>
</event>
<event>
 5    1  0.8459321E-003  0.7555351E+02  0.7546771E-02  0.1425539E+00
          1   -1    0    0  501    0 -0.00000000000E+00  0.00000000000E+00  0.37794949387E+02  0.37794949387E+02  0.00000000000E+00 0. -1.
          2   -1    0    0  502    0  0.00000000000E+00 -0.00000000000E+00 -0.21497751330E+04  0.21497751330E+04  0.00000000000E+00 0. -1.
         25    1    1    2    0    0  0.28923454389E+02  0.46455083886E+02 -0.16798802949E+03  0.21642462680E+03  0.12500000000E+03 0.  0.
          2    1    1    2  501    0 -0.49506265056E+02 -0.78877477983E+02 -0.14877704380E+03  0.17551961593E+03  0.00000000000E+00 0. -1.
          1    1    1    2  502    0  0.20582810667E+02  0.32422394097E+02 -0.17952151104E+04  0.17956258397E+04  0.00000000000E+00 0. -1.
<mgrwt>
<rscale>  0 0.53866072E+02</rscale>
<asrwt>0</asrwt>
<pdfrwt beam="2">  1        2 0.33073457E+00 0.38403955E+02</pdfrwt>
<pdfrwt beam="1">  1        1 0.58146088E-02 0.75553512E+02</pdfrwt>
<totfact> 0.12883156E+03</totfact>
</mgrwt>
</event>
<event>
 5    1  0.8459321E-003  0.1018083E+03  0.7546771E-02  0.1467940E+00
          1   -1    0    0  501    0 -0.00000000000E+00  0.00000000000E+00  0.11668074787E+04  0.11668074787E+04  0.00000000000E+00 0. -1.
          2   -1    0    0  502    0  0.00000000000E+00 -0.00000000000E+00 -0.42487749616E+03  0.42487749616E+03  0.00000000000E+00 0. -1.
         25    1    1    2    0    0 -0.63670861113E+02  0.81104679559E+02 -0.31277740135E+01  0.16207014090E+03  0.12500000000E+03 0.  0.
          2    1    1    2  501    0  0.18227259875E+02  0.10066015054E+02  0.10796541769E+04  0.10798549436E+04  0.00000000000E+00 0. -1.
          1    1    1    2  502    0  0.45443601238E+02 -0.91170694613E+02 -0.33459642027E+03  0.34975989037E+03  0.00000000000E+00 0. -1.
<mgrwt>
<rscale>  0 0.46041908E+02</rscale>
<asrwt>0</asrwt>
<pdfrwt beam="2">  1        2 0.65365769E-01 0.10180830E+03</pdfrwt>
<pdfrwt beam="1">  1        1 0.17950884E+00 0.20822047E+02</pdfrwt>
<totfact> 0.15237433E+02</totfact>
</mgrwt>
</event>
<event>
 5    1  0.8459321E-003  0.5384725E+02  0.7546771E-02  0.1431609E+00
          1   -1    0    0  501    0 -0.00000000000E+00  0.00000000000E+00  0.58497101398E+02  0.58497101398E+02  0.00000000000E+00 0. -1.
          2   -1    0    0  502    0  0.00000000000E+00 -0.00000000000E+00 -0.79572583285E+03  0.79572583285E+03  0.00000000000E+00 0. -1.
         25    1    1    2    0    0 -0.18929168870E+02  0.25366689659E+02 -0.21921336231E+03  0.25432514739E+03  0.12500000000E+03 0.  0.
          2    1    1    2  501    0  0.50200832019E+02  0.19478276048E+02  0.21234989267E+02  0.57883085114E+02  0.00000000000E+00 0. -1.
          1    1    1    2  502    0 -0.31271663148E+02 -0.44844965707E+02 -0.53925035841E+03  0.54201470174E+03  0.00000000000E+00 0. -1.
<mgrwt>
<rscale>  0 0.52638350E+02</rscale>
<asrwt>0</asrwt>
<pdfrwt beam="2">  1        2 0.12241935E+00 0.51456587E+02</pdfrwt>
<pdfrwt beam="1">  1        1 0.89995547E-02 0.53847254E+02</pdfrwt>
<totfact> 0.34264283E+03</totfact>
</mgrwt>
</event>
<event>
 5    1  0.8459321E-003  0.7813432E+02  0.7546771E-02  0.1419503E+00
          2   -1    0    0  502    0  0.00000000000E+00  0.00000000000E+00  0.12014565283E+04  0.12014565283E+04  0.00000000000E+00 0. -1.
          1   -1    0    0  501    0 -0.00000000000E+00 -0.00000000000E+00 -0.21273332801E+03  0.21273332801E+03  0.00000000000E+00 0. -1.
         25    1    1    2    0    0  0.12006696752E+02 -0.57833550935E+02  0.49048786010E+02  0.14669582063E+03  0.12500000000E+03 0.  0.
          2    1    1    2  501    0 -0.34608219816E+02 -0.17746753115E+02 -0.16016982274E+03  0.16482429506E+03  0.00000000000E+00 0. -1.
          1    1    1    2  502    0  0.22601523065E+02  0.75580304050E+02  0.10998442370E+04  0.11026697406E+04  0.00000000000E+00 0. -1.
<mgrwt>
<rscale>  0 0.55126119E+02</rscale>
<asrwt>0</asrwt>
<pdfrwt beam="1">  1        2 0.18483946E+00 0.78134324E+02</pdfrwt>
<pdfrwt beam="2">  1        1 0.32728205E-01 0.38893137E+02</pdfrwt>
<totfact> 0.38705424E+02</totfact>
</mgrwt>
</event>
<event>
 5    1  0.8459321E-003  0.6374408E+02  0.7546771E-02  0.1436360E+00
          2   -1    0    0  502    0  0.00000000000E+00  0.00000000000E+00  0.26306924341E+04  0.26306924341E+04  0.00000000000E+00 0. -1.
         -2   -1    0    0    0  501 -0.00000000000E+00 -0.00000000000E+00 -0.27537858798E+02  0.27537858798E+02  0.00000000000E+00 0.  1.
         25    1    1    2    0    0  0.84210353426E+02 -0.57419765104E+02  0.11422673201E+04  0.11535978692E+04  0.12500000000E+03 0.  0.
          1    1    1    2  502    0 -0.27466952001E+02  0.31692244015E+02  0.14374574571E+04  0.14380691126E+04  0.00000000000E+00 0. -1.
         -1    1    1    2    0  501 -0.56743401425E+02  0.25727521089E+02  0.23429798056E+02  0.66563311092E+02  0.00000000000E+00 0.  1.
<mgrwt>
<rscale>  0 0.51704222E+02</rscale>
<asrwt>0</asrwt>
<pdfrwt beam="1">  1        2 0.40472171E+00 0.41938428E+02</pdfrwt>
<pdfrwt beam="2">  1       -2 0.42365957E-02 0.63744080E+02</pdfrwt>
<totfact> 0.97071905E+02</totfact>
</mgrwt>
</event>
<event>
 5    1  0.8459321E-003  0.3655364E+02  0.7546771E-02  0.1597937E+00
          2   -1    0    0  502    0  0.00000000000E+00  0.00000000000E+00  0.89743209305E+03  0.89743209305E+03  0.00000000000E+00 0. -1.
          1   -1    0    0  501    0 -0.00000000000E+00 -0.00000000000E+00 -0.34371508721E+03  0.34371508721E+03  0.00000000000E+00 0. -1.
         25    1    1    2    0    0 -0.21291817420E+02 -0.42493816956E+02  0.53802278702E+03  0.55439389004E+03  0.12500000000E+03 0.  0.
          2    1    1    2  501    0 -0.26001981846E+01  0.36453121964E+02 -0.33409959421E+03  0.33609244262E+03  0.00000000000E+00 0. -1.
          1    1    1    2  502    0  0.23892015605E+02  0.60406949916E+01  0.34979381303E+03  0.35066084760E+03  0.00000000000E+00 0. -1.
<mgrwt>
<rscale>  0 0.30013694E+02</rscale>
<asrwt>0</asrwt>
<pdfrwt beam="1">  1        2 0.13806648E+00 0.24643831E+02</pdfrwt>
<pdfrwt beam="2">  1        1 0.52879244E-01 0.36553643E+02</pdfrwt>
<totfact> 0.34520290E+02</totfact>
</mgrwt>
</event>
<event>
 5    1  0.1172273E-002  0.6518067E+02  0.7546771E-02  0.1401008E+00
          2   -1    0    0  502    0  0.00000000000E+00  0.00000000000E+00  0.13368777693E+04  0.13368777693E+04  0.00000000000E+00 0. -1.
          1   -1    0    0  501    0 -0.00000000000E+00 -0.00000000000E+00 -0.86996784999E+03  0.86996784999E+03  0.00000000000E+00 0. -1.
         25    1    1    2    0    0  0.15166264052E+02 -0.33846613111E+02 -0.46645689183E+03  0.48433732121E+03  0.12500000000E+03 0.  0.
          2    1    1    2  501    0 -0.68297431505E+02  0.42666549963E+02 -0.38990836137E+03  0.39813754395E+03  0.00000000000E+00 0. -1.
          1    1    1    2  502    0  0.53131167453E+02 -0.88199368522E+01  0.13232751725E+04  0.13243707541E+04  0.00000000000E+00 0. -1.
<mgrwt>
<rscale>  0 0.59249623E+02</rscale>
<asrwt>0</asrwt>
<pdfrwt beam="1">  1        2 0.20567350E+00 0.53858261E+02</pdfrwt>
<pdfrwt beam="2">  1        1 0.13384121E+00 0.65180675E+02</pdfrwt>
<totfact> 0.56336723E+01</totfact>
</mgrwt>
</event>
<event>
 5    1  0.8459321E-003  0.5542164E+02  0.7546771E-02  0.1433390E+00
         -1   -1    0    0    0  501 -0.00000000000E+00  0.00000000000E+00  0.13906519885E+02  0.13906519885E+02  0.00000000000E+00 0.  1.
          1   -1    0    0  502    0  0.00000000000E+00 -0.00000000000E+00 -0.22815822553E+04  0.22815822553E+04  0.00000000000E+00 0. -1.
         25    1    1    2    0    0  0.41438968746E+02 -0.16477671487E+02 -0.76344707093E+03  0.77489685242E+03  0.12500000000E+03 0.  0.
          2    1    1    2  502    0 -0.13193857136E+02  0.56917152265E+02 -0.14316268047E+04  0.14328185329E+04  0.00000000000E+00 0. -1.
         -2    1    1    2    0  501 -0.28245111610E+02 -0.40439480778E+02 -0.72601859789E+02  0.87773389933E+02  0.00000000000E+00 0.  1.
<mgrwt>
<rscale>  0 0.52285514E+02</rscale>
<asrwt>0</asrwt>
<pdfrwt beam="2">  1        1 0.35101271E+00 0.55421644E+02</pdfrwt>
<pdfrwt beam="1">  1       -1 0.21394643E-02 0.49326848E+02</pdfrwt>
<totfact> 0.13728882E+03</totfact>
</mgrwt>
</event>
<event>
 5    1  0.8459321E-003  0.1183397E+03  0.7546771E-02  0.1256204E+00
          1   -1    0    0  501    0 -0.00000000000E+00  0.00000000000E+00  0.17498653354E+03  0.17498653354E+03  0.00000000000E+00 0. -1.
          2   -1    0    0  502    0  0.00000000000E+00 -0.00000000000E+00 -0.62888941738E+03  0.62888941738E+03  0.00000000000E+00 0. -1.
         25    1    1    2    0    0 -0.11956509216E+03 -0.12610040022E+03 -0.10623251051E+03  0.23897168972E+03  0.12500000000E+03 0.  0.
          2    1    1    2  501    0  0.11146422540E+03  0.19665497627E+02  0.70485871173E+02  0.13333890421E+03  0.00000000000E+00 0. -1.
          1    1    1    2  502    0  0.81008667551E+01  0.10643490259E+03 -0.41815624450E+03  0.43156535699E+03  0.00000000000E+00 0. -1.
<mgrwt>
<rscale>  0 0.11239176E+03</rscale>
<asrwt>0</asrwt>
<pdfrwt beam="2">  1        2 0.96752219E-01 0.10674274E+03</pdfrwt>
<pdfrwt beam="1">  1        1 0.26921005E-01 0.11833974E+03</pdfrwt>
<totfact> 0.11368430E+03</totfact>
</mgrwt>
</event>
<event>
 5    1  0.8459321E-003  0.9185329E+02  0.7546771E-02  0.1423974E+00
          2   -1    0    0  502    0  0.00000000000E+00  0.00000000000E+00  0.13348850485E+04  0.13348850485E+04  0.00000000000E+00 0. -1.
         -2   -1    0    0    0  501 -0.00000000000E+00 -0.00000000000E+00 -0.35655435056E+02  0.35655435056E+02  0.00000000000E+00 0.  1.
         25    1    1    2    0    0  0.85292665850E+01 -0.11610753257E+03  0.35972110489E+03  0.39821850888E+03  0.12500000000E+03 0.  0.
          1    1    1    2  502    0 -0.54081614555E+01  0.31507962386E+02  0.84435592176E+03  0.84496089999E+03  0.00000000000E+00 0. -1.
         -1    1    1    2    0  501 -0.31211051296E+01  0.84599570188E+02  0.95152586819E+02  0.12736107471E+03  0.00000000000E+00 0.  1.
<mgrwt>
<rscale>  0 0.54188866E+02</rscale>
<asrwt>0</asrwt>
<pdfrwt beam="1">  1        2 0.20536689E+00 0.31968733E+02</pdfrwt>
<pdfrwt beam="2">  1       -2 0.54854526E-02 0.91853286E+02</pdfrwt>
<totfact> 0.30460995E+03</totfact>
</mgrwt>
</event>
<event>
 5    1  0.8459321E-003  0.1406108E+03  0.7546771E-02  0.1237033E+00
          2   -1    0    0  502    0  0.00000000000E+00  0.00000000000E+00  0.10594827765E+04  0.10594827765E+04  0.00000000000E+00 0. -1.
          1   -1    0    0  501    0 -0.00000000000E+00 -0.00000000000E+00 -0.37306666591E+03  0.37306666591E+03  0.00000000000E+00 0. -1.
         25    1    1    2    0    0  0.18154406725E+03  0.69760909709E+02 -0.48594544625E+02  0.23624407430E+03  0.12500000000E+03 0.  0.
          2    1    1    2  501    0 -0.79608739626E+02 -0.10812070495E+03 -0.20770245439E+03  0.24732154743E+03  0.00000000000E+00 0. -1.
          1    1    1    2  502    0 -0.10193532762E+03  0.38359795239E+02  0.94271310964E+03  0.94898382072E+03  0.00000000000E+00 0. -1.
<mgrwt>
<rscale>  0 0.12375178E+03</rscale>
<asrwt>0</asrwt>
<pdfrwt beam="1">  1        2 0.16299735E+00 0.10891412E+03</pdfrwt>
<pdfrwt beam="2">  1        1 0.57394872E-01 0.14061082E+03</pdfrwt>
<totfact> 0.23167966E+02</totfact>
</mgrwt>
</event>
<event>
 5    1  0.8459321E-003  0.2673514E+02  0.7546771E-02  0.1677333E+00
          1   -1    0    0  501    0 -0.00000000000E+00  0.00000000000E+00  0.19989310883E+04  0.19989310883E+04  0.00000000000E+00 0. -1.
          2   -1    0    0  502    0  0.00000000000E+00 -0.00000000000E+00 -0.10868516414E+03  0.10868516414E+03  0.00000000000E+00 0. -1.
         25    1    1    2    0    0 -0.39427190832E+02  0.50777255469E+01  0.12979749841E+04  0.13045858906E+04  0.12500000000E+03 0.  0.
          2    1    1    2  501    0  0.24175649016E+02  0.98830886311E+01  0.69632047231E+03  0.69681011589E+03  0.00000000000E+00 0. -1.
          1    1    1    2  502    0  0.15251541816E+02 -0.14960814178E+02 -0.10404953223E+03  0.10622024594E+03  0.00000000000E+00 0. -1.
<mgrwt>
<rscale>  0 0.23899351E+02</rscale>
<asrwt>0</asrwt>
<pdfrwt beam="2">  1        2 0.16720796E-01 0.21364351E+02</pdfrwt>
<pdfrwt beam="1">  1        1 0.30752783E+00 0.26735143E+02</pdfrwt>
<totfact> 0.18661168E+02</totfact>
</mgrwt>
</event>
<event>
 5    1  0.8459321E-003  0.1062039E+03  0.7546771E-02  0.1307002E+00
          2   -1    0    0  502    0  0.00000000000E+00  0.00000000000E+00  0.32410369389E+04  0.32410369389E+04  0.00000000000E+00 0. -1.
          1   -1    0    0  501    0 -0.00000000000E+00 -0.00000000000E+00 -0.14338493073E+03  0.14338493073E+03  0.00000000000E+00 0. -1.
         25    1    1    2    0    0 -0.19604237481E+02  0.40536486856E+02  0.97301478153E+02  0.16468184643E+03  0.12500000000E+03 0.  0.
          2    1    1    2  501    0 -0.71131643643E+02  0.18217751897E+02 -0.96357404470E+02  0.12114597231E+03  0.00000000000E+00 0. -1.
          1    1    1    2  502    0  0.90735881123E+02 -0.58754238753E+02  0.30967079345E+04  0.30985940509E+04  0.00000000000E+00 0. -1.
<mgrwt>
<rscale>  0 0.88307916E+02</rscale>
<asrwt>0</asrwt>
<pdfrwt beam="1">  1        2 0.49862101E+00 0.10620392E+03</pdfrwt>
<pdfrwt beam="2">  1        1 0.22059223E-01 0.73427496E+02</pdfrwt>
<totfact> 0.51265759E+01</totfact>
</mgrwt>
</event>
<event>
 5    1  0.8459321E-003  0.6214501E+02  0.7546771E-02  0.1467586E+00
          2   -1    0    0  502    0  0.00000000000E+00  0.00000000000E+00  0.24063974712E+03  0.24063974712E+03  0.00000000000E+00 0. -1.
          1   -1    0    0  501    0 -0.00000000000E+00 -0.00000000000E+00 -0.14207186135E+03  0.14207186135E+03  0.00000000000E+00 0. -1.
         25    1    1    2    0    0  0.51739212902E+02 -0.17845178733E+02 -0.47010352741E+02  0.14432730102E+03  0.12500000000E+03 0.  0.
          2    1    1    2  501    0 -0.45770502714E+02  0.51518564587E+02 -0.18035542890E+02  0.71234698169E+02  0.00000000000E+00 0. -1.
          1    1    1    2  502    0 -0.59687101877E+01 -0.33673385854E+02  0.16361378140E+03  0.16714960927E+03  0.00000000000E+00 0. -1.
<mgrwt>
<rscale>  0 0.46100461E+02</rscale>
<asrwt>0</asrwt>
<pdfrwt beam="1">  1        2 0.37021500E-01 0.34198281E+02</pdfrwt>
<pdfrwt beam="2">  1        1 0.21857209E-01 0.62145009E+02</pdfrwt>
<totfact> 0.39598110E+03</totfact>
</mgrwt>
</event>
<event>
 5    1  0.8459321E-003  0.1031435E+03  0.7546771E-02  0.1336690E+00
          2   -1    0    0  502    0  0.00000000000E+00  0.00000000000E+00  0.44857748129E+03  0.44857748129E+03  0.00000000000E+00 0. -1.
          1   -1    0    0  501    0 -0.00000000000E+00 -0.00000000000E+00 -0.15113079626E+03  0.15113079626E+03  0.00000000000E+00 0. -1.
         25    1    1    2    0    0 -0.57060180427E+02 -0.14024096866E+03  0.73364378835E+02  0.20959657813E+03  0.12500000000E+03 0.  0.
          2    1    1    2  501    0  0.37105362568E+02  0.44622787170E+02 -0.63718908560E+02  0.86186428016E+02  0.00000000000E+00 0. -1.
          1    1    1    2  502    0  0.19954817859E+02  0.95618181491E+02  0.28780121475E+03  0.30392527140E+03  0.00000000000E+00 0. -1.
<mgrwt>
<rscale>  0 0.77368475E+02</rscale>
<asrwt>0</asrwt>
<pdfrwt beam="1">  1        2 0.69011919E-01 0.10314352E+03</pdfrwt>
<pdfrwt beam="2">  1        1 0.23250892E-01 0.58034482E+02</pdfrwt>
<totfact> 0.19394864E+03</totfact>
</mgrwt>
</event>
<event>
 5    1  0.8459321E-003  0.3560782E+02  0.7546771E-02  0.1564621E+00
         -1   -1    0    0    0  501 -0.00000000000E+00  0.00000000000E+00  0.53077521034E+02  0.53077521034E+02  0.00000000000E+00 0.  1.
          1   -1    0    0  502    0  0.00000000000E+00 -0.00000000000E+00 -0.10793762850E+04  0.10793762850E+04  0.00000000000E+00 0. -1.
         25    1    1    2    0    0  0.31922473262E+02  0.39389517902E+02 -0.24385625462E+03  0.27867804244E+03  0.12500000000E+03 0.  0.
          2    1    1    2  502    0  0.24930070435E+01 -0.30966279268E+02 -0.80893742139E+03  0.80953374065E+03  0.00000000000E+00 0. -1.
         -2    1    1    2    0  501 -0.34415480306E+02 -0.84232386347E+01  0.26494912014E+02  0.44242022969E+02  0.00000000000E+00 0.  1.
<mgrwt>
<rscale>  0 0.33259724E+02</rscale>
<asrwt>0</asrwt>
<pdfrwt beam="2">  1        1 0.16605788E+00 0.31066470E+02</pdfrwt>
<pdfrwt beam="1">  1       -1 0.81657730E-02 0.35607820E+02</pdfrwt>
<totfact> 0.11650975E+03</totfact>
</mgrwt>
</event>
<event>
 5    1  0.8459321E-003  0.1075149E+03  0.7546771E-02  0.1341795E+00
          2   -1    0    0  502    0  0.00000000000E+00  0.00000000000E+00  0.81329976821E+02  0.81329976821E+02  0.00000000000E+00 0. -1.
          1   -1    0    0  501    0 -0.00000000000E+00 -0.00000000000E+00 -0.57921541072E+03  0.57921541072E+03  0.00000000000E+00 0. -1.
         25    1    1    2    0    0 -0.11090544706E+01 -0.74358036654E+01 -0.30379900837E+03  0.32859604176E+03  0.12500000000E+03 0.  0.
          2    1    1    2  501    0 -0.79906981357E+02  0.78117240719E+02 -0.19463489642E+03  0.22443300085E+03  0.00000000000E+00 0. -1.
          1    1    1    2  502    0  0.81016035827E+02 -0.70681437054E+02  0.54847089131E+00  0.10751634492E+03  0.00000000000E+00 0. -1.
<mgrwt>
<rscale>  0 0.75674479E+02</rscale>
<asrwt>0</asrwt>
<pdfrwt beam="1">  1        2 0.12512305E-01 0.10751495E+03</pdfrwt>
<pdfrwt beam="2">  1        1 0.89110059E-01 0.53263542E+02</pdfrwt>
<totfact> 0.24423603E+03</totfact>
</mgrwt>
</event>
<event>
 5    1  0.8459321E-003  0.8621649E+02  0.7546771E-02  0.1386841E+00
          1   -1    0    0  501    0 -0.00000000000E+00  0.00000000000E+00  0.56774119527E+03  0.56774119527E+03  0.00000000000E+00 0. -1.
          2   -1    0    0  502    0  0.00000000000E+00 -0.00000000000E+00 -0.19552505385E+03  0.19552505385E+03  0.00000000000E+00 0. -1.
         25    1    1    2    0    0 -0.43271034235E+02 -0.10744415393E+03  0.36912630969E+03  0.40656593700E+03  0.12500000000E+03 0.  0.
          2    1    1    2  501    0  0.39984008256E+02  0.21917148128E+02  0.16628454914E+03  0.17242283370E+03  0.00000000000E+00 0. -1.
          1    1    1    2  502    0  0.32870259787E+01  0.85527005804E+02 -0.16319471742E+03  0.18427747842E+03  0.00000000000E+00 0. -1.
<mgrwt>
<rscale>  0 0.62699358E+02</rscale>
<asrwt>0</asrwt>
<pdfrwt beam="2">  1        2 0.30080778E-01 0.86216492E+02</pdfrwt>
<pdfrwt beam="1">  1        1 0.87344799E-01 0.45596955E+02</pdfrwt>
<totfact> 0.93113842E+02</totfact>
</mgrwt>
</event>
<event>
 5    1  0.8459321E-003  0.1059946E+03  0.7546771E-02  0.1341709E+00
          1   -1    0    0  502    0  0.00000000000E+00  0.00000000000E+00  0.14129943555E+04  0.14129943555E+04  0.00000000000E+00 0. -1.
         -1   -1    0    0    0  501 -0.00000000000E+00 -0.00000000000E+00 -0.53010106262E+02  0.53010106262E+02  0.00000000000E+00 0.  1.
         25    1    1    2    0    0  0.11487177487E+03  0.22175756022E+02  0.36132305894E+03  0.39983326742E+03  0.12500000000E+03 0.  0.
          2    1    1    2  502    0 -0.13345590575E+02 -0.52394804431E+02  0.94659668203E+03  0.94813954603E+03  0.00000000000E+00 0. -1.
         -2    1    1    2    0  501 -0.10152618429E+03  0.30219048409E+02  0.52064508290E+02  0.11803164833E+03  0.00000000000E+00 0.  1.
<mgrwt>
<rscale>  0 0.75702624E+02</rscale>
<asrwt>0</asrwt>
<pdfrwt beam="1">  1        1 0.21738372E+00 0.54067738E+02</pdfrwt>
<pdfrwt beam="2">  1       -1 0.81554020E-02 0.10599458E+03</pdfrwt>
<totfact> 0.74420271E+02</totfact>
</mgrwt>
</event>
<event>
 5    1  0.8459321E-003  0.6624520E+02  0.7546771E-02  0.1463623E+00
          2   -1    0    0  502    0  0.00000000000E+00  0.00000000000E+00  0.19013157391E+04  0.19013157391E+04  0.00000000000E+00 0. -1.
         -2   -1    0    0    0  501 -0.00000000000E+00 -0.00000000000E+00 -0.14210739243E+03  0.14210739243E+03  0.00000000000E+00 0.  1.
         25    1    1    2    0    0  0.12724121507E+02  0.41714517106E+02  0.10026555855E+04  0.10113581103E+04  0.12500000000E+03 0.  0.
          1    1    1    2  502    0  0.32202982329E+02  0.72593799609E+01  0.88596780155E+03  0.88658258276E+03  0.00000000000E+00 0. -1.
         -1    1    1    2    0  501 -0.44927103836E+02 -0.48973897067E+02 -0.12941504031E+03  0.14548243850E+03  0.00000000000E+00 0.  1.
<mgrwt>
<rscale>  0 0.46763498E+02</rscale>
<asrwt>0</asrwt>
<pdfrwt beam="1">  1        2 0.29251009E+00 0.33011069E+02</pdfrwt>
<pdfrwt beam="2">  1       -2 0.21862677E-01 0.66245198E+02</pdfrwt>
<totfact> 0.18124429E+02</totfact>
</mgrwt>
</event>
<event>
 5    1  0.8459321E-003  0.6648503E+02  0.7546771E-02  0.1381495E+00
         -2   -1    0    0    0  501 -0.00000000000E+00  0.00000000000E+00  0.69225648187E+02  0.69225648187E+02  0.00000000000E+00 0.  1.
          2   -1    0    0  502    0  0.00000000000E+00 -0.00000000000E+00 -0.46420475617E+03  0.46420475617E+03  0.00000000000E+00 0. -1.
         25    1    1    2    0    0 -0.19999118395E+02 -0.79331762671E+02 -0.24657512978E+03  0.28830155728E+03  0.12500000000E+03 0.  0.
          1    1    1    2  502    0 -0.39400751546E+02  0.47543091585E+02 -0.16463206429E+03  0.17583083169E+03  0.00000000000E+00 0. -1.
         -1    1    1    2    0  501  0.59399869941E+02  0.31788671086E+02  0.16228086088E+02  0.69298015386E+02  0.00000000000E+00 0.  1.
<mgrwt>
<rscale>  0 0.64072542E+02</rscale>
<asrwt>0</asrwt>
<pdfrwt beam="2">  1        2 0.71416117E-01 0.61747589E+02</pdfrwt>
<pdfrwt beam="1">  1       -2 0.10650100E-01 0.66485035E+02</pdfrwt>
<totfact> 0.37814975E+03</totfact>
</mgrwt>
</event>
<event>
 5    1  0.9287809E-003  0.7031953E+02  0.7546771E-02  0.1398119E+00
          2   -1    0    0  502    0  0.00000000000E+00  0.00000000000E+00  0.23274269864E+04  0.23274269864E+04  0.00000000000E+00 0. -1.
          1   -1    0    0  501    0 -0.00000000000E+00 -0.00000000000E+00 -0.23523877488E+04  0.23523877488E+04  0.00000000000E+00 0. -1.
         25    1    1    2    0    0 -0.18202974226E+02 -0.42052650926E+02 -0.45975497494E+03  0.47864330216E+03  0.12500000000E+03 0.  0.
          2    1    1    2  501    0  0.67388212676E+02  0.28275315998E+02 -0.18821980387E+04  0.18836162352E+04  0.00000000000E+00 0. -1.
          1    1    1    2  502    0 -0.49185238450E+02  0.13777334928E+02  0.23169922513E+04  0.23175551979E+04  0.00000000000E+00 0. -1.
<mgrwt>
<rscale>  0 0.59931703E+02</rscale>
<asrwt>0</asrwt>
<pdfrwt beam="1">  1        2 0.35806569E+00 0.51078397E+02</pdfrwt>
<pdfrwt beam="2">  1        1 0.36190581E+00 0.70319534E+02</pdfrwt>
<totfact> 0.20167030E+00</totfact>
</mgrwt>
</event>
<event>
 5    1  0.8459321E-003  0.1370395E+03  0.7546771E-02  0.1261445E+00
          1   -1    0    0  501    0 -0.00000000000E+00  0.00000000000E+00  0.29941133432E+03  0.29941133432E+03  0.00000000000E+00 0. -1.
          2   -1    0    0  502    0  0.00000000000E+00 -0.00000000000E+00 -0.66916872749E+03  0.66916872749E+03  0.00000000000E+00 0. -1.
         25    1    1    2    0    0  0.86613138452E+02  0.72583084177E+02  0.11546890225E+03  0.20427483263E+03  0.12500000000E+03 0.  0.
          2    1    1    2  501    0  0.52797693180E+02 -0.69826785022E+02  0.11701271275E+03  0.14613470244E+03  0.00000000000E+00 0. -1.
          1    1    1    2  502    0 -0.13941083163E+03 -0.27562991548E+01 -0.60223900818E+03  0.61817052674E+03  0.00000000000E+00 0. -1.
<mgrwt>
<rscale>  0 0.10952870E+03</rscale>
<asrwt>0</asrwt>
<pdfrwt beam="2">  1        2 0.10294904E+00 0.13703951E+03</pdfrwt>
<pdfrwt beam="1">  1        1 0.46063282E-01 0.87540712E+02</pdfrwt>
<totfact> 0.54169007E+02</totfact>
</mgrwt>
</event>
<event>
 5    1  0.8459321E-003  0.1246283E+03  0.7546771E-02  0.1279321E+00
          2   -1    0    0  502    0  0.00000000000E+00  0.00000000000E+00  0.13954842657E+04  0.13954842657E+04  0.00000000000E+00 0. -1.
          1   -1    0    0  501    0 -0.00000000000E+00 -0.00000000000E+00 -0.37783616460E+03  0.37783616460E+03  0.00000000000E+00 0. -1.
         25    1    1    2    0    0 -0.17811747866E+03 -0.71974331386E+02 -0.46276317219E+02  0.23382180847E+03  0.12500000000E+03 0.  0.
          2    1    1    2  501    0  0.55433787250E+02  0.59042034684E+02 -0.22786652987E+03  0.24183056478E+03  0.00000000000E+00 0. -1.
          1    1    1    2  502    0  0.12268369141E+03  0.12932296702E+02  0.12917909482E+04  0.12976680571E+04  0.00000000000E+00 0. -1.
<mgrwt>
<rscale>  0 0.10046518E+03</rscale>
<asrwt>0</asrwt>
<pdfrwt beam="1">  1        2 0.21468988E+00 0.12462831E+03</pdfrwt>
<pdfrwt beam="2">  1        1 0.58128641E-01 0.80986830E+02</pdfrwt>
<totfact> 0.14887957E+02</totfact>
</mgrwt>
</event>
<event>
 5    1  0.8459321E-003  0.8837256E+02  0.7546771E-02  0.1341403E+00
          1   -1    0    0  501    0 -0.00000000000E+00  0.00000000000E+00  0.18464857595E+02  0.18464857595E+02  0.00000000000E+00 0. -1.
          2   -1    0    0  502    0  0.00000000000E+00 -0.00000000000E+00 -0.31683912469E+04  0.31683912469E+04  0.00000000000E+00 0. -1.
         25    1    1    2    0    0  0.12662232067E+03  0.15825384344E+02 -0.11180441220E+04  0.11322240563E+04  0.12500000000E+03 0.  0.
          2    1    1    2  501    0 -0.69763585502E+02 -0.47365866868E+02 -0.15359416638E+03  0.17521886643E+03  0.00000000000E+00 0. -1.
          1    1    1    2  502    0 -0.56858735166E+02  0.31540482524E+02 -0.18782881009E+04  0.18794131818E+04  0.00000000000E+00 0. -1.
<mgrwt>
<rscale>  0 0.75802794E+02</rscale>
<asrwt>0</asrwt>
<pdfrwt beam="2">  1        2 0.48744487E+00 0.65020903E+02</pdfrwt>
<pdfrwt beam="1">  1        1 0.28407470E-02 0.88372559E+02</pdfrwt>
<totfact> 0.92618463E+02</totfact>
</mgrwt>
</event>
<event>
 5    1  0.8459321E-003  0.1271023E+03  0.7546771E-02  0.1350152E+00
          2   -1    0    0  502    0  0.00000000000E+00  0.00000000000E+00  0.56024720059E+03  0.56024720059E+03  0.00000000000E+00 0. -1.
          1   -1    0    0  501    0 -0.00000000000E+00 -0.00000000000E+00 -0.18117890769E+03  0.18117890769E+03  0.00000000000E+00 0. -1.
         25    1    1    2    0    0 -0.93186389920E+02  0.13526516951E+02  0.18985404613E+03  0.24604111193E+03  0.12500000000E+03 0.  0.
          2    1    1    2  501    0  0.12512321785E+03 -0.40705825302E+02 -0.12314983363E+03  0.18021838247E+03  0.00000000000E+00 0. -1.
          1    1    1    2  502    0 -0.31936827927E+02  0.27179308352E+02  0.31236408039E+03  0.31516661387E+03  0.00000000000E+00 0. -1.
<mgrwt>
<rscale>  0 0.73008441E+02</rscale>
<asrwt>0</asrwt>
<pdfrwt beam="1">  1        2 0.86191876E-01 0.41936569E+02</pdfrwt>
<pdfrwt beam="2">  1        1 0.27873678E-01 0.12710226E+03</pdfrwt>
<totfact> 0.12628117E+03</totfact>
</mgrwt>
</event>
<event>
 5    1  0.8459321E-003  0.3058864E+02  0.7546771E-02  0.1661281E+00
          1   -1    0    0  501    0 -0.00000000000E+00  0.00000000000E+00  0.39119518472E+03  0.39119518472E+03  0.00000000000E+00 0. -1.
          2   -1    0    0  502    0  0.00000000000E+00 -0.00000000000E+00 -0.63021383816E+03  0.63021383816E+03  0.00000000000E+00 0. -1.
         25    1    1    2    0    0 -0.32725602355E+02  0.15114310105E+02 -0.17065962184E+03  0.21459057283E+03  0.12500000000E+03 0.  0.
          2    1    1    2  501    0  0.15653668652E+02 -0.26282993059E+02  0.36835754165E+03  0.36962563704E+03  0.00000000000E+00 0. -1.
          1    1    1    2  502    0  0.17071933703E+02  0.11168682954E+02 -0.43671657325E+03  0.43719281301E+03  0.00000000000E+00 0. -1.
<mgrwt>
<rscale>  0 0.24980614E+02</rscale>
<asrwt>0</asrwt>
<pdfrwt beam="2">  1        2 0.96955973E-01 0.20400745E+02</pdfrwt>
<pdfrwt beam="1">  1        1 0.60183876E-01 0.30588640E+02</pdfrwt>
<totfact> 0.44165286E+02</totfact>
</mgrwt>
</event>
<event>
 5    1  0.8459321E-003  0.1310724E+03  0.7546771E-02  0.1327615E+00
          2   -1    0    0  502    0  0.00000000000E+00  0.00000000000E+00  0.28504186565E+02  0.28504186565E+02  0.00000000000E+00 0. -1.
          1   -1    0    0  501    0 -0.00000000000E+00 -0.00000000000E+00 -0.15254605060E+04  0.15254605060E+04  0.00000000000E+00 0. -1.
         25    1    1    2    0    0  0.82655861915E+02  0.12120157213E+03 -0.72429312494E+03  0.74949806099E+03  0.12500000000E+03 0.  0.
          2    1    1    2  501    0  0.19671444999E+02 -0.45369491146E+02 -0.51168156911E+03  0.51406554509E+03  0.00000000000E+00 0. -1.
          1    1    1    2  502    0 -0.10232730691E+03 -0.75832080981E+02 -0.26098162540E+03  0.29040108650E+03  0.00000000000E+00 0. -1.
<mgrwt>
<rscale>  0 0.80508410E+02</rscale>
<asrwt>0</asrwt>
<pdfrwt beam="1">  1        2 0.43852596E-02 0.13107245E+03</pdfrwt>
<pdfrwt beam="2">  1        1 0.23468623E+00 0.49450546E+02</pdfrwt>
<totfact> 0.19380210E+03</totfact>
</mgrwt>
</event>
<event>
 5    1  0.8459321E-003  0.1201508E+03  0.7546771E-02  0.1344199E+00
          2   -1    0    0  502    0  0.00000000000E+00  0.00000000000E+00  0.14934110628E+04  0.14934110628E+04  0.00000000000E+00 0. -1.
          1   -1    0    0  501    0 -0.00000000000E+00 -0.00000000000E+00 -0.84525521924E+02  0.84525521924E+02  0.00000000000E+00 0. -1.
         25    1    1    2    0    0  0.62561693275E+02  0.53537211716E+02  0.29781216570E+03  0.33331259284E+03  0.12500000000E+03 0.  0.
          2    1    1    2  501    0  0.42916538209E+02  0.18373177737E+02 -0.54682147520E+02  0.71899514390E+02  0.00000000000E+00 0. -1.
          1    1    1    2  502    0 -0.10547823148E+03 -0.71910389453E+02  0.11657555227E+04  0.11727244775E+04  0.00000000000E+00 0. -1.
<mgrwt>
<rscale>  0 0.74894115E+02</rscale>
<asrwt>0</asrwt>
<pdfrwt beam="1">  1        2 0.22975553E+00 0.12015079E+03</pdfrwt>
<pdfrwt beam="2">  1        1 0.13003928E-01 0.46684076E+02</pdfrwt>
<totfact> 0.81967747E+02</totfact>
</mgrwt>
</event>
<event>
 5    1  0.8459321E-003  0.2016277E+03  0.7546771E-02  0.1241542E+00
          2   -1    0    0  502    0  0.00000000000E+00  0.00000000000E+00  0.18048260956E+04  0.18048260956E+04  0.00000000000E+00 0. -1.
          1   -1    0    0  501    0 -0.00000000000E+00 -0.00000000000E+00 -0.20612966784E+03  0.20612966784E+03  0.00000000000E+00 0. -1.
         25    1    1    2    0    0  0.17572956421E+03  0.10506890865E+03  0.83357872743E+03  0.86740927487E+03  0.12500000000E+03 0.  0.
          2    1    1    2  501    0 -0.19892166603E+03 -0.36324771854E+02 -0.13330620013E+03  0.24219797947E+03  0.00000000000E+00 0. -1.
          1    1    1    2  502    0  0.23192101824E+02 -0.68744136796E+02  0.89842390046E+03  0.90134850909E+03  0.00000000000E+00 0. -1.
<mgrwt>
<rscale>  0 0.12094736E+03</rscale>
<asrwt>0</asrwt>
<pdfrwt beam="1">  1        2 0.27766554E+00 0.72550878E+02</pdfrwt>
<pdfrwt beam="2">  1        1 0.31712258E-01 0.20162767E+03</pdfrwt>
<totfact> 0.20478206E+02</totfact>
</mgrwt>
</event>
<event>
 5    1  0.8459321E-003  0.4305525E+03  0.7546771E-02  0.1211965E+00
          1   -1    0    0  501    0 -0.00000000000E+00  0.00000000000E+00  0.10705278915E+04  0.10705278915E+04  0.00000000000E+00 0. -1.
          2   -1    0    0  502    0  0.00000000000E+00 -0.00000000000E+00 -0.28798243634E+03  0.28798243634E+03  0.00000000000E+00 0. -1.
         25    1    1    2    0    0  0.40653610530E+03  0.39936079013E+02  0.35323444584E+01  0.42720483702E+03  0.12500000000E+03 0.  0.
          2    1    1    2  501    0 -0.43686759814E+03 -0.51035773653E+01  0.76838798136E+03  0.88391144053E+03  0.00000000000E+00 0. -1.
          1    1    1    2  502    0  0.30331492840E+02 -0.34832501647E+02  0.10625129341E+02  0.47394050285E+02  0.00000000000E+00 0. -1.
<mgrwt>
<rscale>  0 0.14101852E+03</rscale>
<asrwt>0</asrwt>
<pdfrwt beam="2">  1        2 0.44304991E-01 0.46187689E+02</pdfrwt>
<pdfrwt beam="1">  1        1 0.16469660E+00 0.43055246E+03</pdfrwt>
<totfact> 0.21237473E+02</totfact>
</mgrwt>
</event>
<event>
 5    1  0.8459321E-003  0.5424634E+02  0.7546771E-02  0.1464802E+00
          2   -1    0    0  502    0  0.00000000000E+00  0.00000000000E+00  0.62600605503E+03  0.62600605503E+03  0.00000000000E+00 0. -1.
          1   -1    0    0  501    0 -0.00000000000E+00 -0.00000000000E+00 -0.49450306701E+03  0.49450306701E+03  0.00000000000E+00 0. -1.
         25    1    1    2    0    0 -0.65590398956E+02  0.63795073380E+02  0.40686601950E+03  0.43535832328E+03  0.12500000000E+03 0.  0.
          2    1    1    2  501    0  0.45561416434E+02 -0.29203990137E+02 -0.47676199584E+03  0.47982363050E+03  0.00000000000E+00 0. -1.
          1    1    1    2  502    0  0.20028982522E+02 -0.34591083243E+02  0.20139896436E+03  0.20532716826E+03  0.00000000000E+00 0. -1.
<mgrwt>
<rscale>  0 0.46564960E+02</rscale>
<asrwt>0</asrwt>
<pdfrwt beam="1">  1        2 0.96308624E-01 0.39971279E+02</pdfrwt>
<pdfrwt beam="2">  1        1 0.76077395E-01 0.54246337E+02</pdfrwt>
<totfact> 0.32689149E+02</totfact>
</mgrwt>
</event>
<event>
 5    1  0.8459321E-003  0.7224357E+02  0.7546771E-02  0.1465529E+00
         -1   -1    0    0    0  501 -0.00000000000E+00  0.00000000000E+00  0.19399986528E+02  0.19399986528E+02  0.00000000000E+00 0.  1.
          1   -1    0    0  502    0  0.00000000000E+00 -0.00000000000E+00 -0.97898453760E+03  0.97898453760E+03  0.00000000000E+00 0. -1.
         25    1    1    2    0    0  0.83628882285E+02  0.34510312536E+01 -0.44523244297E+03  0.46996024071E+03  0.12500000000E+03 0.  0.
          2    1    1    2  502    0 -0.19743379145E+02  0.22396896207E+02 -0.33434854058E+03  0.33567896652E+03  0.00000000000E+00 0. -1.
         -2    1    1    2    0  501 -0.63885503140E+02 -0.25847927460E+02 -0.18000356752E+03  0.19274531690E+03  0.00000000000E+00 0.  1.
<mgrwt>
<rscale>  0 0.46443018E+02</rscale>
<asrwt>0</asrwt>
<pdfrwt beam="2">  1        1 0.15061295E+00 0.29856691E+02</pdfrwt>
<pdfrwt beam="1">  1       -1 0.29846143E-02 0.72243569E+02</pdfrwt>
<totfact> 0.62906159E+03</totfact>
</mgrwt>
</event>
<event>
 5    1  0.8459321E-003  0.5726663E+02  0.7546771E-02  0.1483063E+00
          1   -1    0    0  501    0 -0.00000000000E+00  0.00000000000E+00  0.20039981399E+04  0.20039981399E+04  0.00000000000E+00 0. -1.
          2   -1    0    0  502    0  0.00000000000E+00 -0.00000000000E+00 -0.36394046780E+03  0.36394046780E+03  0.00000000000E+00 0. -1.
         25    1    1    2    0    0  0.61869521753E+02 -0.25777445622E+02  0.77201875380E+03  0.78493966051E+03  0.12500000000E+03 0.  0.
          2    1    1    2  501    0 -0.50453634428E+01  0.32859478543E+02  0.12229983710E+04  0.12234501283E+04  0.00000000000E+00 0. -1.
          1    1    1    2  502    0 -0.56824158310E+02 -0.70820329212E+01 -0.35495945265E+03  0.35954881891E+03  0.00000000000E+00 0. -1.
<mgrwt>
<rscale>  0 0.43632604E+02</rscale>
<asrwt>0</asrwt>
<pdfrwt beam="2">  1        2 0.55990842E-01 0.57266631E+02</pdfrwt>
<pdfrwt beam="1">  1        1 0.30830740E+00 0.33244564E+02</pdfrwt>
<totfact> 0.53000429E+01</totfact>
</mgrwt>
</event>
<event>
 5    1  0.8459321E-003  0.2828105E+03  0.7546771E-02  0.1182529E+00
          2   -1    0    0  502    0  0.00000000000E+00  0.00000000000E+00  0.15799574161E+04  0.15799574161E+04  0.00000000000E+00 0. -1.
          1   -1    0    0  501    0 -0.00000000000E+00 -0.00000000000E+00 -0.66588990287E+03  0.66588990287E+03  0.00000000000E+00 0. -1.
         25    1    1    2    0    0  0.17379129772E+03  0.28240322135E+03  0.85919164365E+03  0.92940318222E+03  0.12500000000E+03 0.  0.
          2    1    1    2  501    0 -0.85438267949E+02 -0.45828133709E+02 -0.60353047453E+03  0.61126831192E+03  0.00000000000E+00 0. -1.
          1    1    1    2  502    0 -0.88353029768E+02 -0.23657508764E+03  0.65840634414E+03  0.70517582486E+03  0.00000000000E+00 0. -1.
<mgrwt>
<rscale>  0 0.16558795E+03</rscale>
<asrwt>0</asrwt>
<pdfrwt beam="1">  1        2 0.24307037E+00 0.28281046E+03</pdfrwt>
<pdfrwt beam="2">  1        1 0.10244460E+00 0.96953161E+02</pdfrwt>
<totfact> 0.53515155E+01</totfact>
</mgrwt>
</event>
<event>
 5    1  0.8459321E-003  0.2494532E+03  0.7546771E-02  0.1342573E+00
          1   -1    0    0  501    0 -0.00000000000E+00  0.00000000000E+00  0.32299979563E+04  0.32299979563E+04  0.00000000000E+00 0. -1.
          2   -1    0    0  502    0  0.00000000000E+00 -0.00000000000E+00 -0.12036256345E+04  0.12036256345E+04  0.00000000000E+00 0. -1.
         25    1    1    2    0    0  0.46329654989E+00  0.26877943676E+03  0.14320269804E+03  0.32920299664E+03  0.12500000000E+03 0.  0.
          2    1    1    2  501    0  0.93914878631E+01 -0.24821586806E+03  0.29885250489E+04  0.29988299860E+04  0.00000000000E+00 0. -1.
          1    1    1    2  502    0 -0.98547844130E+01 -0.20563568709E+02 -0.11053554251E+04  0.11055906082E+04  0.00000000000E+00 0. -1.
<mgrwt>
<rscale>  0 0.75420713E+02</rscale>
<asrwt>0</asrwt>
<pdfrwt beam="2">  1        2 0.18517318E+00 0.22803007E+02</pdfrwt>
<pdfrwt beam="1">  1        1 0.49692276E+00 0.24945324E+03</pdfrwt>
<totfact> 0.16231050E+00</totfact>
</mgrwt>
</event>
<event>
 5    1  0.8459321E-003  0.5875657E+02  0.7546771E-02  0.1445639E+00
          2   -1    0    0  502    0  0.00000000000E+00  0.00000000000E+00  0.18464145799E+04  0.18464145799E+04  0.00000000000E+00 0. -1.
          1   -1    0    0  501    0 -0.00000000000E+00 -0.00000000000E+00 -0.71084891262E+02  0.71084891262E+02  0.00000000000E+00 0. -1.
         25    1    1    2    0    0 -0.10606323543E+02 -0.98882144505E+00  0.34268372088E+02  0.13004919528E+03  0.12500000000E+03 0.  0.
          2    1    1    2  501    0  0.18551490770E+02  0.59205735821E+02  0.19714551603E+02  0.65101002364E+02  0.00000000000E+00 0. -1.
          1    1    1    2  502    0 -0.79451672274E+01 -0.58216914376E+02  0.17213467650E+04  0.17223492735E+04  0.00000000000E+00 0. -1.
<mgrwt>
<rscale>  0 0.49944809E+02</rscale>
<asrwt>0</asrwt>
<pdfrwt beam="1">  1        2 0.28406375E+00 0.58756572E+02</pdfrwt>
<pdfrwt beam="2">  1        1 0.10936139E-01 0.42454552E+02</pdfrwt>
<totfact> 0.71992273E+02</totfact>
</mgrwt>
</event>
<event>
 5    1  0.8459321E-003  0.3549757E+02  0.7546771E-02  0.1560820E+00
          1   -1    0    0  501    0 -0.00000000000E+00  0.00000000000E+00  0.23715588866E+04  0.23715588866E+04  0.00000000000E+00 0. -1.
          2   -1    0    0  502    0  0.00000000000E+00 -0.00000000000E+00 -0.23938703565E+03  0.23938703565E+03  0.00000000000E+00 0. -1.
         25    1    1    2    0    0  0.47099367594E+02 -0.47790780305E+02  0.30433528802E+03  0.33577861255E+03  0.12500000000E+03 0.  0.
          2    1    1    2  501    0 -0.24194072729E+02  0.25559209633E+02  0.20502112803E+04  0.20505133309E+04  0.00000000000E+00 0. -1.
          1    1    1    2  502    0 -0.22905294865E+02  0.22231570671E+02 -0.22237471737E+03  0.22465397880E+03  0.00000000000E+00 0. -1.
<mgrwt>
<rscale>  0 0.33661362E+02</rscale>
<asrwt>0</asrwt>
<pdfrwt beam="2">  1        2 0.36828776E-01 0.31920139E+02</pdfrwt>
<pdfrwt beam="1">  1        1 0.36485520E+00 0.35497567E+02</pdfrwt>
<totfact> 0.47631821E+01</totfact>
</mgrwt>
</event>
<event>
 5    1  0.8459321E-003  0.9205501E+02  0.7546771E-02  0.1315260E+00
          2   -1    0    0  502    0  0.00000000000E+00  0.00000000000E+00  0.20292514166E+04  0.20292514166E+04  0.00000000000E+00 0. -1.
         -2   -1    0    0    0  501 -0.00000000000E+00 -0.00000000000E+00 -0.80663147885E+02  0.80663147885E+02  0.00000000000E+00 0.  1.
         25    1    1    2    0    0  0.76458507178E+02 -0.37736298844E+02  0.34557602948E+03  0.37725021368E+03  0.12500000000E+03 0.  0.
          1    1    1    2  502    0 -0.20568876271E+02  0.93012918437E+02  0.16421097184E+04  0.16448704535E+04  0.00000000000E+00 0. -1.
         -1    1    1    2    0  501 -0.55889630907E+02 -0.55276619593E+02 -0.39097479177E+02  0.87793897252E+02  0.00000000000E+00 0.  1.
<mgrwt>
<rscale>  0 0.85065997E+02</rscale>
<asrwt>0</asrwt>
<pdfrwt beam="1">  1        2 0.31219249E+00 0.92055011E+02</pdfrwt>
<pdfrwt beam="2">  1       -2 0.12409717E-01 0.78607605E+02</pdfrwt>
<totfact> 0.35366046E+02</totfact>
</mgrwt>
</event>
<event>
 5    1  0.8459321E-003  0.7391239E+02  0.7546771E-02  0.1435430E+00
          2   -1    0    0  502    0  0.00000000000E+00  0.00000000000E+00  0.31296794029E+04  0.31296794029E+04  0.00000000000E+00 0. -1.
         -2   -1    0    0    0  501 -0.00000000000E+00 -0.00000000000E+00 -0.64620912017E+01  0.64620912017E+01  0.00000000000E+00 0.  1.
         25    1    1    2    0    0 -0.96194121556E+02  0.78163150072E+00  0.13624001287E+04  0.13715002846E+04  0.12500000000E+03 0.  0.
          1    1    1    2  502    0  0.33698026813E+02  0.13821966630E+02  0.11257994445E+04  0.11263884734E+04  0.00000000000E+00 0. -1.
         -1    1    1    2    0  501  0.62496094743E+02 -0.14603598131E+02  0.63501773855E+03  0.63825273615E+03  0.00000000000E+00 0.  1.
<mgrwt>
<rscale>  0 0.51885254E+02</rscale>
<asrwt>0</asrwt>
<pdfrwt beam="1">  1        2 0.48148793E+00 0.36422572E+02</pdfrwt>
<pdfrwt beam="2">  1       -2 0.99417038E-03 0.73912395E+02</pdfrwt>
<totfact> 0.43489756E+03</totfact>
</mgrwt>
</event>
<event>
 5    1  0.8459321E-003  0.9802065E+02  0.7546771E-02  0.1409338E+00
         -1   -1    0    0    0  501 -0.00000000000E+00  0.00000000000E+00  0.13520976612E+03  0.13520976612E+03  0.00000000000E+00 0.  1.
          1   -1    0    0  502    0  0.00000000000E+00 -0.00000000000E+00 -0.13411139111E+04  0.13411139111E+04  0.00000000000E+00 0. -1.
         25    1    1    2    0    0  0.12575802177E+03 -0.20347932316E+02 -0.16037746132E+03  0.23994801205E+03  0.12500000000E+03 0.  0.
          2    1    1    2  502    0 -0.92806883589E+02  0.26630425891E+02 -0.11358904432E+04  0.11399865772E+04  0.00000000000E+00 0. -1.
         -2    1    1    2    0  501 -0.32951138180E+02 -0.62824935752E+01  0.90363759563E+02  0.96389087946E+02  0.00000000000E+00 0.  1.
<mgrwt>
<rscale>  0 0.57341727E+02</rscale>
<asrwt>0</asrwt>
<pdfrwt beam="2">  1        1 0.20632521E+00 0.98020647E+02</pdfrwt>
<pdfrwt beam="1">  1       -1 0.20801503E-01 0.33544705E+02</pdfrwt>
<totfact> 0.17587377E+02</totfact>
</mgrwt>
</event>
<event>
 5    1  0.8459321E-003  0.1406386E+03  0.7546771E-02  0.1214090E+00
          1   -1    0    0  501    0 -0.00000000000E+00  0.00000000000E+00  0.19531967919E+04  0.19531967919E+04  0.00000000000E+00 0. -1.
          2   -1    0    0  502    0  0.00000000000E+00 -0.00000000000E+00 -0.23414493764E+04  0.23414493764E+04  0.00000000000E+00 0. -1.
         25    1    1    2    0    0  0.20643970565E+03 -0.18520520465E+03 -0.52639769003E+03  0.60797849302E+03  0.12500000000E+03 0.  0.
          2    1    1    2  501    0 -0.11145949762E+03  0.84755666340E+02  0.19071429113E+04  0.19122763468E+04  0.00000000000E+00 0. -1.
          1    1    1    2  502    0 -0.94980208030E+02  0.10044953831E+03 -0.17689978057E+04  0.17743913284E+04  0.00000000000E+00 0. -1.
<mgrwt>
<rscale>  0 0.13943607E+03</rscale>
<asrwt>0</asrwt>
<pdfrwt beam="2">  1        2 0.36022298E+00 0.13824381E+03</pdfrwt>
<pdfrwt beam="1">  1        1 0.30049181E+00 0.14063862E+03</pdfrwt>
<totfact> 0.28476220E+00</totfact>
</mgrwt>
</event>
<event>
 5    1  0.8459321E-003  0.3825503E+02  0.7546771E-02  0.1569303E+00
         -2   -1    0    0    0  501 -0.00000000000E+00  0.00000000000E+00  0.16563875811E+02  0.16563875811E+02  0.00000000000E+00 0.  1.
          2   -1    0    0  502    0  0.00000000000E+00 -0.00000000000E+00 -0.19166099362E+04  0.19166099362E+04  0.00000000000E+00 0. -1.
         25    1    1    2    0    0  0.42091230709E+01  0.11627749788E+02 -0.69380146621E+03  0.70508041796E+03  0.12500000000E+03 0.  0.
          1    1    1    2  502    0 -0.30324484162E+01 -0.39681904182E+02 -0.11982333472E+04  0.11988940752E+04  0.00000000000E+00 0. -1.
         -1    1    1    2    0  501 -0.11766746547E+01  0.28054154394E+02 -0.80112469904E+01  0.29199318834E+02  0.00000000000E+00 0.  1.
<mgrwt>
<rscale>  0 0.32774322E+02</rscale>
<asrwt>0</asrwt>
<pdfrwt beam="2">  1        2 0.29486298E+00 0.38255033E+02</pdfrwt>
<pdfrwt beam="1">  1       -2 0.25482893E-02 0.28078820E+02</pdfrwt>
<totfact> 0.40691815E+03</totfact>
</mgrwt>
</event>
<event>
 5    1  0.8459321E-003  0.8744829E+02  0.7546771E-02  0.1338210E+00
          2   -1    0    0  502    0  0.00000000000E+00  0.00000000000E+00  0.26349787621E+03  0.26349787621E+03  0.00000000000E+00 0. -1.
          1   -1    0    0  501    0 -0.00000000000E+00 -0.00000000000E+00 -0.45058090314E+03  0.45058090314E+03  0.00000000000E+00 0. -1.
         25    1    1    2    0    0  0.25899761879E+02  0.25929857522E+01 -0.69252709841E+02  0.14525308624E+03  0.12500000000E+03 0.  0.
          2    1    1    2  501    0  0.66938680972E+02 -0.90797818354E+01 -0.33015806857E+03  0.33699789270E+03  0.00000000000E+00 0. -1.
          1    1    1    2  502    0 -0.92838442851E+02  0.64867960832E+01  0.21232775148E+03  0.23182780041E+03  0.00000000000E+00 0. -1.
<mgrwt>
<rscale>  0 0.76858822E+02</rscale>
<asrwt>0</asrwt>
<pdfrwt beam="1">  1        2 0.40538135E-01 0.87448285E+02</pdfrwt>
<pdfrwt beam="2">  1        1 0.69320138E-01 0.67551680E+02</pdfrwt>
<totfact> 0.90170974E+02</totfact>
</mgrwt>
</event>
<event>
 5    1  0.8459321E-003  0.1743383E+03  0.7546771E-02  0.1271748E+00
          2   -1    0    0  502    0  0.00000000000E+00  0.00000000000E+00  0.26614665250E+04  0.26614665250E+04  0.00000000000E+00 0. -1.
          1   -1    0    0  501    0 -0.00000000000E+00 -0.00000000000E+00 -0.10911072706E+03  0.10911072706E+03  0.00000000000E+00 0. -1.
         25    1    1    2    0    0 -0.12055419629E+03 -0.15716717946E+02  0.34719736634E+03  0.38852456893E+03  0.12500000000E+03 0.  0.
          2    1    1    2  501    0 -0.61325223415E+02 -0.10706975378E+02 -0.73314543775E+02  0.96179232049E+02  0.00000000000E+00 0. -1.
          1    1    1    2  502    0  0.18187941970E+03  0.26423693324E+02  0.22784729753E+04  0.22858734511E+04  0.00000000000E+00 0. -1.
<mgrwt>
<rscale>  0 0.10417803E+03</rscale>
<asrwt>0</asrwt>
<pdfrwt beam="1">  1        2 0.40945634E+00 0.17433830E+03</pdfrwt>
<pdfrwt beam="2">  1        1 0.16786268E-01 0.62252890E+02</pdfrwt>
<totfact> 0.14283205E+02</totfact>
</mgrwt>
</event>
<event>
 5    1  0.8459321E-003  0.7654792E+02  0.7546771E-02  0.1420081E+00
          2   -1    0    0  502    0  0.00000000000E+00  0.00000000000E+00  0.10546625611E+04  0.10546625611E+04  0.00000000000E+00 0. -1.
          1   -1    0    0  501    0 -0.00000000000E+00 -0.00000000000E+00 -0.69662938975E+03  0.69662938975E+03  0.00000000000E+00 0. -1.
         25    1    1    2    0    0 -0.92922987098E+02  0.66028362503E+02 -0.90456515307E+01  0.16941443267E+03  0.12500000000E+03 0.  0.
          2    1    1    2  501    0  0.57086854726E+02 -0.49359439563E+02 -0.60465196304E+03  0.60934330197E+03  0.00000000000E+00 0. -1.
          1    1    1    2  502    0  0.35836132372E+02 -0.16668922940E+02  0.97173078597E+03  0.97253421625E+03  0.00000000000E+00 0. -1.
<mgrwt>
<rscale>  0 0.55003790E+02</rscale>
<asrwt>0</asrwt>
<pdfrwt beam="1">  1        2 0.16225578E+00 0.39523175E+02</pdfrwt>
<pdfrwt beam="2">  1        1 0.10717375E+00 0.76547923E+02</pdfrwt>
<totfact> 0.11088783E+02</totfact>
</mgrwt>
</event>
<event>
 5    1  0.8459321E-003  0.7898611E+02  0.7546771E-02  0.1351695E+00
          2   -1    0    0  502    0  0.00000000000E+00  0.00000000000E+00  0.40969652156E+03  0.40969652156E+03  0.00000000000E+00 0. -1.
          1   -1    0    0  501    0 -0.00000000000E+00 -0.00000000000E+00 -0.18204578549E+03  0.18204578549E+03  0.00000000000E+00 0. -1.
         25    1    1    2    0    0 -0.93252285474E+02 -0.11598991315E+02  0.98497699374E+02  0.18481699632E+03  0.12500000000E+03 0.  0.
          2    1    1    2  501    0  0.43015157154E+02 -0.50847835127E+02 -0.12434557405E+03  0.14105895174E+03  0.00000000000E+00 0. -1.
          1    1    1    2  502    0  0.50237128319E+02  0.62446826442E+02  0.25349861074E+03  0.26586635899E+03  0.00000000000E+00 0. -1.
<mgrwt>
<rscale>  0 0.72530139E+02</rscale>
<asrwt>0</asrwt>
<pdfrwt beam="1">  1        2 0.63030234E-01 0.78986114E+02</pdfrwt>
<pdfrwt beam="2">  1        1 0.28007044E-01 0.66601847E+02</pdfrwt>
<totfact> 0.17107801E+03</totfact>
</mgrwt>
</event>
<event>
 5    1  0.8459321E-003  0.7335086E+02  0.7546771E-02  0.1465444E+00
         -2   -1    0    0    0  501 -0.00000000000E+00  0.00000000000E+00  0.93426832179E+03  0.93426832179E+03  0.00000000000E+00 0.  1.
          2   -1    0    0  502    0  0.00000000000E+00 -0.00000000000E+00 -0.22402252550E+03  0.22402252550E+03  0.00000000000E+00 0. -1.
         25    1    1    2    0    0  0.32965161482E+02 -0.67890121780E+02  0.16476964512E+03  0.22015859388E+03  0.12500000000E+03 0.  0.
          1    1    1    2  502    0 -0.55146638235E+02  0.48557344571E+02 -0.18914827773E+03  0.20291879752E+03  0.00000000000E+00 0. -1.
         -1    1    1    2    0  501  0.22181476753E+02  0.19332777209E+02  0.73462442890E+03  0.73521345589E+03  0.00000000000E+00 0.  1.
<mgrwt>
<rscale>  0 0.46457278E+02</rscale>
<asrwt>0</asrwt>
<pdfrwt beam="2">  1        2 0.34465004E-01 0.73350860E+02</pdfrwt>
<pdfrwt beam="1">  1       -2 0.14373359E+00 0.29424041E+02</pdfrwt>
<totfact> 0.58010718E+01</totfact>
</mgrwt>
</event>
<event>
 5    1  0.8459321E-003  0.1060507E+03  0.7546771E-02  0.1395415E+00
         -2   -1    0    0    0  501 -0.00000000000E+00  0.00000000000E+00  0.28181644890E+03  0.28181644890E+03  0.00000000000E+00 0.  1.
          2   -1    0    0  502    0  0.00000000000E+00 -0.00000000000E+00 -0.38239534088E+03  0.38239534088E+03  0.00000000000E+00 0. -1.
         25    1    1    2    0    0  0.13539206687E+02  0.10938549878E+03 -0.27936398093E+02  0.16897911054E+03  0.12500000000E+03 0.  0.
          1    1    1    2  502    0 -0.34201830665E+02 -0.52676276598E+01 -0.26942934225E+03  0.27164256586E+03  0.00000000000E+00 0. -1.
         -1    1    1    2    0  501  0.20662623979E+02 -0.10411787112E+03  0.19678684836E+03  0.22359011339E+03  0.00000000000E+00 0.  1.
<mgrwt>
<rscale>  0 0.60579655E+02</rscale>
<asrwt>0</asrwt>
<pdfrwt beam="2">  1        2 0.58830052E-01 0.34605103E+02</pdfrwt>
<pdfrwt beam="1">  1       -2 0.43356377E-01 0.10605068E+03</pdfrwt>
<totfact> 0.43075360E+02</totfact>
</mgrwt>
</event>
<event>
 5    1  0.8459321E-003  0.1118643E+03  0.7546771E-02  0.1272704E+00
          2   -1    0    0  502    0  0.00000000000E+00  0.00000000000E+00  0.97158637436E+03  0.97158637436E+03  0.00000000000E+00 0. -1.
          1   -1    0    0  501    0 -0.00000000000E+00 -0.00000000000E+00 -0.26409569546E+04  0.26409569546E+04  0.00000000000E+00 0. -1.
         25    1    1    2    0    0 -0.11970083109E+03  0.28229512271E+02 -0.19691049103E+03  0.26367391946E+03  0.12500000000E+03 0.  0.
          2    1    1    2  501    0  0.65669353313E+02  0.70203672199E+02 -0.24063418833E+04  0.24082612564E+04  0.00000000000E+00 0. -1.
          1    1    1    2  502    0  0.54031477774E+02 -0.98433184470E+02  0.93388179409E+03  0.94060815313E+03  0.00000000000E+00 0. -1.
<mgrwt>
<rscale>  0 0.10369927E+03</rscale>
<asrwt>0</asrwt>
<pdfrwt beam="1">  1        2 0.14947483E+00 0.11186429E+03</pdfrwt>
<pdfrwt beam="2">  1        1 0.40630107E+00 0.96130222E+02</pdfrwt>
<totfact> 0.58343118E+00</totfact>
</mgrwt>
</event>
<event>
 5    1  0.8459321E-003  0.5813641E+02  0.7546771E-02  0.1522071E+00
          1   -1    0    0  501    0 -0.00000000000E+00  0.00000000000E+00  0.20220376239E+03  0.20220376239E+03  0.00000000000E+00 0. -1.
          2   -1    0    0  502    0  0.00000000000E+00 -0.00000000000E+00 -0.13789442959E+04  0.13789442959E+04  0.00000000000E+00 0. -1.
         25    1    1    2    0    0  0.56968071902E+02  0.25723749865E+02 -0.28692269381E+03  0.31914997219E+03  0.12500000000E+03 0.  0.
          2    1    1    2  501    0 -0.38960265162E+02 -0.43166186938E+02  0.18139742440E+03  0.19048949455E+03  0.00000000000E+00 0. -1.
          1    1    1    2  502    0 -0.18007806740E+02  0.17442437074E+02 -0.10712152641E+04  0.10715085915E+04  0.00000000000E+00 0. -1.
<mgrwt>
<rscale>  0 0.38177178E+02</rscale>
<asrwt>0</asrwt>
<pdfrwt beam="2">  1        2 0.21214528E+00 0.25070295E+02</pdfrwt>
<pdfrwt beam="1">  1        1 0.31108271E-01 0.58136407E+02</pdfrwt>
<totfact> 0.36666065E+02</totfact>
</mgrwt>
</event>
<event>
 5    1  0.8459321E-003  0.4528438E+02  0.7546771E-02  0.1537479E+00
          1   -1    0    0  501    0 -0.00000000000E+00  0.00000000000E+00  0.10632301458E+03  0.10632301458E+03  0.00000000000E+00 0. -1.
          2   -1    0    0  502    0  0.00000000000E+00 -0.00000000000E+00 -0.78409938174E+03  0.78409938174E+03  0.00000000000E+00 0. -1.
         25    1    1    2    0    0  0.90774397566E+01  0.34279027271E+02 -0.29361411682E+03  0.32107896415E+03  0.12500000000E+03 0.  0.
          2    1    1    2  501    0 -0.37100381223E+02 -0.26533932273E+02  0.86497250991E+02  0.97786820573E+02  0.00000000000E+00 0. -1.
          3    1    1    2  502    0  0.28022941466E+02 -0.77450949971E+01 -0.47065950134E+03  0.47155661160E+03  0.00000000000E+00 0. -1.
<mgrwt>
<rscale>  0 0.36284680E+02</rscale>
<asrwt>0</asrwt>
<pdfrwt beam="2">  1        2 0.12063067E+00 0.29073557E+02</pdfrwt>
<pdfrwt beam="1">  1        1 0.16357387E-01 0.45284378E+02</pdfrwt>
<totfact> 0.16496310E+03</totfact>
</mgrwt>
</event>
<event>
 5    1  0.8459321E-003  0.6592666E+02  0.7546771E-02  0.1407658E+00
          1   -1    0    0  501    0 -0.00000000000E+00  0.00000000000E+00  0.72709042938E+03  0.72709042938E+03  0.00000000000E+00 0. -1.
          2   -1    0    0  502    0  0.00000000000E+00 -0.00000000000E+00 -0.63501745298E+03  0.63501745298E+03  0.00000000000E+00 0. -1.
         25    1    1    2    0    0  0.53670505052E+02  0.93712960772E+01  0.43853185023E+03  0.45924234122E+03  0.12500000000E+03 0.  0.
          2    1    1    2  501    0 -0.19940754468E+01 -0.50495240179E+02  0.27414186036E+03  0.27876065938E+03  0.00000000000E+00 0. -1.
          1    1    1    2  502    0 -0.51676429605E+02  0.41123944102E+02 -0.62060073419E+03  0.62410488176E+03  0.00000000000E+00 0. -1.
<mgrwt>
<rscale>  0 0.57719818E+02</rscale>
<asrwt>0</asrwt>
<pdfrwt beam="2">  1        2 0.97694992E-01 0.65926662E+02</pdfrwt>
<pdfrwt beam="1">  1        1 0.11186007E+00 0.50534598E+02</pdfrwt>
<totfact> 0.19213115E+02</totfact>
</mgrwt>
</event>
<event>
 5    1  0.8459321E-003  0.9728103E+02  0.7546771E-02  0.1443405E+00
          1   -1    0    0  501    0 -0.00000000000E+00  0.00000000000E+00  0.88723333456E+02  0.88723333456E+02  0.00000000000E+00 0. -1.
          2   -1    0    0  502    0  0.00000000000E+00 -0.00000000000E+00 -0.12691109506E+04  0.12691109506E+04  0.00000000000E+00 0. -1.
         25    1    1    2    0    0  0.65299221423E+02 -0.95022339872E+02 -0.70392145546E+03  0.72417100802E+03  0.12500000000E+03 0.  0.
          2    1    1    2  501    0 -0.67551753473E+02  0.69048923769E+02  0.48473118792E+02  0.10807699346E+03  0.00000000000E+00 0. -1.
          1    1    1    2  502    0  0.22525320502E+01  0.25973416104E+02 -0.52493928045E+03  0.52558628255E+03  0.00000000000E+00 0. -1.
<mgrwt>
<rscale>  0 0.50360746E+02</rscale>
<asrwt>0</asrwt>
<pdfrwt beam="2">  1        2 0.19524784E+00 0.26070908E+02</pdfrwt>
<pdfrwt beam="1">  1        1 0.13649743E-01 0.97281026E+02</pdfrwt>
<totfact> 0.11763555E+03</totfact>
</mgrwt>
</event>
<event>
 5    1  0.8459321E-003  0.5584755E+02  0.7546771E-02  0.1421970E+00
          2   -1    0    0  502    0  0.00000000000E+00  0.00000000000E+00  0.79615226973E+03  0.79615226973E+03  0.00000000000E+00 0. -1.
          1   -1    0    0  501    0 -0.00000000000E+00 -0.00000000000E+00 -0.20756484364E+03  0.20756484364E+03  0.00000000000E+00 0. -1.
         25    1    1    2    0    0 -0.53804734252E+01 -0.50206059184E+01  0.14448663099E+03  0.19119503789E+03  0.12500000000E+03 0.  0.
          2    1    1    2  501    0 -0.18265235668E+01 -0.53361524183E+02 -0.17892692995E+03  0.18672341769E+03  0.00000000000E+00 0. -1.
          1    1    1    2  502    0  0.72069969920E+01  0.58382130102E+02  0.62302772504E+03  0.62579865779E+03  0.00000000000E+00 0. -1.
<mgrwt>
<rscale>  0 0.54606369E+02</rscale>
<asrwt>0</asrwt>
<pdfrwt beam="1">  1        2 0.12248496E+00 0.55847548E+02</pdfrwt>
<pdfrwt beam="2">  1        1 0.31933053E-01 0.53392775E+02</pdfrwt>
<totfact> 0.70369401E+02</totfact>
</mgrwt>
</event>
<event>
 5    1  0.8459321E-003  0.3971711E+02  0.7546771E-02  0.1527079E+00
          1   -1    0    0  501    0 -0.00000000000E+00  0.00000000000E+00  0.10100395618E+02  0.10100395618E+02  0.00000000000E+00 0. -1.
          2   -1    0    0  502    0  0.00000000000E+00 -0.00000000000E+00 -0.15500922778E+04  0.15500922778E+04  0.00000000000E+00 0. -1.
         25    1    1    2    0    0 -0.30399583631E+01  0.82114147442E+01 -0.56288454366E+03  0.57666340110E+03  0.12500000000E+03 0.  0.
          2    1    1    2  501    0  0.41638840578E+02 -0.17569591271E+02 -0.18549220005E+03  0.19091841154E+03  0.00000000000E+00 0. -1.
          1    1    1    2  502    0 -0.38598882215E+02  0.93581765264E+01 -0.79161513850E+03  0.79261086081E+03  0.00000000000E+00 0. -1.
<mgrwt>
<rscale>  0 0.37547158E+02</rscale>
<asrwt>0</asrwt>
<pdfrwt beam="2">  1        2 0.23847569E+00 0.39717114E+02</pdfrwt>
<pdfrwt beam="1">  1        1 0.15539073E-02 0.35495758E+02</pdfrwt>
<totfact> 0.13250871E+04</totfact>
</mgrwt>
</event>
<event>
 5    1  0.8459321E-003  0.1274737E+03  0.7546771E-02  0.1306850E+00
          2   -1    0    0  502    0  0.00000000000E+00  0.00000000000E+00  0.98595850323E+03  0.98595850323E+03  0.00000000000E+00 0. -1.
          1   -1    0    0  501    0 -0.00000000000E+00 -0.00000000000E+00 -0.99315854451E+02  0.99315854451E+02  0.00000000000E+00 0. -1.
         25    1    1    2    0    0 -0.98412890354E+02 -0.13434271056E+03  0.23453713629E+03  0.31363311236E+03  0.12500000000E+03 0.  0.
          2    1    1    2  501    0  0.41165128798E+02  0.11253655192E+03  0.32221391370E+01  0.11987253867E+03  0.00000000000E+00 0. -1.
          1    1    1    2  502    0  0.57247761556E+02  0.21806158646E+02  0.64888337335E+03  0.65176870665E+03  0.00000000000E+00 0. -1.
<mgrwt>
<rscale>  0 0.88368933E+02</rscale>
<asrwt>0</asrwt>
<pdfrwt beam="1">  1        2 0.15168592E+00 0.61260222E+02</pdfrwt>
<pdfrwt beam="2">  1        1 0.15279363E-01 0.12747372E+03</pdfrwt>
<totfact> 0.13810517E+03</totfact>
</mgrwt>
</event>
<event>
 5    1  0.8459321E-003  0.4333537E+02  0.7546771E-02  0.1498130E+00
          2   -1    0    0  502    0  0.00000000000E+00  0.00000000000E+00  0.40371718200E+03  0.40371718200E+03  0.00000000000E+00 0. -1.
         -2   -1    0    0    0  501 -0.00000000000E+00 -0.00000000000E+00 -0.97080910150E+02  0.97080910150E+02  0.00000000000E+00 0.  1.
         25    1    1    2    0    0  0.17442707608E+02 -0.14768112138E+02  0.23912764827E+03  0.27079397584E+03  0.12500000000E+03 0.  0.
          1    1    1    2  502    0  0.23163569165E+02  0.32066734418E+02  0.13980816480E+03  0.14529676299E+03  0.00000000000E+00 0. -1.
         -1    1    1    2    0  501 -0.40606276773E+02 -0.17298622280E+02 -0.72299541214E+02  0.84707353317E+02  0.00000000000E+00 0.  1.
<mgrwt>
<rscale>  0 0.41403570E+02</rscale>
<asrwt>0</asrwt>
<pdfrwt beam="1">  1        2 0.62110335E-01 0.39557887E+02</pdfrwt>
<pdfrwt beam="2">  1       -2 0.14935525E-01 0.43335369E+02</pdfrwt>
<totfact> 0.25023208E+03</totfact>
</mgrwt>
</event>
<event>
 5    1  0.8459321E-003  0.6761289E+02  0.7546771E-02  0.1475849E+00
          2   -1    0    0  502    0  0.00000000000E+00  0.00000000000E+00  0.29320144975E+04  0.29320144975E+04  0.00000000000E+00 0. -1.
          1   -1    0    0  501    0 -0.00000000000E+00 -0.00000000000E+00 -0.15845236670E+02  0.15845236670E+02  0.00000000000E+00 0. -1.
         25    1    1    2    0    0 -0.37281051847E+02  0.86207799087E+02  0.62342508916E+03  0.64273283971E+03  0.12500000000E+03 0.  0.
          2    1    1    2  501    0  0.19503842004E+02 -0.22306395570E+02  0.32770487863E+02  0.44180086136E+02  0.00000000000E+00 0. -1.
          3    1    1    2  502    0  0.17777209843E+02 -0.63901403518E+02  0.22599736838E+04  0.22609468083E+04  0.00000000000E+00 0. -1.
<mgrwt>
<rscale>  0 0.44759507E+02</rscale>
<asrwt>0</asrwt>
<pdfrwt beam="1">  1        2 0.45107872E+00 0.67612886E+02</pdfrwt>
<pdfrwt beam="2">  1        1 0.24377310E-02 0.29630645E+02</pdfrwt>
<totfact> 0.13222981E+03</totfact>
</mgrwt>
</event>
<event>
 5    1  0.8459321E-003  0.6901252E+02  0.7546771E-02  0.1483608E+00
         -1   -1    0    0    0  501 -0.00000000000E+00  0.00000000000E+00  0.46856432921E+02  0.46856432921E+02  0.00000000000E+00 0.  1.
          1   -1    0    0  502    0  0.00000000000E+00 -0.00000000000E+00 -0.49024143142E+03  0.49024143142E+03  0.00000000000E+00 0. -1.
         25    1    1    2    0    0  0.53085555125E+01 -0.82081279078E+02 -0.26607144613E+03  0.30526141515E+03  0.12500000000E+03 0.  0.
          2    1    1    2  502    0  0.19544005007E+02  0.19319288869E+02 -0.15973504062E+03  0.16208172709E+03  0.00000000000E+00 0. -1.
         -2    1    1    2    0  501 -0.24852560520E+02  0.62761990209E+02 -0.17578511747E+02  0.69754722095E+02  0.00000000000E+00 0.  1.
<mgrwt>
<rscale>  0 0.43549169E+02</rscale>
<asrwt>0</asrwt>
<pdfrwt beam="2">  1        1 0.75421760E-01 0.27480958E+02</pdfrwt>
<pdfrwt beam="1">  1       -1 0.72086819E-02 0.69012520E+02</pdfrwt>
<totfact> 0.44341512E+03</totfact>
</mgrwt>
</event>
<event>
 5    1  0.8459321E-003  0.4662364E+02  0.7546771E-02  0.1477597E+00
          2   -1    0    0  502    0  0.00000000000E+00  0.00000000000E+00  0.62198871729E+03  0.62198871729E+03  0.00000000000E+00 0. -1.
          1   -1    0    0  501    0 -0.00000000000E+00 -0.00000000000E+00 -0.31476374887E+03  0.31476374887E+03  0.00000000000E+00 0. -1.
         25    1    1    2    0    0  0.39646336933E+02  0.49703736616E+02 -0.10571586090E+03  0.17562214186E+03  0.12500000000E+03 0.  0.
          2    1    1    2  501    0  0.63250418706E+01 -0.41966013172E+02 -0.17056477537E+03  0.17576545455E+03  0.00000000000E+00 0. -1.
          1    1    1    2  502    0 -0.45971378804E+02 -0.77377234431E+01  0.58350560469E+03  0.58536486975E+03  0.00000000000E+00 0. -1.
<mgrwt>
<rscale>  0 0.44482654E+02</rscale>
<asrwt>0</asrwt>
<pdfrwt beam="1">  1        2 0.95690572E-01 0.46623636E+02</pdfrwt>
<pdfrwt beam="2">  1        1 0.48425192E-01 0.42439986E+02</pdfrwt>
<totfact> 0.56881588E+02</totfact>
</mgrwt>
</event>
<event>
 5    1  0.8459321E-003  0.7489400E+02  0.7546771E-02  0.1353387E+00
         -1   -1    0    0    0  501 -0.00000000000E+00  0.00000000000E+00  0.12581970337E+03  0.12581970337E+03  0.00000000000E+00 0.  1.
          1   -1    0    0  502    0  0.00000000000E+00 -0.00000000000E+00 -0.62120383400E+03  0.62120383400E+03  0.00000000000E+00 0. -1.
         25    1    1    2    0    0 -0.20096262146E+02  0.32114578995E+02 -0.18022143158E+03  0.22257576314E+03  0.12500000000E+03 0.  0.
          2    1    1    2  502    0  0.85212548927E+02 -0.85823820009E+01 -0.40334184532E+03  0.41233418481E+03  0.00000000000E+00 0. -1.
         -2    1    1    2    0  501 -0.65116286781E+02 -0.23532196994E+02  0.88179146263E+02  0.11211358943E+03  0.00000000000E+00 0.  1.
<mgrwt>
<rscale>  0 0.72010468E+02</rscale>
<asrwt>0</asrwt>
<pdfrwt beam="2">  1        1 0.95569819E-01 0.74893995E+02</pdfrwt>
<pdfrwt beam="1">  1       -1 0.19356878E-01 0.69237960E+02</pdfrwt>
<totfact> 0.71398767E+02</totfact>
</mgrwt>
</event>
<event>
 5    1  0.8459321E-003  0.1048518E+03  0.7546771E-02  0.1303738E+00
          2   -1    0    0  502    0  0.00000000000E+00  0.00000000000E+00  0.16062630452E+04  0.16062630452E+04  0.00000000000E+00 0. -1.
          1   -1    0    0  501    0 -0.00000000000E+00 -0.00000000000E+00 -0.12218457134E+03  0.12218457134E+03  0.00000000000E+00 0. -1.
         25    1    1    2    0    0 -0.92861246416E+02 -0.23447258843E+02  0.22643801144E+03  0.27581181638E+03  0.12500000000E+03 0.  0.
          2    1    1    2  501    0  0.35535867300E+02 -0.67888058603E+02 -0.79929367597E+02  0.11072619460E+03  0.00000000000E+00 0. -1.
          1    1    1    2  502    0  0.57325379117E+02  0.91335317447E+02  0.13375698300E+04  0.13419096056E+04  0.00000000000E+00 0. -1.
<mgrwt>
<rscale>  0 0.89634821E+02</rscale>
<asrwt>0</asrwt>
<pdfrwt beam="1">  1        2 0.24711738E+00 0.10485177E+03</pdfrwt>
<pdfrwt beam="2">  1        1 0.18797628E-01 0.76626277E+02</pdfrwt>
<totfact> 0.46830737E+02</totfact>
</mgrwt>
</event>
<event>
 5    1  0.8459321E-003  0.3083385E+02  0.7546771E-02  0.1595113E+00
          2   -1    0    0  502    0  0.00000000000E+00  0.00000000000E+00  0.93373992317E+03  0.93373992317E+03  0.00000000000E+00 0. -1.
          1   -1    0    0  501    0 -0.00000000000E+00 -0.00000000000E+00 -0.12954022840E+04  0.12954022840E+04  0.00000000000E+00 0. -1.
         25    1    1    2    0    0  0.13757790431E+02  0.53277123291E+02  0.56209007059E+03  0.57844444514E+03  0.12500000000E+03 0.  0.
          2    1    1    2  501    0 -0.19257849819E+02 -0.24072288462E+02 -0.12864326744E+04  0.12868019916E+04  0.00000000000E+00 0. -1.
          1    1    1    2  502    0  0.55000593882E+01 -0.29204834829E+02  0.36268024301E+03  0.36389577038E+03  0.00000000000E+00 0. -1.
<mgrwt>
<rscale>  0 0.30270901E+02</rscale>
<asrwt>0</asrwt>
<pdfrwt beam="1">  1        2 0.14365230E+00 0.29718227E+02</pdfrwt>
<pdfrwt beam="2">  1        1 0.19929266E+00 0.30833853E+02</pdfrwt>
<totfact> 0.52162343E+01</totfact>
</mgrwt>
</event>
<event>
 5    1  0.8459321E-003  0.6640548E+02  0.7546771E-02  0.1393531E+00
          2   -1    0    0  502    0  0.00000000000E+00  0.00000000000E+00  0.79303995712E+03  0.79303995712E+03  0.00000000000E+00 0. -1.
          1   -1    0    0  501    0 -0.00000000000E+00 -0.00000000000E+00 -0.86313622804E+02  0.86313622804E+02  0.00000000000E+00 0. -1.
         25    1    1    2    0    0 -0.75855643951E+02  0.53504711685E+02  0.42623270763E+02  0.16142668956E+03  0.12500000000E+03 0.  0.
          2    1    1    2  501    0  0.97145104069E+01 -0.55254870522E+02  0.59056606974E+01  0.56412314765E+02  0.00000000000E+00 0. -1.
          1    1    1    2  502    0  0.66141133544E+02  0.17501588369E+01  0.65819740286E+03  0.66151457560E+03  0.00000000000E+00 0. -1.
<mgrwt>
<rscale>  0 0.61036895E+02</rscale>
<asrwt>0</asrwt>
<pdfrwt beam="1">  1        2 0.12200614E+00 0.66405478E+02</pdfrwt>
<pdfrwt beam="2">  1        1 0.13279019E-01 0.56102339E+02</pdfrwt>
<totfact> 0.20760077E+03</totfact>
</mgrwt>
</event>
<event>
 5    1  0.8459321E-003  0.1108122E+03  0.7546771E-02  0.1318898E+00
          2   -1    0    0  502    0  0.00000000000E+00  0.00000000000E+00  0.11379334469E+03  0.11379334469E+03  0.00000000000E+00 0. -1.
          1   -1    0    0  501    0 -0.00000000000E+00 -0.00000000000E+00 -0.19723071977E+04  0.19723071977E+04  0.00000000000E+00 0. -1.
         25    1    1    2    0    0  0.87904126574E+02 -0.13758967455E+03 -0.94348148984E+03  0.96562952300E+03  0.12500000000E+03 0.  0.
          2    1    1    2  501    0 -0.82697166952E+01  0.62660772075E+02 -0.98735349584E+03  0.98937439138E+03  0.00000000000E+00 0. -1.
          1    1    1    2  502    0 -0.79634409878E+02  0.74928902479E+02  0.72321132624E+02  0.13109662805E+03  0.00000000000E+00 0. -1.
<mgrwt>
<rscale>  0 0.83688631E+02</rscale>
<asrwt>0</asrwt>
<pdfrwt beam="1">  1        2 0.17506669E-01 0.11081219E+03</pdfrwt>
<pdfrwt beam="2">  1        1 0.30343187E+00 0.63204118E+02</pdfrwt>
<totfact> 0.17852292E+02</totfact>
</mgrwt>
</event>
<event>
 5    1  0.8459321E-003  0.1974626E+03  0.7546771E-02  0.1262477E+00
          2   -1    0    0  502    0  0.00000000000E+00  0.00000000000E+00  0.26840334173E+04  0.26840334173E+04  0.00000000000E+00 0. -1.
          1   -1    0    0  501    0 -0.00000000000E+00 -0.00000000000E+00 -0.33412867924E+03  0.33412867924E+03  0.00000000000E+00 0. -1.
         25    1    1    2    0    0  0.18695951547E+03 -0.39216272612E+02  0.90942216364E+02  0.24573820049E+03  0.12500000000E+03 0.  0.
          2    1    1    2  501    0 -0.19968909408E+03 -0.19563333283E+02 -0.21710669291E+03  0.29562438061E+03  0.00000000000E+00 0. -1.
          1    1    1    2  502    0  0.12729578609E+02  0.58779605895E+02  0.24760692146E+04  0.24767995154E+04  0.00000000000E+00 0. -1.
<mgrwt>
<rscale>  0 0.10897630E+03</rscale>
<asrwt>0</asrwt>
<pdfrwt beam="1">  1        2 0.41292820E+00 0.60142200E+02</pdfrwt>
<pdfrwt beam="2">  1        1 0.51404414E-01 0.19746260E+03</pdfrwt>
<totfact> 0.41117869E+01</totfact>
</mgrwt>
</event>
<event>
 5    1  0.8459321E-003  0.8509783E+02  0.7546771E-02  0.1341624E+00
          1   -1    0    0  501    0 -0.00000000000E+00  0.00000000000E+00  0.74645881117E+03  0.74645881117E+03  0.00000000000E+00 0. -1.
          2   -1    0    0  502    0  0.00000000000E+00 -0.00000000000E+00 -0.18031125882E+04  0.18031125882E+04  0.00000000000E+00 0. -1.
         25    1    1    2    0    0 -0.14692209703E+03  0.42672115600E+01 -0.72392815153E+02  0.20608258387E+03  0.12500000000E+03 0.  0.
          2    1    1    2  501    0  0.64284524754E+02 -0.20236056921E+02  0.67687505215E+03  0.68022190082E+03  0.00000000000E+00 0. -1.
          1    1    1    2  502    0  0.82637572272E+02  0.15968845361E+02 -0.16611360140E+04  0.16632669146E+04  0.00000000000E+00 0. -1.
<mgrwt>
<rscale>  0 0.75730529E+02</rscale>
<asrwt>0</asrwt>
<pdfrwt beam="2">  1        2 0.27740194E+00 0.85097834E+02</pdfrwt>
<pdfrwt beam="1">  1        1 0.11483982E+00 0.67394348E+02</pdfrwt>
<totfact> 0.39475874E+01</totfact>
</mgrwt>
</event>
<event>
 5    1  0.8459321E-003  0.4095931E+02  0.7546771E-02  0.1572068E+00
         -2   -1    0    0    0  501  0.00000000000E+00  0.00000000000E+00  0.35459566616E+03  0.35459566616E+03  0.00000000000E+00 0.  1.
         -1   -1    0    0    0  502 -0.00000000000E+00 -0.00000000000E+00 -0.26273611267E+03  0.26273611267E+03  0.00000000000E+00 0.  1.
         25    1    1    2    0    0  0.30284827201E+02 -0.31948378892E+02  0.22267930417E+03  0.25913112931E+03  0.12500000000E+03 0.  0.
         -2    1    1    2    0  502 -0.40176694259E+02  0.81464351161E+01 -0.24129794662E+03  0.24475544980E+03  0.00000000000E+00 0.  1.
         -1    1    1    2    0  501  0.98918670585E+01  0.23801943776E+02  0.11047819594E+03  0.11344519972E+03  0.00000000000E+00 0.  1.
<mgrwt>
<rscale>  0 0.32492317E+02</rscale>
<asrwt>0</asrwt>
<pdfrwt beam="1">  1       -2 0.54553179E-01 0.25775600E+02</pdfrwt>
<pdfrwt beam="2">  1       -1 0.40420940E-01 0.40959306E+02</pdfrwt>
<totfact> 0.14420777E+02</totfact>
</mgrwt>
</event>
<event>
 5    1  0.8459321E-003  0.5574556E+02  0.7546771E-02  0.1427833E+00
          2   -1    0    0  502    0  0.00000000000E+00  0.00000000000E+00  0.23112793288E+03  0.23112793288E+03  0.00000000000E+00 0. -1.
          1   -1    0    0  501    0 -0.00000000000E+00 -0.00000000000E+00 -0.85326639829E+02  0.85326639829E+02  0.00000000000E+00 0. -1.
         25    1    1    2    0    0  0.11811302650E+02  0.50631386266E+02  0.90669912022E+02  0.16293887532E+03  0.12500000000E+03 0.  0.
          2    1    1    2  501    0  0.44624211468E+02 -0.24996188921E+02 -0.21043665601E+02  0.55307915995E+02  0.00000000000E+00 0. -1.
          1    1    1    2  502    0 -0.56435514118E+02 -0.25635197345E+02  0.76175046632E+02  0.98207781392E+02  0.00000000000E+00 0. -1.
<mgrwt>
<rscale>  0 0.53397383E+02</rscale>
<asrwt>0</asrwt>
<pdfrwt beam="1">  1        2 0.35558143E-01 0.55745564E+02</pdfrwt>
<pdfrwt beam="2">  1        1 0.13127175E-01 0.51148115E+02</pdfrwt>
<totfact> 0.78136269E+03</totfact>
</mgrwt>
</event>
<event>
 5    1  0.8459321E-003  0.4967100E+02  0.7546771E-02  0.1503666E+00
          1   -1    0    0  501    0 -0.00000000000E+00  0.00000000000E+00  0.49458832920E+03  0.49458832920E+03  0.00000000000E+00 0. -1.
          2   -1    0    0  502    0  0.00000000000E+00 -0.00000000000E+00 -0.36805171998E+02  0.36805171998E+02  0.00000000000E+00 0. -1.
         25    1    1    2    0    0  0.10966154893E+02 -0.37303387017E+02  0.23917720205E+03  0.27265827186E+03  0.12500000000E+03 0.  0.
          2    1    1    2  501    0  0.20049189650E+02  0.49219336514E+02  0.21915301115E+03  0.22550511167E+03  0.00000000000E+00 0. -1.
          1    1    1    2  502    0 -0.31015344542E+02 -0.11915949497E+02 -0.54705600055E+00  0.33230117661E+02  0.00000000000E+00 0. -1.
<mgrwt>
<rscale>  0 0.40624493E+02</rscale>
<asrwt>0</asrwt>
<pdfrwt beam="2">  1        2 0.56623345E-02 0.33225614E+02</pdfrwt>
<pdfrwt beam="1">  1        1 0.76090508E-01 0.49670997E+02</pdfrwt>
<totfact> 0.71312783E+03</totfact>
</mgrwt>
</event>
<event>
 5    1  0.8459321E-003  0.9673576E+02  0.7546771E-02  0.1428309E+00
          1   -1    0    0  501    0 -0.00000000000E+00  0.00000000000E+00  0.48775381509E+03  0.48775381509E+03  0.00000000000E+00 0. -1.
          2   -1    0    0  502    0  0.00000000000E+00 -0.00000000000E+00 -0.35223401597E+03  0.35223401597E+03  0.00000000000E+00 0. -1.
         25    1    1    2    0    0 -0.68186237307E+02 -0.23604003331E+02 -0.45779120915E+02  0.15141743573E+03  0.12500000000E+03 0.  0.
          2    1    1    2  501    0 -0.26988938678E+02 -0.11580811874E+02  0.42425796777E+03  0.42527325478E+03  0.00000000000E+00 0. -1.
          1    1    1    2  502    0  0.95175175985E+02  0.35184815206E+02 -0.24295904774E+03  0.26329714055E+03  0.00000000000E+00 0. -1.
<mgrwt>
<rscale>  0 0.53301025E+02</rscale>
<asrwt>0</asrwt>
<pdfrwt beam="2">  1        2 0.54189848E-01 0.96735755E+02</pdfrwt>
<pdfrwt beam="1">  1        1 0.75039049E-01 0.29368657E+02</pdfrwt>
<totfact> 0.61317947E+02</totfact>
</mgrwt>
</event>
<event>
 5    1  0.8459321E-003  0.6101684E+02  0.7546771E-02  0.1522134E+00
          2   -1    0    0  502    0  0.00000000000E+00  0.00000000000E+00  0.24231973400E+04  0.24231973400E+04  0.00000000000E+00 0. -1.
          1   -1    0    0  501    0 -0.00000000000E+00 -0.00000000000E+00 -0.13073600764E+04  0.13073600764E+04  0.00000000000E+00 0. -1.
         25    1    1    2    0    0  0.12442900942E+02  0.48173680405E+02  0.12539904406E+04  0.12611869625E+04  0.12500000000E+03 0.  0.
          2    1    1    2  501    0 -0.36303402912E+02 -0.49052515056E+02 -0.13029252952E+04  0.13043536373E+04  0.00000000000E+00 0. -1.
          1    1    1    2  502    0  0.23860501969E+02  0.87883465138E+00  0.11647721182E+04  0.11650168167E+04  0.00000000000E+00 0. -1.
<mgrwt>
<rscale>  0 0.38169091E+02</rscale>
<asrwt>0</asrwt>
<pdfrwt beam="1">  1        2 0.37279959E+00 0.23876681E+02</pdfrwt>
<pdfrwt beam="2">  1        1 0.20113232E+00 0.61016836E+02</pdfrwt>
<totfact> 0.92601478E+00</totfact>
</mgrwt>
</event>
<event>
 5    1  0.8459321E-003  0.1399028E+03  0.7546771E-02  0.1252329E+00
          1   -1    0    0  501    0 -0.00000000000E+00  0.00000000000E+00  0.24778466268E+03  0.24778466268E+03  0.00000000000E+00 0. -1.
          2   -1    0    0  502    0  0.00000000000E+00 -0.00000000000E+00 -0.12039062505E+04  0.12039062505E+04  0.00000000000E+00 0. -1.
         25    1    1    2    0    0 -0.19022916192E+03 -0.86973356664E+02 -0.70647873566E+03  0.74732101720E+03  0.12500000000E+03 0.  0.
          2    1    1    2  501    0  0.87586259044E+02  0.33650623534E+02  0.21020648723E+03  0.23019662141E+03  0.00000000000E+00 0. -1.
          1    1    1    2  502    0  0.10264290287E+03  0.53322733130E+02 -0.45984933938E+03  0.47417327456E+03  0.00000000000E+00 0. -1.
<mgrwt>
<rscale>  0 0.11457232E+03</rscale>
<asrwt>0</asrwt>
<pdfrwt beam="2">  1        2 0.18521635E+00 0.13990278E+03</pdfrwt>
<pdfrwt beam="1">  1        1 0.38120717E-01 0.93828126E+02</pdfrwt>
<totfact> 0.31379456E+02</totfact>
</mgrwt>
</event>
<event>
 5    1  0.8459321E-003  0.8000262E+02  0.7546771E-02  0.1451927E+00
         -1   -1    0    0    0  501 -0.00000000000E+00  0.00000000000E+00  0.69105978061E+02  0.69105978061E+02  0.00000000000E+00 0.  1.
          1   -1    0    0  502    0  0.00000000000E+00 -0.00000000000E+00 -0.18392178078E+04  0.18392178078E+04  0.00000000000E+00 0. -1.
         25    1    1    2    0    0 -0.26306655487E+02  0.10483302685E+03 -0.23734535984E+03  0.28920550389E+03  0.12500000000E+03 0.  0.
          2    1    1    2  502    0  0.14164532146E+02 -0.77655755839E+02 -0.15696996096E+04  0.15716831471E+04  0.00000000000E+00 0. -1.
         -2    1    1    2    0  501  0.12142123340E+02 -0.27177271013E+02  0.36933139681E+02  0.47435134928E+02  0.00000000000E+00 0.  1.
<mgrwt>
<rscale>  0 0.48799441E+02</rscale>
<asrwt>0</asrwt>
<pdfrwt beam="2">  1        1 0.28295654E+00 0.80002619E+02</pdfrwt>
<pdfrwt beam="1">  1       -1 0.10631691E-01 0.29766344E+02</pdfrwt>
<totfact> 0.23536118E+02</totfact>
</mgrwt>
</event>
<event>
 5    1  0.8459321E-003  0.3793873E+02  0.7546771E-02  0.1538745E+00
         -2   -1    0    0    0  501 -0.00000000000E+00  0.00000000000E+00  0.60735104754E+03  0.60735104754E+03  0.00000000000E+00 0.  1.
          2   -1    0    0  502    0  0.00000000000E+00 -0.00000000000E+00 -0.19912833584E+02  0.19912833584E+02  0.00000000000E+00 0. -1.
         25    1    1    2    0    0  0.98239108092E-01  0.11213222899E+02  0.29916632596E+03  0.32442446980E+03  0.12500000000E+03 0.  0.
          1    1    1    2  502    0 -0.50928119479E+01 -0.45266148545E+02  0.82781443350E+02  0.94486656734E+02  0.00000000000E+00 0. -1.
         -1    1    1    2    0  501  0.49945728398E+01  0.34052925646E+02  0.20549044464E+03  0.20835275458E+03  0.00000000000E+00 0.  1.
<mgrwt>
<rscale>  0 0.36135120E+02</rscale>
<asrwt>0</asrwt>
<pdfrwt beam="2">  1        2 0.30635133E-02 0.37938728E+02</pdfrwt>
<pdfrwt beam="1">  1       -2 0.93438608E-01 0.34417256E+02</pdfrwt>
<totfact> 0.25788617E+03</totfact>
</mgrwt>
</event>
<event>
 5    1  0.8459321E-003  0.5335921E+02  0.7546771E-02  0.1466307E+00
          1   -1    0    0  501    0 -0.00000000000E+00  0.00000000000E+00  0.81296689947E+03  0.81296689947E+03  0.00000000000E+00 0. -1.
          2   -1    0    0  502    0  0.00000000000E+00 -0.00000000000E+00 -0.13585905853E+03  0.13585905853E+03  0.00000000000E+00 0. -1.
         25    1    1    2    0    0  0.26614306712E+02  0.73363639785E+02  0.21258789411E+03  0.25866804535E+03  0.12500000000E+03 0.  0.
          2    1    1    2  501    0 -0.39035486548E+02 -0.35133460775E+02  0.57251792641E+03  0.57492165148E+03  0.00000000000E+00 0. -1.
          1    1    1    2  502    0  0.12421179836E+02 -0.38230179010E+02 -0.10799797958E+03  0.11523626117E+03  0.00000000000E+00 0. -1.
<mgrwt>
<rscale>  0 0.46313091E+02</rscale>
<asrwt>0</asrwt>
<pdfrwt beam="2">  1        2 0.20901394E-01 0.40197417E+02</pdfrwt>
<pdfrwt beam="1">  1        1 0.12507183E+00 0.53359211E+02</pdfrwt>
<totfact> 0.81719524E+02</totfact>
</mgrwt>
</event>
<event>
 5    1  0.8459321E-003  0.4396056E+02  0.7546771E-02  0.1538064E+00
         -1   -1    0    0    0  501 -0.00000000000E+00  0.00000000000E+00  0.63179503044E+02  0.63179503044E+02  0.00000000000E+00 0. -1.
          1   -1    0    0  502    0  0.00000000000E+00 -0.00000000000E+00 -0.26137181340E+03  0.26137181340E+03  0.00000000000E+00 0.  1.
         25    1    1    2    0    0 -0.41823324567E+02 -0.27102449891E+01 -0.40293337474E+02  0.13785894585E+03  0.12500000000E+03 0.  0.
          2    1    1    2  502    0 -0.35791494799E+01  0.29619565227E+02 -0.13117828591E+02  0.32591507823E+02  0.00000000000E+00 0. -1.
         -2    1    1    2    0  501  0.45402474047E+02 -0.26909320238E+02 -0.14478114429E+03  0.15410086277E+03  0.00000000000E+00 0.  1.
<mgrwt>
<rscale>  0 0.36215529E+02</rscale>
<asrwt>0</asrwt>
<pdfrwt beam="2">  1        1 0.40211047E-01 0.29835029E+02</pdfrwt>
<pdfrwt beam="1">  1       -1 0.97199238E-02 0.43960558E+02</pdfrwt>
<totfact> 0.57607931E+03</totfact>
</mgrwt>
</event>
<event>
 5    1  0.8459321E-003  0.9674952E+02  0.7546771E-02  0.1292184E+00
          1   -1    0    0  501    0 -0.00000000000E+00  0.00000000000E+00  0.36098271417E+03  0.36098271417E+03  0.00000000000E+00 0. -1.
          2   -1    0    0  502    0  0.00000000000E+00 -0.00000000000E+00 -0.44430863535E+03  0.44430863535E+03  0.00000000000E+00 0. -1.
         25    1    1    2    0    0  0.29273118522E+02 -0.12166820795E+02  0.69925452296E+02  0.14669531647E+03  0.12500000000E+03 0.  0.
          2    1    1    2  501    0 -0.12136192498E+03  0.19838815671E+02  0.23191418372E+03  0.26250044581E+03  0.00000000000E+00 0. -1.
          1    1    1    2  502    0  0.92088806454E+02 -0.76719948751E+01 -0.38516555719E+03  0.39609558724E+03  0.00000000000E+00 0. -1.
<mgrwt>
<rscale>  0 0.94553761E+02</rscale>
<asrwt>0</asrwt>
<pdfrwt beam="2">  1        2 0.68355175E-01 0.92407834E+02</pdfrwt>
<pdfrwt beam="1">  1        1 0.55535802E-01 0.96749522E+02</pdfrwt>
<totfact> 0.68321895E+02</totfact>
</mgrwt>
</event>
<event>
 5    1  0.8459321E-003  0.5025988E+02  0.7546771E-02  0.1499436E+00
          2   -1    0    0  502    0  0.00000000000E+00  0.00000000000E+00  0.11485322428E+04  0.11485322428E+04  0.00000000000E+00 0. -1.
          1   -1    0    0  501    0 -0.00000000000E+00 -0.00000000000E+00 -0.96720649650E+02  0.96720649650E+02  0.00000000000E+00 0. -1.
         25    1    1    2    0    0 -0.66285717697E+02  0.25471434561E+02  0.36942120455E+03  0.39640839638E+03  0.12500000000E+03 0.  0.
          2    1    1    2  501    0  0.17023013317E+02 -0.29203131820E+02 -0.78960913910E+02  0.85891977599E+02  0.00000000000E+00 0. -1.
          3    1    1    2  502    0  0.49262704380E+02  0.37316972593E+01  0.76135130249E+03  0.76295251845E+03  0.00000000000E+00 0. -1.
<mgrwt>
<rscale>  0 0.41217802E+02</rscale>
<asrwt>0</asrwt>
<pdfrwt beam="1">  1        2 0.17669726E+00 0.50259877E+02</pdfrwt>
<pdfrwt beam="2">  1        1 0.14880101E-01 0.33802454E+02</pdfrwt>
<totfact> 0.10948795E+03</totfact>
</mgrwt>
</event>
<event>
 5    1  0.8459321E-003  0.3636456E+02  0.7546771E-02  0.1536908E+00
         -2   -1    0    0    0  501 -0.00000000000E+00  0.00000000000E+00  0.19169565649E+02  0.19169565649E+02  0.00000000000E+00 0.  1.
          2   -1    0    0  502    0  0.00000000000E+00 -0.00000000000E+00 -0.76418272773E+03  0.76418272773E+03  0.00000000000E+00 0. -1.
         25    1    1    2    0    0  0.15960994561E+02  0.73832623665E+01 -0.25777344612E+03  0.28702162887E+03  0.12500000000E+03 0.  0.
          1    1    1    2  502    0  0.12156578961E+02  0.34246893017E+02 -0.30955859744E+03  0.31168438739E+03  0.00000000000E+00 0. -1.
         -1    1    1    2    0  501 -0.28117573523E+02 -0.41630155383E+02 -0.17768111852E+03  0.18464627712E+03  0.00000000000E+00 0.  1.
<mgrwt>
<rscale>  0 0.36352527E+02</rscale>
<asrwt>0</asrwt>
<pdfrwt beam="2">  1        2 0.11756654E+00 0.36340502E+02</pdfrwt>
<pdfrwt beam="1">  1       -2 0.29491647E-02 0.36364556E+02</pdfrwt>
<totfact> 0.13768586E+04</totfact>
</mgrwt>
</event>
<event>
 5    1  0.8459321E-003  0.9261081E+02  0.7546771E-02  0.1344098E+00
          1   -1    0    0  502    0  0.00000000000E+00  0.00000000000E+00  0.66375913531E+02  0.66375913531E+02  0.00000000000E+00 0. -1.
         -1   -1    0    0    0  501 -0.00000000000E+00 -0.00000000000E+00 -0.12780962885E+04  0.12780962885E+04  0.00000000000E+00 0.  1.
         25    1    1    2    0    0  0.11665847429E+03 -0.11982192494E+02 -0.39017470155E+03  0.42616202352E+03  0.12500000000E+03 0.  0.
          2    1    1    2  502    0 -0.33903380136E+02  0.50252304898E+02  0.25938300646E+02  0.65935792803E+02  0.00000000000E+00 0. -1.
         -2    1    1    2    0  501 -0.82755094157E+02 -0.38270112404E+02 -0.84748397408E+03  0.85237438572E+03  0.00000000000E+00 0.  1.
<mgrwt>
<rscale>  0 0.74926819E+02</rscale>
<asrwt>0</asrwt>
<pdfrwt beam="1">  1        1 0.10211680E-01 0.60619579E+02</pdfrwt>
<pdfrwt beam="2">  1       -1 0.19663019E+00 0.92610808E+02</pdfrwt>
<totfact> 0.11025399E+02</totfact>
</mgrwt>
</event>
<event>
 5    1  0.8459321E-003  0.9034773E+02  0.7546771E-02  0.1334383E+00
          2   -1    0    0  502    0  0.00000000000E+00  0.00000000000E+00  0.12665512064E+04  0.12665512064E+04  0.00000000000E+00 0. -1.
          1   -1    0    0  501    0 -0.00000000000E+00 -0.00000000000E+00 -0.30042967997E+03  0.30042967997E+03  0.00000000000E+00 0. -1.
         25    1    1    2    0    0 -0.46705600945E+02  0.65990032328E+02  0.29520765776E+03  0.33061860009E+03  0.12500000000E+03 0.  0.
          2    1    1    2  501    0  0.90040601208E+02 -0.14106446402E+02 -0.27414049134E+03  0.28889325137E+03  0.00000000000E+00 0. -1.
          1    1    1    2  502    0 -0.43335000263E+02 -0.51883585926E+02  0.94505436000E+03  0.94746903490E+03  0.00000000000E+00 0. -1.
<mgrwt>
<rscale>  0 0.78150832E+02</rscale>
<asrwt>0</asrwt>
<pdfrwt beam="1">  1        2 0.19485403E+00 0.67600508E+02</pdfrwt>
<pdfrwt beam="2">  1        1 0.46219952E-01 0.90347730E+02</pdfrwt>
<totfact> 0.24067199E+02</totfact>
</mgrwt>
</event>
<event>
 5    1  0.8459321E-003  0.8693796E+02  0.7546771E-02  0.1374010E+00
          3   -1    0    0  501    0 -0.00000000000E+00  0.00000000000E+00  0.44105004627E+03  0.44105004627E+03  0.00000000000E+00 0. -1.
          2   -1    0    0  502    0  0.00000000000E+00 -0.00000000000E+00 -0.13530567114E+03  0.13530567114E+03  0.00000000000E+00 0. -1.
         25    1    1    2    0    0 -0.71968208851E+02 -0.26428309560E+02 -0.43584825312E+02  0.15297880778E+03  0.12500000000E+03 0.  0.
          2    1    1    2  501    0 -0.35525747241E+02  0.35472443685E+02  0.30102390481E+03  0.30518152671E+03  0.00000000000E+00 0. -1.
          1    1    1    2  502    0  0.10749395609E+03 -0.90441341242E+01  0.48305295634E+02  0.11819538292E+03  0.00000000000E+00 0. -1.
<mgrwt>
<rscale>  0 0.66064922E+02</rscale>
<asrwt>0</asrwt>
<pdfrwt beam="2">  1        2 0.20816257E-01 0.86937959E+02</pdfrwt>
<pdfrwt beam="1">  1        3 0.67853853E-01 0.50203316E+02</pdfrwt>
<totfact> 0.31623714E+02</totfact>
</mgrwt>
</event>
<event>
 5    1  0.8459321E-003  0.6247566E+02  0.7546771E-02  0.1479055E+00
          1   -1    0    0  502    0  0.00000000000E+00  0.00000000000E+00  0.18009078290E+04  0.18009078290E+04  0.00000000000E+00 0. -1.
         -1   -1    0    0    0  501 -0.00000000000E+00 -0.00000000000E+00 -0.13582401592E+03  0.13582401592E+03  0.00000000000E+00 0.  1.
         25    1    1    2    0    0  0.79501324259E+02 -0.29463632449E+02  0.37993948962E+02  0.15574693048E+03  0.12500000000E+03 0.  0.
          2    1    1    2  502    0 -0.62207622209E+02  0.33192601655E+01  0.17002506785E+04  0.17013915409E+04  0.00000000000E+00 0. -1.
         -2    1    1    2    0  501 -0.17293702050E+02  0.26144372284E+02 -0.73160814433E+02  0.79593373475E+02  0.00000000000E+00 0.  1.
<mgrwt>
<rscale>  0 0.44253705E+02</rscale>
<asrwt>0</asrwt>
<pdfrwt beam="1">  1        1 0.27706273E+00 0.62475656E+02</pdfrwt>
<pdfrwt beam="2">  1       -1 0.20896004E-01 0.31346456E+02</pdfrwt>
<totfact> 0.93325231E+01</totfact>
</mgrwt>
</event>
<event>
 5    1  0.8459321E-003  0.3612236E+03  0.7546771E-02  0.1225130E+00
          1   -1    0    0  501    0 -0.00000000000E+00  0.00000000000E+00  0.72702448904E+03  0.72702448904E+03  0.00000000000E+00 0. -1.
          2   -1    0    0  502    0  0.00000000000E+00 -0.00000000000E+00 -0.76466457223E+03  0.76466457223E+03  0.00000000000E+00 0. -1.
         25    1    1    2    0    0  0.30812510320E+03 -0.17567652465E+03  0.57718158855E+03  0.68888816705E+03  0.12500000000E+03 0.  0.
          2    1    1    2  501    0  0.27190643439E+02  0.39470335078E+02  0.34753745439E+02  0.59203557865E+02  0.00000000000E+00 0. -1.
          1    1    1    2  502    0 -0.33531574664E+03  0.13620618957E+03 -0.64957541719E+03  0.74359733635E+03  0.00000000000E+00 0. -1.
<mgrwt>
<rscale>  0 0.13157991E+03</rscale>
<asrwt>0</asrwt>
<pdfrwt beam="2">  1        2 0.11764070E+00 0.36122359E+03</pdfrwt>
<pdfrwt beam="1">  1        1 0.11184992E+00 0.47929515E+02</pdfrwt>
<totfact> 0.14674413E+02</totfact>
</mgrwt>
</event>
<event>
 5    1  0.8459321E-003  0.1949315E+03  0.7546771E-02  0.1253206E+00
          1   -1    0    0  501    0 -0.00000000000E+00  0.00000000000E+00  0.52330089077E+03  0.52330089077E+03  0.00000000000E+00 0. -1.
          2   -1    0    0  502    0  0.00000000000E+00 -0.00000000000E+00 -0.94655018416E+03  0.94655018416E+03  0.00000000000E+00 0. -1.
         25    1    1    2    0    0  0.51118848677E+02  0.24754958549E+03 -0.23795686037E+03  0.36897479773E+03  0.12500000000E+03 0.  0.
          2    1    1    2  501    0 -0.16437854297E+02 -0.19050894557E+03  0.43595793592E+03  0.47604955970E+03  0.00000000000E+00 0. -1.
          1    1    1    2  502    0 -0.34680994380E+02 -0.57040639925E+02 -0.62125036895E+03  0.62482671750E+03  0.00000000000E+00 0. -1.
<mgrwt>
<rscale>  0 0.11407414E+03</rscale>
<asrwt>0</asrwt>
<pdfrwt beam="2">  1        2 0.14562310E+00 0.66756318E+02</pdfrwt>
<pdfrwt beam="1">  1        1 0.80507830E-01 0.19493152E+03</pdfrwt>
<totfact> 0.17777039E+02</totfact>
</mgrwt>
</event>
<event>
 5    1  0.8459321E-003  0.5911925E+02  0.7546771E-02  0.1482835E+00
          1   -1    0    0  501    0 -0.00000000000E+00  0.00000000000E+00  0.13686895423E+02  0.13686895423E+02  0.00000000000E+00 0. -1.
          2   -1    0    0  502    0  0.00000000000E+00 -0.00000000000E+00 -0.25242312500E+04  0.25242312500E+04  0.00000000000E+00 0. -1.
         25    1    1    2    0    0  0.55625260682E+02  0.12395478715E+02 -0.14178889368E+04  0.14245286429E+04  0.12500000000E+03 0.  0.
          2    1    1    2  501    0 -0.56367233787E+02  0.19850554918E+02 -0.78194253763E+02  0.98415704524E+02  0.00000000000E+00 0. -1.
          1    1    1    2  502    0  0.74197310428E+00 -0.32246033633E+02 -0.10144611641E+04  0.10149737980E+04  0.00000000000E+00 0. -1.
<mgrwt>
<rscale>  0 0.43667677E+02</rscale>
<asrwt>0</asrwt>
<pdfrwt beam="2">  1        2 0.38834334E+00 0.32254569E+02</pdfrwt>
<pdfrwt beam="1">  1        1 0.21056758E-02 0.59119253E+02</pdfrwt>
<totfact> 0.33102591E+03</totfact>
</mgrwt>
</event>
<event>
 5    1  0.8459321E-003  0.8484347E+02  0.7546771E-02  0.1325515E+00
         -1   -1    0    0    0  501 -0.00000000000E+00  0.00000000000E+00  0.22228119956E+03  0.22228119956E+03  0.00000000000E+00 0.  1.
          1   -1    0    0  502    0  0.00000000000E+00 -0.00000000000E+00 -0.56341163282E+03  0.56341163282E+03  0.00000000000E+00 0. -1.
         25    1    1    2    0    0  0.14499897320E+03 -0.37641461171E+02  0.12677131610E+03  0.23267476961E+03  0.12500000000E+03 0.  0.
          2    1    1    2  502    0 -0.67981044399E+02  0.48832122817E+02 -0.46776140337E+03  0.47519125529E+03  0.00000000000E+00 0. -1.
         -2    1    1    2    0  501 -0.77017928800E+02 -0.11190661646E+02 -0.14034598993E+00  0.77826807475E+02  0.00000000000E+00 0.  1.
<mgrwt>
<rscale>  0 0.81259374E+02</rscale>
<asrwt>0</asrwt>
<pdfrwt beam="2">  1        1 0.86678712E-01 0.84843473E+02</pdfrwt>
<pdfrwt beam="1">  1       -1 0.34197108E-01 0.77826681E+02</pdfrwt>
<totfact> 0.32250455E+02</totfact>
</mgrwt>
</event>
<event>
 5    1  0.8459321E-003  0.2410810E+03  0.7546771E-02  0.1209283E+00
          2   -1    0    0  502    0  0.00000000000E+00  0.00000000000E+00  0.16965059386E+03  0.16965059386E+03  0.00000000000E+00 0. -1.
          1   -1    0    0  501    0 -0.00000000000E+00 -0.00000000000E+00 -0.12037901407E+04  0.12037901407E+04  0.00000000000E+00 0. -1.
         25    1    1    2    0    0  0.25829728779E+03  0.14679214993E+03 -0.21852864158E+03  0.38941647545E+03  0.12500000000E+03 0.  0.
          2    1    1    2  501    0 -0.17369632611E+03 -0.15368444040E+03 -0.85825048813E+03  0.88903499442E+03  0.00000000000E+00 0. -1.
          1    1    1    2  502    0 -0.84600961679E+02  0.68922904673E+01  0.42639582849E+02  0.94989264712E+02  0.00000000000E+00 0. -1.
<mgrwt>
<rscale>  0 0.14304984E+03</rscale>
<asrwt>0</asrwt>
<pdfrwt beam="1">  1        2 0.26100091E-01 0.84881249E+02</pdfrwt>
<pdfrwt beam="2">  1        1 0.18519849E+00 0.24108101E+03</pdfrwt>
<totfact> 0.31202378E+02</totfact>
</mgrwt>
</event>
<event>
 5    1  0.8459321E-003  0.8348924E+02  0.7546771E-02  0.1481507E+00
          2   -1    0    0  502    0  0.00000000000E+00  0.00000000000E+00  0.18944150426E+03  0.18944150426E+03  0.00000000000E+00 0. -1.
          1   -1    0    0  501    0 -0.00000000000E+00 -0.00000000000E+00 -0.17420231550E+03  0.17420231550E+03  0.00000000000E+00 0. -1.
         25    1    1    2    0    0  0.64930479092E+02 -0.48643516883E+01  0.53019928205E+02  0.15058466661E+03  0.12500000000E+03 0.  0.
          2    1    1    2  501    0 -0.86174596790E+02 -0.40899823362E+01 -0.10853384194E+03  0.13864481214E+03  0.00000000000E+00 0. -1.
          1    1    1    2  502    0  0.21244117699E+02  0.89543340245E+01  0.70753102497E+02  0.74414341008E+02  0.00000000000E+00 0. -1.
<mgrwt>
<rscale>  0 0.43872216E+02</rscale>
<asrwt>0</asrwt>
<pdfrwt beam="1">  1        2 0.29144847E-01 0.23054124E+02</pdfrwt>
<pdfrwt beam="2">  1        1 0.26800356E-01 0.83489242E+02</pdfrwt>
<totfact> 0.39079698E+03</totfact>
</mgrwt>
</event>
<event>
 5    1  0.8459321E-003  0.9216644E+02  0.7546771E-02  0.1345227E+00
          1   -1    0    0  501    0 -0.00000000000E+00  0.00000000000E+00  0.34225596869E+03  0.34225596869E+03  0.00000000000E+00 0. -1.
          2   -1    0    0  502    0  0.00000000000E+00 -0.00000000000E+00 -0.11313730285E+04  0.11313730285E+04  0.00000000000E+00 0. -1.
         25    1    1    2    0    0  0.72545417295E+01  0.69315705926E+02 -0.20586714764E+03  0.25072610144E+03  0.12500000000E+03 0.  0.
          2    1    1    2  501    0  0.60320070515E+02 -0.59920895353E+00  0.31437947438E+03  0.32011454804E+03  0.00000000000E+00 0. -1.
          1    1    1    2  502    0 -0.67574612245E+02 -0.68716496972E+02 -0.89762938653E+03  0.90278834770E+03  0.00000000000E+00 0. -1.
<mgrwt>
<rscale>  0 0.74563802E+02</rscale>
<asrwt>0</asrwt>
<pdfrwt beam="2">  1        2 0.17405739E+00 0.92166442E+02</pdfrwt>
<pdfrwt beam="1">  1        1 0.52654765E-01 0.60323047E+02</pdfrwt>
<totfact> 0.23829795E+02</totfact>
</mgrwt>
</event>
<event>
 5    1  0.8459321E-003  0.8751757E+02  0.7546771E-02  0.1457266E+00
         -1   -1    0    0    0  501 -0.00000000000E+00  0.00000000000E+00  0.31566253857E+02  0.31566253857E+02  0.00000000000E+00 0.  1.
          1   -1    0    0  502    0  0.00000000000E+00 -0.00000000000E+00 -0.57985236183E+03  0.57985236183E+03  0.00000000000E+00 0. -1.
         25    1    1    2    0    0  0.74955347465E+01  0.74808810651E+02 -0.24141755333E+03  0.28206378046E+03  0.12500000000E+03 0.  0.
          2    1    1    2  502    0 -0.29746534393E+02 -0.88579286297E+02 -0.24026867941E+03  0.25779872881E+03  0.00000000000E+00 0.  1.
         -2    1    1    2    0  501  0.22250999647E+02  0.13770475647E+02 -0.66599875239E+02  0.71556106424E+02  0.00000000000E+00 0. -1.
<mgrwt>
<rscale>  0 0.47855068E+02</rscale>
<asrwt>0</asrwt>
<pdfrwt beam="2">  1        1 0.89208059E-01 0.87517571E+02</pdfrwt>
<pdfrwt beam="1">  1       -1 0.48563466E-02 0.26167403E+02</pdfrwt>
<totfact> 0.55144629E+03</totfact>
</mgrwt>
</event>
<event>
 5    1  0.8459321E-003  0.8626753E+02  0.7546771E-02  0.1364619E+00
          2   -1    0    0  502    0  0.00000000000E+00  0.00000000000E+00  0.10013001573E+04  0.10013001573E+04  0.00000000000E+00 0. -1.
         -2   -1    0    0    0  501 -0.00000000000E+00 -0.00000000000E+00 -0.86923100854E+02  0.86923100854E+02  0.00000000000E+00 0.  1.
         25    1    1    2    0    0 -0.13127346670E+03 -0.38963666369E+02  0.65936895119E+03  0.68494036540E+03  0.12500000000E+03 0.  0.
          1    1    1    2  502    0  0.47727175116E+02  0.26699893580E+02  0.30181946181E+03  0.30673401358E+03  0.00000000000E+00 0. -1.
         -1    1    1    2    0  501  0.83546291582E+02  0.12263772789E+02 -0.46811356579E+02  0.96548879149E+02  0.00000000000E+00 0.  1.
<mgrwt>
<rscale>  0 0.68686177E+02</rscale>
<asrwt>0</asrwt>
<pdfrwt beam="1">  1        2 0.15404617E+00 0.54687911E+02</pdfrwt>
<pdfrwt beam="2">  1       -2 0.13372785E-01 0.86267528E+02</pdfrwt>
<totfact> 0.11147027E+03</totfact>
</mgrwt>
</event>
<event>
 5    1  0.8459321E-003  0.7539047E+02  0.7546771E-02  0.1351308E+00
          2   -1    0    0  502    0  0.00000000000E+00  0.00000000000E+00  0.49843084039E+03  0.49843084039E+03  0.00000000000E+00 0. -1.
          1   -1    0    0  501    0 -0.00000000000E+00 -0.00000000000E+00 -0.98960081988E+03  0.98960081988E+03  0.00000000000E+00 0. -1.
         25    1    1    2    0    0 -0.67387246066E+02  0.98910132448E+02 -0.39462599542E+02  0.17750085069E+03  0.12500000000E+03 0.  0.
          2    1    1    2  501    0  0.65650066210E+02 -0.24315637552E+02 -0.87647149158E+03  0.87926301923E+03  0.00000000000E+00 0. -1.
          1    1    1    2  502    0  0.17371798558E+01 -0.74594494896E+02  0.42476411164E+03  0.43126779036E+03  0.00000000000E+00 0. -1.
<mgrwt>
<rscale>  0 0.72649632E+02</rscale>
<asrwt>0</asrwt>
<pdfrwt beam="1">  1        2 0.76681668E-01 0.75390469E+02</pdfrwt>
<pdfrwt beam="2">  1        1 0.15224628E+00 0.70008438E+02</pdfrwt>
<totfact> 0.15452356E+02</totfact>
</mgrwt>
</event>
<event>
 5    1  0.8459321E-003  0.9886066E+02  0.7546771E-02  0.1304861E+00
          2   -1    0    0  502    0  0.00000000000E+00  0.00000000000E+00  0.23806196933E+04  0.23806196933E+04  0.00000000000E+00 0. -1.
          1   -1    0    0  501    0 -0.00000000000E+00 -0.00000000000E+00 -0.53317583170E+03  0.53317583170E+03  0.00000000000E+00 0. -1.
         25    1    1    2    0    0  0.14074620352E+02 -0.10951042467E+03  0.25795496380E+03  0.30717485476E+03  0.12500000000E+03 0.  0.
          2    1    1    2  501    0  0.64515882740E+02  0.48043026845E+02 -0.50418972615E+03  0.51056606968E+03  0.00000000000E+00 0. -1.
          1    1    1    2  502    0 -0.78590503092E+02  0.61467397820E+02  0.20936786239E+04  0.20960546005E+04  0.00000000000E+00 0. -1.
<mgrwt>
<rscale>  0 0.89175402E+02</rscale>
<asrwt>0</asrwt>
<pdfrwt beam="1">  1        2 0.36624918E+00 0.98860665E+02</pdfrwt>
<pdfrwt beam="2">  1        1 0.82027052E-01 0.80438993E+02</pdfrwt>
<totfact> 0.30974692E+01</totfact>
</mgrwt>
</event>
<event>
 5    1  0.8459321E-003  0.1701395E+03  0.7546771E-02  0.1373704E+00
          1   -1    0    0  501    0 -0.00000000000E+00  0.00000000000E+00  0.11101197498E+03  0.11101197498E+03  0.00000000000E+00 0. -1.
          2   -1    0    0  502    0  0.00000000000E+00 -0.00000000000E+00 -0.13633150183E+04  0.13633150183E+04  0.00000000000E+00 0. -1.
         25    1    1    2    0    0  0.16173642847E+03 -0.84806773065E+02 -0.27632395168E+03  0.35402088544E+03  0.12500000000E+03 0.  0.
          2    1    1    2  501    0 -0.15547365891E+03  0.59863307801E+02 -0.24397778132E+02  0.16837733165E+03  0.00000000000E+00 0. -1.
          1    1    1    2  502    0 -0.62627695656E+01  0.24943465265E+02 -0.95158131352E+03  0.95192877622E+03  0.00000000000E+00 0. -1.
<mgrwt>
<rscale>  0 0.66148258E+02</rscale>
<asrwt>0</asrwt>
<pdfrwt beam="2">  1        2 0.20974077E+00 0.25717674E+02</pdfrwt>
<pdfrwt beam="1">  1        1 0.17078765E-01 0.17013949E+03</pdfrwt>
<totfact> 0.81131116E+02</totfact>
</mgrwt>
</event>
<event>
 5    1  0.8459321E-003  0.3279859E+02  0.7546771E-02  0.1599020E+00
          2   -1    0    0  502    0  0.00000000000E+00  0.00000000000E+00  0.90234634318E+02  0.90234634318E+02  0.00000000000E+00 0. -1.
          1   -1    0    0  501    0 -0.00000000000E+00 -0.00000000000E+00 -0.77694652022E+03  0.77694652022E+03  0.00000000000E+00 0. -1.
         25    1    1    2    0    0 -0.57338299477E+02  0.14986962094E+02 -0.23325845005E+03  0.27119512189E+03  0.12500000000E+03 0.  0.
          2    1    1    2  501    0  0.25261558164E+02 -0.10315648172E+02 -0.52065794101E+03  0.52137246806E+03  0.00000000000E+00 0. -1.
          1    1    1    2  502    0  0.32076741312E+02 -0.46713139220E+01  0.67204505153E+02  0.74613564583E+02  0.00000000000E+00 0. -1.
<mgrwt>
<rscale>  0 0.29915919E+02</rscale>
<asrwt>0</asrwt>
<pdfrwt beam="1">  1        2 0.13882252E-01 0.32798589E+02</pdfrwt>
<pdfrwt beam="2">  1        1 0.11953023E+00 0.27286607E+02</pdfrwt>
<totfact> 0.13994643E+03</totfact>
</mgrwt>
</event>
<event>
 5    1  0.8459321E-003  0.5960731E+02  0.7546771E-02  0.1457854E+00
          1   -1    0    0  502    0  0.00000000000E+00  0.00000000000E+00  0.77206871707E+02  0.77206871707E+02  0.00000000000E+00 0. -1.
         -1   -1    0    0    0  501 -0.00000000000E+00 -0.00000000000E+00 -0.14873713358E+04  0.14873713358E+04  0.00000000000E+00 0.  1.
         25    1    1    2    0    0  0.64464052343E+02 -0.44002361394E+02 -0.38063061393E+02  0.15220255745E+03  0.12500000000E+03 0.  0.
          2    1    1    2  502    0 -0.54007836365E+02  0.72033287926E+01 -0.17490373113E+02  0.57224535700E+02  0.00000000000E+00 0. -1.
         -2    1    1    2    0  501 -0.10456215978E+02  0.36799032601E+02 -0.13546110296E+04  0.13551511143E+04  0.00000000000E+00 0.  1.
<mgrwt>
<rscale>  0 0.47752710E+02</rscale>
<asrwt>0</asrwt>
<pdfrwt beam="1">  1        1 0.11877982E-01 0.59607308E+02</pdfrwt>
<pdfrwt beam="2">  1       -1 0.22882632E+00 0.38255735E+02</pdfrwt>
<totfact> 0.61827910E+01</totfact>
</mgrwt>
</event>
<event>
 5    1  0.8459321E-003  0.9326278E+02  0.7546771E-02  0.1299833E+00
          1   -1    0    0  502    0  0.00000000000E+00  0.00000000000E+00  0.23171480250E+04  0.23171480250E+04  0.00000000000E+00 0. -1.
         -1   -1    0    0    0  501 -0.00000000000E+00 -0.00000000000E+00 -0.18488141414E+02  0.18488141414E+02  0.00000000000E+00 0.  1.
         25    1    1    2    0    0 -0.36098818520E+02  0.60406883071E+02  0.91798672300E+03  0.92912686961E+03  0.12500000000E+03 0.  0.
          2    1    1    2  502    0  0.81425653738E+02  0.36657498382E+02  0.11348545199E+04  0.11383622844E+04  0.00000000000E+00 0. -1.
         -2    1    1    2    0  501 -0.45326835218E+02 -0.97064381453E+02  0.24581864066E+03  0.26814701235E+03  0.00000000000E+00 0.  1.
<mgrwt>
<rscale>  0 0.91258221E+02</rscale>
<asrwt>0</asrwt>
<pdfrwt beam="1">  1        1 0.35648408E+00 0.89296748E+02</pdfrwt>
<pdfrwt beam="2">  1       -1 0.28443313E-02 0.93262778E+02</pdfrwt>
<totfact> 0.88481541E+02</totfact>
</mgrwt>
</event>
<event>
 5    1  0.8459321E-003  0.1257124E+03  0.7546771E-02  0.1241674E+00
          1   -1    0    0  501    0 -0.00000000000E+00  0.00000000000E+00  0.74346966564E+02  0.74346966564E+02  0.00000000000E+00 0. -1.
          2   -1    0    0  502    0  0.00000000000E+00 -0.00000000000E+00 -0.24135064171E+04  0.24135064171E+04  0.00000000000E+00 0. -1.
         25    1    1    2    0    0 -0.81911086704E+02 -0.69697428224E+01 -0.90628081053E+03  0.91854662973E+03  0.12500000000E+03 0.  0.
          2    1    1    2  501    0 -0.46811007905E+02 -0.10636276835E+03  0.96599450782E+01  0.11660884826E+03  0.00000000000E+00 0. -1.
          1    1    1    2  502    0  0.12872209461E+03  0.11333251117E+03 -0.14425385851E+04  0.14526979057E+04  0.00000000000E+00 0. -1.
<mgrwt>
<rscale>  0 0.12086683E+03</rscale>
<asrwt>0</asrwt>
<pdfrwt beam="2">  1        2 0.37130860E+00 0.12571240E+03</pdfrwt>
<pdfrwt beam="1">  1        1 0.11437997E-01 0.11620804E+03</pdfrwt>
<totfact> 0.34216970E+02</totfact>
</mgrwt>
</event>
<event>
 5    1  0.8459321E-003  0.4799101E+02  0.7546771E-02  0.1545131E+00
          1   -1    0    0  501    0 -0.00000000000E+00  0.00000000000E+00  0.68387138920E+03  0.68387138920E+03  0.00000000000E+00 0. -1.
          2   -1    0    0  502    0  0.00000000000E+00 -0.00000000000E+00 -0.59785802342E+03  0.59785802342E+03  0.00000000000E+00 0. -1.
         25    1    1    2    0    0  0.35485646068E+02  0.12722558390E+02  0.86636081076E+02  0.15669047550E+03  0.12500000000E+03 0.  0.
          2    1    1    2  501    0 -0.60875908790E+01  0.25383503666E+02  0.56087513728E+03  0.56148223538E+03  0.00000000000E+00 0. -1.
          1    1    1    2  502    0 -0.29398055189E+02 -0.38106062057E+02 -0.56149785258E+03  0.56355670173E+03  0.00000000000E+00 0. -1.
<mgrwt>
<rscale>  0 0.35393823E+02</rscale>
<asrwt>0</asrwt>
<pdfrwt beam="2">  1        2 0.91978157E-01 0.47991014E+02</pdfrwt>
<pdfrwt beam="1">  1        1 0.10521098E+00 0.26103276E+02</pdfrwt>
<totfact> 0.23119607E+02</totfact>
</mgrwt>
</event>
<event>
 5    1  0.8459321E-003  0.9951110E+02  0.7546771E-02  0.1338890E+00
          2   -1    0    0  502    0  0.00000000000E+00  0.00000000000E+00  0.99020458247E+03  0.99020458247E+03  0.00000000000E+00 0. -1.
          1   -1    0    0  501    0 -0.00000000000E+00 -0.00000000000E+00 -0.51511397465E+03  0.51511397465E+03  0.00000000000E+00 0. -1.
         25    1    1    2    0    0  0.18364579716E+01 -0.15441239438E+03  0.85245867701E+02  0.21619069840E+03  0.12500000000E+03 0.  0.
          2    1    1    2  501    0 -0.12077512369E+02  0.57764205208E+02 -0.44487353753E+03  0.44877058071E+03  0.00000000000E+00 0. -1.
          1    1    1    2  502    0  0.10241054398E+02  0.96648189172E+02  0.83471827765E+03  0.84035727801E+03  0.00000000000E+00 0. -1.
<mgrwt>
<rscale>  0 0.76632097E+02</rscale>
<asrwt>0</asrwt>
<pdfrwt beam="1">  1        2 0.15233917E+00 0.99511096E+02</pdfrwt>
<pdfrwt beam="2">  1        1 0.79248304E-01 0.59013301E+02</pdfrwt>
<totfact> 0.17275072E+02</totfact>
</mgrwt>
</event>
<event>
 5    1  0.8459321E-003  0.9636205E+02  0.7546771E-02  0.1306123E+00
          2   -1    0    0  502    0  0.00000000000E+00  0.00000000000E+00  0.25718035112E+04  0.25718035112E+04  0.00000000000E+00 0. -1.
         -2   -1    0    0    0  501 -0.00000000000E+00 -0.00000000000E+00 -0.68623179602E+02  0.68623179602E+02  0.00000000000E+00 0.  1.
         25    1    1    2    0    0 -0.37563284381E+02  0.16135772996E+03  0.36233511282E+03  0.41756323034E+03  0.12500000000E+03 0.  0.
          1    1    1    2  502    0  0.75780228177E-01 -0.81578559564E+02  0.21327886719E+04  0.21343482813E+04  0.00000000000E+00 0. -1.
         -1    1    1    2    0  501  0.37487504153E+02 -0.79779170393E+02  0.80565469463E+01  0.88515179178E+02  0.00000000000E+00 0.  1.
<mgrwt>
<rscale>  0 0.88662735E+02</rscale>
<asrwt>0</asrwt>
<pdfrwt beam="1">  1        2 0.39566200E+00 0.81578595E+02</pdfrwt>
<pdfrwt beam="2">  1       -2 0.10557414E-01 0.96362050E+02</pdfrwt>
<totfact> 0.24705079E+02</totfact>
</mgrwt>
</event>
<event>
 5    1  0.8459321E-003  0.6824432E+02  0.7546771E-02  0.1424438E+00
          2   -1    0    0  502    0  0.00000000000E+00  0.00000000000E+00  0.63553490296E+03  0.63553490296E+03  0.00000000000E+00 0. -1.
          1   -1    0    0  501    0 -0.00000000000E+00 -0.00000000000E+00 -0.11299657245E+03  0.11299657245E+03  0.00000000000E+00 0. -1.
         25    1    1    2    0    0 -0.99489126846E+02 -0.25978024649E+02 -0.19830937685E+02  0.16306811526E+03  0.12500000000E+03 0.  0.
          2    1    1    2  501    0  0.31993770794E+02  0.28543718886E+02  0.42102039098E+01  0.43082143336E+02  0.00000000000E+00 0. -1.
          3    1    1    2  502    0  0.67495356052E+02 -0.25656942376E+01  0.53815906428E+03  0.54238121681E+03  0.00000000000E+00 0. -1.
<mgrwt>
<rscale>  0 0.54092868E+02</rscale>
<asrwt>0</asrwt>
<pdfrwt beam="1">  1        2 0.97774599E-01 0.68244315E+02</pdfrwt>
<pdfrwt beam="2">  1        1 0.17384088E-01 0.42875929E+02</pdfrwt>
<totfact> 0.18846328E+03</totfact>
</mgrwt>
</event>
<event>
 5    1  0.8459321E-003  0.1062067E+03  0.7546771E-02  0.1393028E+00
         -2   -1    0    0    0  501  0.00000000000E+00  0.00000000000E+00  0.48280199932E+03  0.48280199932E+03  0.00000000000E+00 0.  1.
         -1   -1    0    0    0  502 -0.00000000000E+00 -0.00000000000E+00 -0.39615431523E+03  0.39615431523E+03  0.00000000000E+00 0.  1.
         25    1    1    2    0    0 -0.11293021647E+03  0.77835561580E+02  0.61563039860E+02  0.19551628146E+03  0.12500000000E+03 0.  0.
         -2    1    1    2    0  502  0.32243228971E+02 -0.14169229141E+02 -0.32073864628E+03  0.32266650289E+03  0.00000000000E+00 0.  1.
         -1    1    1    2    0  501  0.80686987495E+02 -0.63666332439E+02  0.34582329051E+03  0.36077353020E+03  0.00000000000E+00 0.  1.
<mgrwt>
<rscale>  0 0.61159751E+02</rscale>
<asrwt>0</asrwt>
<pdfrwt beam="1">  1       -2 0.74277231E-01 0.10620667E+03</pdfrwt>
<pdfrwt beam="2">  1       -1 0.60946818E-01 0.35219212E+02</pdfrwt>
<totfact> 0.37135641E+01</totfact>
</mgrwt>
</event>
<event>
 5    1  0.8459321E-003  0.1281897E+03  0.7546771E-02  0.1324628E+00
          1   -1    0    0  501    0 -0.00000000000E+00  0.00000000000E+00  0.48441236171E+03  0.48441236171E+03  0.00000000000E+00 0. -1.
          2   -1    0    0  502    0  0.00000000000E+00 -0.00000000000E+00 -0.85327320496E+03  0.85327320496E+03  0.00000000000E+00 0. -1.
         25    1    1    2    0    0  0.93204909516E+02  0.17702737620E+02 -0.32115333303E+03  0.35744231058E+03  0.12500000000E+03 0.  0.
          2    1    1    2  501    0 -0.12745369810E+03  0.21315034169E+02  0.45595440330E+03  0.47391264357E+03  0.00000000000E+00 0. -1.
          1    1    1    2  502    0  0.34248788580E+02 -0.39017771789E+02 -0.50366191352E+03  0.50633061251E+03  0.00000000000E+00 0. -1.
<mgrwt>
<rscale>  0 0.81579500E+02</rscale>
<asrwt>0</asrwt>
<pdfrwt beam="2">  1        2 0.13127280E+00 0.51916915E+02</pdfrwt>
<pdfrwt beam="1">  1        1 0.74524979E-01 0.12818972E+03</pdfrwt>
<totfact> 0.22895570E+02</totfact>
</mgrwt>
</event>
<event>
 5    1  0.8459321E-003  0.7155822E+02  0.7546771E-02  0.1443082E+00
          2   -1    0    0  502    0  0.00000000000E+00  0.00000000000E+00  0.10694835476E+04  0.10694835476E+04  0.00000000000E+00 0. -1.
         -2   -1    0    0    0  501 -0.00000000000E+00 -0.00000000000E+00 -0.63162830763E+02  0.63162830763E+02  0.00000000000E+00 0.  1.
         25    1    1    2    0    0 -0.41821129852E+01 -0.93366311362E+02  0.16257880159E+03  0.22536997336E+03  0.12500000000E+03 0.  0.
          1    1    1    2  502    0  0.26423113508E+02  0.65661120008E+02  0.86365367979E+03  0.86654904202E+03  0.00000000000E+00 0. -1.
         -1    1    1    2    0  501 -0.22241000523E+02  0.27705191354E+02 -0.19911764512E+02  0.40727363016E+02  0.00000000000E+00 0.  1.
<mgrwt>
<rscale>  0 0.50421439E+02</rscale>
<asrwt>0</asrwt>
<pdfrwt beam="1">  1        2 0.16453592E+00 0.71558223E+02</pdfrwt>
<pdfrwt beam="2">  1       -2 0.97173594E-02 0.35528013E+02</pdfrwt>
<totfact> 0.15448140E+03</totfact>
</mgrwt>
</event>
<event>
 5    1  0.8459321E-003  0.3325680E+03  0.7546771E-02  0.1240933E+00
          1   -1    0    0  501    0 -0.00000000000E+00  0.00000000000E+00  0.11886592900E+04  0.11886592900E+04  0.00000000000E+00 0. -1.
          2   -1    0    0  502    0  0.00000000000E+00 -0.00000000000E+00 -0.12929777460E+04  0.12929777460E+04  0.00000000000E+00 0. -1.
         25    1    1    2    0    0 -0.65487044347E+02  0.28800704256E+03  0.23204752072E+03  0.39586318522E+03  0.12500000000E+03 0.  0.
          2    1    1    2  501    0  0.10938887155E+02  0.42884936257E+02  0.85090175269E+03  0.85205197596E+03  0.00000000000E+00 0. -1.
          1    1    1    2  502    0  0.54548157192E+02 -0.33089197882E+03 -0.11872677294E+04  0.12337218748E+04  0.00000000000E+00 0. -1.
<mgrwt>
<rscale>  0 0.12132114E+03</rscale>
<asrwt>0</asrwt>
<pdfrwt beam="2">  1        2 0.19891965E+00 0.33256802E+03</pdfrwt>
<pdfrwt beam="1">  1        1 0.18287066E+00 0.44258073E+02</pdfrwt>
<totfact> 0.32306476E+01</totfact>
</mgrwt>
</event>
<event>
 5    1  0.8459321E-003  0.1247736E+03  0.7546771E-02  0.1369057E+00
          2   -1    0    0  502    0  0.00000000000E+00  0.00000000000E+00  0.90600724356E+03  0.90600724356E+03  0.00000000000E+00 0. -1.
          1   -1    0    0  501    0 -0.00000000000E+00 -0.00000000000E+00 -0.71133927332E+03  0.71133927332E+03  0.00000000000E+00 0. -1.
         25    1    1    2    0    0  0.95833759168E+02  0.59389641307E+02 -0.91108652326E+02  0.19140800772E+03  0.12500000000E+03 0.  0.
          2    1    1    2  501    0 -0.12525450428E+02  0.34220252664E+02 -0.56490378780E+03  0.56607791166E+03  0.00000000000E+00 0. -1.
          1    1    1    2  502    0 -0.83308308740E+02 -0.93609893970E+02  0.85068041037E+03  0.85986059750E+03  0.00000000000E+00 0. -1.
<mgrwt>
<rscale>  0 0.67430088E+02</rscale>
<asrwt>0</asrwt>
<pdfrwt beam="1">  1        2 0.13938573E+00 0.12477360E+03</pdfrwt>
<pdfrwt beam="2">  1        1 0.10943681E+00 0.36440535E+02</pdfrwt>
<totfact> 0.12817969E+02</totfact>
</mgrwt>
</event>
<event>
 5    1  0.8459321E-003  0.9711542E+02  0.7546771E-02  0.1469017E+00
          1   -1    0    0  502    0  0.00000000000E+00  0.00000000000E+00  0.42580962428E+03  0.42580962428E+03  0.00000000000E+00 0. -1.
         -1   -1    0    0    0  501 -0.00000000000E+00 -0.00000000000E+00 -0.65586111097E+02  0.65586111097E+02  0.00000000000E+00 0.  1.
         25    1    1    2    0    0  0.72972626218E+02  0.47804073495E+02  0.14113884818E+03  0.20773879774E+03  0.12500000000E+03 0.  0.
          2    1    1    2  502    0  0.20870217737E+01  0.21559310425E+02  0.16801553422E+03  0.16940595994E+03  0.00000000000E+00 0. -1.
         -2    1    1    2    0  501 -0.75059647992E+02 -0.69363383920E+02  0.51069130786E+02  0.11425097770E+03  0.00000000000E+00 0.  1.
<mgrwt>
<rscale>  0 0.45864243E+02</rscale>
<asrwt>0</asrwt>
<pdfrwt beam="1">  1        1 0.65509171E-01 0.21660091E+02</pdfrwt>
<pdfrwt beam="2">  1       -1 0.10090171E-01 0.97115420E+02</pdfrwt>
<totfact> 0.32691608E+03</totfact>
</mgrwt>
</event>
<event>
 5    1  0.8459321E-003  0.6138982E+02  0.7546771E-02  0.1398770E+00
          1   -1    0    0  501    0 -0.00000000000E+00  0.00000000000E+00  0.41359550484E+02  0.41359550484E+02  0.00000000000E+00 0. -1.
          2   -1    0    0  502    0  0.00000000000E+00 -0.00000000000E+00 -0.84641725073E+03  0.84641725073E+03  0.00000000000E+00 0. -1.
         25    1    1    2    0    0 -0.81016897214E+01 -0.13769226623E+02 -0.24761340201E+03  0.27783560937E+03  0.12500000000E+03 0.  0.
          2    1    1    2  501    0 -0.35777498158E+02  0.56703210861E+02 -0.21380038815E+02  0.70373216184E+02  0.00000000000E+00 0. -1.
          1    1    1    2  502    0  0.43879187879E+02 -0.42933984238E+02 -0.53606425942E+03  0.53956797566E+03  0.00000000000E+00 0. -1.
<mgrwt>
<rscale>  0 0.59776939E+02</rscale>
<asrwt>0</asrwt>
<pdfrwt beam="2">  1        2 0.13021803E+00 0.61389821E+02</pdfrwt>
<pdfrwt beam="1">  1        1 0.63630082E-02 0.58206431E+02</pdfrwt>
<totfact> 0.50019527E+03</totfact>
</mgrwt>
</event>
<event>
 5    1  0.8459321E-003  0.1336595E+03  0.7546771E-02  0.1418691E+00
          2   -1    0    0  502    0  0.00000000000E+00  0.00000000000E+00  0.36623593592E+04  0.36623593592E+04  0.00000000000E+00 0. -1.
         -2   -1    0    0    0  501 -0.00000000000E+00 -0.00000000000E+00 -0.46835768423E+03  0.46835768423E+03  0.00000000000E+00 0.  1.
         25    1    1    2    0    0  0.13141241198E+03 -0.21408240871E+01  0.28163888070E+03  0.33499143910E+03  0.12500000000E+03 0.  0.
          1    1    1    2  502    0 -0.13150462846E+03  0.25019296507E+02  0.33524112506E+04  0.33550828046E+04  0.00000000000E+00 0. -1.
         -1    1    1    2    0  501  0.92216489278E-01 -0.22878472420E+02 -0.44004845635E+03  0.44064279971E+03  0.00000000000E+00 0.  1.
<mgrwt>
<rscale>  0 0.55298745E+02</rscale>
<asrwt>0</asrwt>
<pdfrwt beam="1">  1        2 0.56343988E+00 0.13365955E+03</pdfrwt>
<pdfrwt beam="2">  1       -2 0.72055031E-01 0.22878658E+02</pdfrwt>
<totfact> 0.16778904E+00</totfact>
</mgrwt>
</event>
<event>
 5    1  0.8459321E-003  0.6218486E+02  0.7546771E-02  0.1489148E+00
          1   -1    0    0  501    0 -0.00000000000E+00  0.00000000000E+00  0.15195354059E+02  0.15195354059E+02  0.00000000000E+00 0. -1.
          2   -1    0    0  502    0  0.00000000000E+00 -0.00000000000E+00 -0.30860321563E+04  0.30860321563E+04  0.00000000000E+00 0. -1.
         25    1    1    2    0    0 -0.22099845686E+01 -0.36133717475E+02 -0.76853009735E+03  0.77947035871E+03  0.12500000000E+03 0.  0.
          2    1    1    2  501    0  0.91830718703E+01 -0.27863663314E+02 -0.13933350636E+02  0.32478466746E+02  0.00000000000E+00 0. -1.
          3    1    1    2  502    0 -0.69730873017E+01  0.63997380788E+02 -0.22883733543E+04  0.22892786849E+04  0.00000000000E+00 0. -1.
<mgrwt>
<rscale>  0 0.42712683E+02</rscale>
<asrwt>0</asrwt>
<pdfrwt beam="2">  1        2 0.47477436E+00 0.62184858E+02</pdfrwt>
<pdfrwt beam="1">  1        1 0.23377459E-02 0.29337903E+02</pdfrwt>
<totfact> 0.11592327E+03</totfact>
</mgrwt>
</event>
<event>
 5    1  0.8459321E-003  0.5033480E+02  0.7546771E-02  0.1501380E+00
          2   -1    0    0  502    0  0.00000000000E+00  0.00000000000E+00  0.31518756930E+04  0.31518756930E+04  0.00000000000E+00 0. -1.
         -2   -1    0    0    0  501 -0.00000000000E+00 -0.00000000000E+00 -0.48633404839E+01  0.48633404839E+01  0.00000000000E+00 0.  1.
         25    1    1    2    0    0 -0.67421068261E+01  0.76674446630E+02  0.21566980851E+04  0.21616882423E+04  0.12500000000E+03 0.  0.
          1    1    1    2  502    0 -0.86912945283E+01 -0.32150441628E+02  0.71175861895E+03  0.71253738228E+03  0.00000000000E+00 0. -1.
         -1    1    1    2    0  501  0.15433401354E+02 -0.44524005002E+02  0.27855564848E+03  0.28251340888E+03  0.00000000000E+00 0.  1.
<mgrwt>
<rscale>  0 0.40943560E+02</rscale>
<asrwt>0</asrwt>
<pdfrwt beam="1">  1        2 0.48490232E+00 0.33304497E+02</pdfrwt>
<pdfrwt beam="2">  1       -2 0.74820875E-03 0.50334799E+02</pdfrwt>
<totfact> 0.59573076E+03</totfact>
</mgrwt>
</event>
<event>
 5    1  0.8459321E-003  0.4917152E+02  0.7546771E-02  0.1482139E+00
          1   -1    0    0  502    0  0.00000000000E+00  0.00000000000E+00  0.28417096149E+03  0.28417096149E+03  0.00000000000E+00 0. -1.
         -1   -1    0    0    0  501 -0.00000000000E+00 -0.00000000000E+00 -0.25912200785E+03  0.25912200785E+03  0.00000000000E+00 0.  1.
         25    1    1    2    0    0  0.61949792382E+02 -0.16998833890E+02  0.39668952094E+02  0.14603206117E+03  0.12500000000E+03 0.  0.
          2    1    1    2  502    0 -0.32152979858E+02 -0.22019678919E+02  0.18634997187E+03  0.19038117657E+03  0.00000000000E+00 0. -1.
         -2    1    1    2    0  501 -0.29796812523E+02  0.39018512809E+02 -0.20096997032E+03  0.20687973161E+03  0.00000000000E+00 0.  1.
<mgrwt>
<rscale>  0 0.43774724E+02</rscale>
<asrwt>0</asrwt>
<pdfrwt beam="1">  1        1 0.43718610E-01 0.38970250E+02</pdfrwt>
<pdfrwt beam="2">  1       -1 0.39864924E-01 0.49171522E+02</pdfrwt>
<totfact> 0.57842052E+02</totfact>
</mgrwt>
</event>
<event>
 5    1  0.8459321E-003  0.5722053E+02  0.7546771E-02  0.1461186E+00
          1   -1    0    0  501    0 -0.00000000000E+00  0.00000000000E+00  0.48652893025E+02  0.48652893025E+02  0.00000000000E+00 0. -1.
          2   -1    0    0  502    0  0.00000000000E+00 -0.00000000000E+00 -0.88117611621E+03  0.88117611621E+03  0.00000000000E+00 0. -1.
         25    1    1    2    0    0  0.15156039799E+02  0.33892639459E+02 -0.53328221136E+03  0.54899301772E+03  0.12500000000E+03 0.  0.
          2    1    1    2  501    0 -0.19613967273E+02  0.33590748894E+02  0.27198922292E+02  0.47463959983E+02  0.00000000000E+00 0. -1.
          1    1    1    2  502    0  0.44579274744E+01 -0.67483388354E+02 -0.32643993412E+03  0.33337203154E+03  0.00000000000E+00 0. -1.
<mgrwt>
<rscale>  0 0.47177942E+02</rscale>
<asrwt>0</asrwt>
<pdfrwt beam="2">  1        2 0.13556557E+00 0.57220534E+02</pdfrwt>
<pdfrwt beam="1">  1        1 0.74850599E-02 0.38897894E+02</pdfrwt>
<totfact> 0.37180899E+03</totfact>
</mgrwt>
</event>
<event>
 5    1  0.8459321E-003  0.1227255E+03  0.7546771E-02  0.1391385E+00
          2   -1    0    0  502    0  0.00000000000E+00  0.00000000000E+00  0.31738975034E+04  0.31738975034E+04  0.00000000000E+00 0. -1.
         -2   -1    0    0    0  501 -0.00000000000E+00 -0.00000000000E+00 -0.21329091676E+03  0.21329091676E+03  0.00000000000E+00 0.  1.
         25    1    1    2    0    0 -0.99607689600E+02 -0.10037641231E+02  0.29365968783E+03  0.33448984787E+03  0.12500000000E+03 0.  0.
          1    1    1    2  502    0  0.11972581042E+03  0.33468207824E+02  0.28572262342E+04  0.28599293949E+04  0.00000000000E+00 0. -1.
         -1    1    1    2    0  501 -0.20118120822E+02 -0.23430566593E+02 -0.19027933543E+03  0.19276917733E+03  0.00000000000E+00 0.  1.
<mgrwt>
<rscale>  0 0.61563577E+02</rscale>
<asrwt>0</asrwt>
<pdfrwt beam="1">  1        2 0.48829189E+00 0.12272553E+03</pdfrwt>
<pdfrwt beam="2">  1       -2 0.32813989E-01 0.30882523E+02</pdfrwt>
<totfact> 0.15582910E+01</totfact>
</mgrwt>
</event>
<event>
 5    1  0.8459321E-003  0.9795559E+02  0.7546771E-02  0.1473672E+00
          2   -1    0    0  502    0  0.00000000000E+00  0.00000000000E+00  0.17958801706E+04  0.17958801706E+04  0.00000000000E+00 0. -1.
          1   -1    0    0  501    0 -0.00000000000E+00 -0.00000000000E+00 -0.39606315306E+03  0.39606315306E+03  0.00000000000E+00 0. -1.
         25    1    1    2    0    0 -0.32074680218E+02  0.10029799371E+03  0.87029864946E+02  0.18516930104E+03  0.12500000000E+03 0.  0.
          2    1    1    2  501    0  0.20525336290E+02 -0.31878756028E+01 -0.34524050165E+03  0.34586479433E+03  0.00000000000E+00 0. -1.
          1    1    1    2  502    0  0.11549343928E+02 -0.97110118111E+02  0.16580276542E+04  0.16609092283E+04  0.00000000000E+00 0. -1.
<mgrwt>
<rscale>  0 0.45107394E+02</rscale>
<asrwt>0</asrwt>
<pdfrwt beam="1">  1        2 0.27628925E+00 0.97955592E+02</pdfrwt>
<pdfrwt beam="2">  1        1 0.60932793E-01 0.20771422E+02</pdfrwt>
<totfact> 0.90406672E+01</totfact>
</mgrwt>
</event>
<event>
 5    1  0.8459321E-003  0.7970565E+02  0.7546771E-02  0.1407809E+00
         -2   -1    0    0    0  501 -0.00000000000E+00  0.00000000000E+00  0.11534175234E+02  0.11534175234E+02  0.00000000000E+00 0.  1.
          2   -1    0    0  502    0  0.00000000000E+00 -0.00000000000E+00 -0.23045069882E+04  0.23045069882E+04  0.00000000000E+00 0. -1.
         25    1    1    2    0    0  0.48842773558E+02 -0.20629375127E+02 -0.93566635625E+03  0.94546693113E+03  0.12500000000E+03 0.  0.
          1    1    1    2  502    0 -0.88477311199E+02  0.75109006168E+01 -0.12768225492E+04  0.12799064303E+04  0.00000000000E+00 0. -1.
         -1    1    1    2    0  501  0.39634537642E+02  0.13118474511E+02 -0.80483907522E+02  0.90667801989E+02  0.00000000000E+00 0.  1.
<mgrwt>
<rscale>  0 0.57685721E+02</rscale>
<asrwt>0</asrwt>
<pdfrwt beam="2">  1        2 0.35453989E+00 0.79705646E+02</pdfrwt>
<pdfrwt beam="1">  1       -2 0.17744867E-02 0.41749143E+02</pdfrwt>
<totfact> 0.42396208E+03</totfact>
</mgrwt>
</event>
<event>
 5    1  0.8459321E-003  0.1694586E+03  0.7546771E-02  0.1181135E+00
          1   -1    0    0  501    0 -0.00000000000E+00  0.00000000000E+00  0.90738352021E+03  0.90738352021E+03  0.00000000000E+00 0. -1.
          2   -1    0    0  502    0  0.00000000000E+00 -0.00000000000E+00 -0.32036133739E+03  0.32036133739E+03  0.00000000000E+00 0. -1.
         25    1    1    2    0    0 -0.10401603605E+03 -0.54319962663E+02  0.72355373835E+02  0.18609216594E+03  0.12500000000E+03 0.  0.
          2    1    1    2  501    0  0.81134246265E+02 -0.14292833124E+03  0.73027241925E+03  0.74853796170E+03  0.00000000000E+00 0. -1.
          1    1    1    2  502    0  0.22881789788E+02  0.19724829390E+03 -0.21560561026E+03  0.29311472997E+03  0.00000000000E+00 0. -1.
<mgrwt>
<rscale>  0 0.16688532E+03</rscale>
<asrwt>0</asrwt>
<pdfrwt beam="2">  1        2 0.49286360E-01 0.16945864E+03</pdfrwt>
<pdfrwt beam="1">  1        1 0.13959746E+00 0.16435107E+03</pdfrwt>
<totfact> 0.26933403E+02</totfact>
</mgrwt>
</event>
<event>
 5    1  0.8459321E-003  0.7857620E+02  0.7546771E-02  0.1412237E+00
          2   -1    0    0  502    0  0.00000000000E+00  0.00000000000E+00  0.96161157316E+03  0.96161157316E+03  0.00000000000E+00 0. -1.
          1   -1    0    0  501    0 -0.00000000000E+00 -0.00000000000E+00 -0.68723359544E+03  0.68723359544E+03  0.00000000000E+00 0. -1.
         25    1    1    2    0    0 -0.21232804551E+02 -0.37218144099E+02  0.50581812512E+03  0.52279345629E+03  0.12500000000E+03 0.  0.
          2    1    1    2  501    0  0.14019353593E+02  0.77487925753E+02 -0.67551856371E+03  0.68009282516E+03  0.00000000000E+00 0. -1.
          1    1    1    2  502    0  0.72134509584E+01 -0.40269781654E+02  0.44407841632E+03  0.44595888716E+03  0.00000000000E+00 0. -1.
<mgrwt>
<rscale>  0 0.56697539E+02</rscale>
<asrwt>0</asrwt>
<pdfrwt beam="1">  1        2 0.14794024E+00 0.40910747E+02</pdfrwt>
<pdfrwt beam="2">  1        1 0.10572825E+00 0.78576198E+02</pdfrwt>
<totfact> 0.12701740E+02</totfact>
</mgrwt>
</event>
<event>
 5    1  0.8459321E-003  0.1312373E+03  0.7546771E-02  0.1379502E+00
          2   -1    0    0  502    0  0.00000000000E+00  0.00000000000E+00  0.22101165195E+04  0.22101165195E+04  0.00000000000E+00 0. -1.
         -2   -1    0    0    0  501 -0.00000000000E+00 -0.00000000000E+00 -0.15299957101E+02  0.15299957101E+02  0.00000000000E+00 0.  1.
         25    1    1    2    0    0 -0.20761478596E+02 -0.14669604452E+03  0.12051055882E+04  0.12205962671E+04  0.12500000000E+03 0.  0.
          1    1    1    2  502    0 -0.22267903715E+00  0.12281109089E+03  0.92049430208E+03  0.92865083524E+03  0.00000000000E+00 0. -1.
         -1    1    1    2    0  501  0.20984157633E+02  0.23884953630E+02  0.69216672158E+02  0.76169374331E+02  0.00000000000E+00 0.  1.
<mgrwt>
<rscale>  0 0.64594817E+02</rscale>
<asrwt>0</asrwt>
<pdfrwt beam="1">  1        2 0.34001767E+00 0.13123726E+03</pdfrwt>
<pdfrwt beam="2">  1       -2 0.23538413E-02 0.31793488E+02</pdfrwt>
<totfact> 0.28705392E+03</totfact>
</mgrwt>
</event>
<event>
 5    1  0.8459321E-003  0.7633850E+02  0.7546771E-02  0.1423961E+00
          1   -1    0    0  501    0 -0.00000000000E+00  0.00000000000E+00  0.68915064828E+03  0.68915064828E+03  0.00000000000E+00 0. -1.
          2   -1    0    0  502    0  0.00000000000E+00 -0.00000000000E+00 -0.32522339117E+03  0.32522339117E+03  0.00000000000E+00 0. -1.
         25    1    1    2    0    0 -0.10059377652E+03  0.14606777419E+02  0.11547932209E+03  0.19822446784E+03  0.12500000000E+03 0.  0.
          2    1    1    2  501    0  0.33089078085E+02  0.19622567164E+02  0.52653914246E+03  0.52794261125E+03  0.00000000000E+00 0. -1.
          1    1    1    2  502    0  0.67504698439E+02 -0.34229344582E+02 -0.27809120744E+03  0.28820696035E+03  0.00000000000E+00 0. -1.
<mgrwt>
<rscale>  0 0.54191637E+02</rscale>
<asrwt>0</asrwt>
<pdfrwt beam="2">  1        2 0.50034368E-01 0.76338501E+02</pdfrwt>
<pdfrwt beam="1">  1        1 0.10602318E+00 0.38469887E+02</pdfrwt>
<totfact> 0.42549325E+02</totfact>
</mgrwt>
</event>
<event>
 5    1  0.8459321E-003  0.5796628E+02  0.7546771E-02  0.1493958E+00
          1   -1    0    0  502    0  0.00000000000E+00  0.00000000000E+00  0.13853392914E+04  0.13853392914E+04  0.00000000000E+00 0. -1.
         -1   -1    0    0    0  501 -0.00000000000E+00 -0.00000000000E+00 -0.13578794392E+03  0.13578794392E+03  0.00000000000E+00 0.  1.
         25    1    1    2    0    0 -0.31583895441E+02 -0.59370702684E+02  0.51425825721E+03  0.53348756115E+03  0.12500000000E+03 0.  0.
          2    1    1    2  502    0 -0.15793818358E+02  0.26019654720E+02  0.85452965976E+03  0.85507157977E+03  0.00000000000E+00 0. -1.
         -2    1    1    2    0  501  0.47377713799E+02  0.33351047964E+02 -0.11923656946E+03  0.13256809444E+03  0.00000000000E+00 0.  1.
<mgrwt>
<rscale>  0 0.42004441E+02</rscale>
<asrwt>0</asrwt>
<pdfrwt beam="1">  1        1 0.21312911E+00 0.30437923E+02</pdfrwt>
<pdfrwt beam="2">  1       -1 0.20890454E-01 0.57966278E+02</pdfrwt>
<totfact> 0.18750311E+02</totfact>
</mgrwt>
</event>
<event>
 5    1  0.8459321E-003  0.4147370E+02  0.7546771E-02  0.1554673E+00
         -2   -1    0    0    0  501 -0.00000000000E+00  0.00000000000E+00  0.45435249786E+02  0.45435249786E+02  0.00000000000E+00 0.  1.
          2   -1    0    0  502    0  0.00000000000E+00 -0.00000000000E+00 -0.23556333557E+04  0.23556333557E+04  0.00000000000E+00 0. -1.
         25    1    1    2    0    0  0.18351022426E+02 -0.67089419673E+02 -0.22256340905E+03  0.26456987981E+03  0.12500000000E+03 0.  0.
          1    1    1    2  502    0 -0.94980827156E+01  0.40094694155E+02 -0.21035376585E+04  0.21039411776E+04  0.00000000000E+00 0. -1.
         -1    1    1    2    0  501 -0.88529397108E+01  0.26994725518E+02  0.15902961640E+02  0.32557548069E+02  0.00000000000E+00 0.  1.
<mgrwt>
<rscale>  0 0.34325498E+02</rscale>
<asrwt>0</asrwt>
<pdfrwt beam="2">  1        2 0.36240520E+00 0.41473699E+02</pdfrwt>
<pdfrwt beam="1">  1       -2 0.69900372E-02 0.28409325E+02</pdfrwt>
<totfact> 0.58755701E+02</totfact>
</mgrwt>
</event>
<event>
 5    1  0.8459321E-003  0.4604932E+02  0.7546771E-02  0.1547819E+00
          2   -1    0    0  502    0  0.00000000000E+00  0.00000000000E+00  0.14745330555E+04  0.14745330555E+04  0.00000000000E+00 0. -1.
         -2   -1    0    0    0  501 -0.00000000000E+00 -0.00000000000E+00 -0.50126335306E+02  0.50126335306E+02  0.00000000000E+00 0.  1.
         25    1    1    2    0    0 -0.20750913794E+02 -0.84598907629E+00  0.51939953921E+03  0.53463276878E+03  0.12500000000E+03 0.  0.
          1    1    1    2  502    0 -0.25242557964E+02  0.88109112182E+01  0.93445403485E+03  0.93483643604E+03  0.00000000000E+00 0. -1.
         -1    1    1    2    0  501  0.45993471758E+02 -0.79649221419E+01 -0.29446853856E+02  0.55190186003E+02  0.00000000000E+00 0.  1.
<mgrwt>
<rscale>  0 0.35088163E+02</rscale>
<asrwt>0</asrwt>
<pdfrwt beam="1">  1        2 0.22685121E+00 0.26736097E+02</pdfrwt>
<pdfrwt beam="2">  1       -2 0.77117450E-02 0.46049323E+02</pdfrwt>
<totfact> 0.14899558E+03</totfact>
</mgrwt>
</event>
<event>
 5    1  0.8459321E-003  0.3515057E+02  0.7546771E-02  0.1572999E+00
          2   -1    0    0  502    0  0.00000000000E+00  0.00000000000E+00  0.12487336750E+04  0.12487336750E+04  0.00000000000E+00 0. -1.
          1   -1    0    0  501    0 -0.00000000000E+00 -0.00000000000E+00 -0.46423482072E+02  0.46423482072E+02  0.00000000000E+00 0. -1.
         25    1    1    2    0    0 -0.15622131686E+02  0.43690259270E+02  0.67566843250E+02  0.14947631271E+03  0.12500000000E+03 0.  0.
          2    1    1    2  501    0  0.27861847992E+02 -0.10742821795E+02  0.37787589672E+02  0.48162150356E+02  0.00000000000E+00 0. -1.
          1    1    1    2  502    0 -0.12239716306E+02 -0.32947437475E+02  0.10969557600E+04  0.10975186940E+04  0.00000000000E+00 0. -1.
<mgrwt>
<rscale>  0 0.32398114E+02</rscale>
<asrwt>0</asrwt>
<pdfrwt beam="1">  1        2 0.19211285E+00 0.35150566E+02</pdfrwt>
<pdfrwt beam="2">  1        1 0.71420751E-02 0.29861192E+02</pdfrwt>
<totfact> 0.24783787E+03</totfact>
</mgrwt>
</event>
<event>
 5    1  0.8459321E-003  0.6127452E+02  0.7546771E-02  0.1540970E+00
          1   -1    0    0  501    0 -0.00000000000E+00  0.00000000000E+00  0.23102720229E+03  0.23102720229E+03  0.00000000000E+00 0. -1.
          2   -1    0    0  502    0  0.00000000000E+00 -0.00000000000E+00 -0.33067589160E+04  0.33067589160E+04  0.00000000000E+00 0. -1.
         25    1    1    2    0    0 -0.63806315379E+02  0.45418605622E+02 -0.19783301912E+04  0.19838219277E+04  0.12500000000E+03 0.  0.
          2    1    1    2  501    0  0.16019776752E+02 -0.13583416179E+02  0.22717491293E+03  0.22814377815E+03  0.00000000000E+00 0. -1.
          1    1    1    2  502    0  0.47786538627E+02 -0.31835189443E+02 -0.13245764355E+04  0.13258204124E+04  0.00000000000E+00 0. -1.
<mgrwt>
<rscale>  0 0.35874402E+02</rscale>
<asrwt>0</asrwt>
<pdfrwt beam="2">  1        2 0.50873215E+00 0.61274519E+02</pdfrwt>
<pdfrwt beam="1">  1        1 0.35542646E-01 0.21003391E+02</pdfrwt>
<totfact> 0.28123106E+01</totfact>
</mgrwt>
</event>
<event>
 5    1  0.8459321E-003  0.8712114E+02  0.7546771E-02  0.1455354E+00
          2   -1    0    0  502    0  0.00000000000E+00  0.00000000000E+00  0.46450352668E+03  0.46450352668E+03  0.00000000000E+00 0. -1.
          1   -1    0    0  501    0 -0.00000000000E+00 -0.00000000000E+00 -0.82393144808E+03  0.82393144808E+03  0.00000000000E+00 0. -1.
         25    1    1    2    0    0 -0.59577798096E+02  0.61666918020E+02  0.13978449922E+03  0.20619657860E+03  0.12500000000E+03 0.  0.
          2    1    1    2  501    0  0.38641747681E+02 -0.78166236626E+02 -0.78770525685E+03  0.79251669817E+03  0.00000000000E+00 0. -1.
          1    1    1    2  502    0  0.20936050415E+02  0.16499318606E+02  0.28849283623E+03  0.28972169798E+03  0.00000000000E+00 0. -1.
<mgrwt>
<rscale>  0 0.48190317E+02</rscale>
<asrwt>0</asrwt>
<pdfrwt beam="1">  1        2 0.71462082E-01 0.26656064E+02</pdfrwt>
<pdfrwt beam="2">  1        1 0.12675868E+00 0.87121139E+02</pdfrwt>
<totfact> 0.22060381E+02</totfact>
</mgrwt>
</event>
<event>
 5    1  0.8459321E-003  0.1655973E+03  0.7546771E-02  0.1283131E+00
          2   -1    0    0  502    0  0.00000000000E+00  0.00000000000E+00  0.12163175969E+04  0.12163175969E+04  0.00000000000E+00 0. -1.
         -2   -1    0    0    0  501 -0.00000000000E+00 -0.00000000000E+00 -0.20916504482E+03  0.20916504482E+03  0.00000000000E+00 0.  1.
         25    1    1    2    0    0  0.11482923385E+03 -0.10716386939E+03  0.21206887103E+03  0.29200694155E+03  0.12500000000E+03 0.  0.
          1    1    1    2  502    0 -0.15574325644E+03  0.64954079535E+02  0.95151587255E+03  0.96636300120E+03  0.00000000000E+00 0. -1.
         -1    1    1    2    0  501  0.40914022591E+02  0.42209789859E+02 -0.15643219153E+03  0.16711269895E+03  0.00000000000E+00 0.  1.
<mgrwt>
<rscale>  0 0.98663881E+02</rscale>
<asrwt>0</asrwt>
<pdfrwt beam="1">  1        2 0.18712578E+00 0.16559727E+03</pdfrwt>
<pdfrwt beam="2">  1       -2 0.32179238E-01 0.58784552E+02</pdfrwt>
<totfact> 0.17834947E+02</totfact>
</mgrwt>
</event>
<event>
 5    1  0.8459321E-003  0.5610408E+02  0.7546771E-02  0.1443789E+00
          1   -1    0    0  501    0 -0.00000000000E+00  0.00000000000E+00  0.57399600642E+03  0.57399600642E+03  0.00000000000E+00 0. -1.
          2   -1    0    0  502    0  0.00000000000E+00 -0.00000000000E+00 -0.97309837708E+03  0.97309837708E+03  0.00000000000E+00 0. -1.
         25    1    1    2    0    0 -0.11911650696E+02  0.75271282937E+02 -0.52412680343E+03  0.54418890060E+03  0.12500000000E+03 0.  0.
          2    1    1    2  501    0 -0.25415313670E+02 -0.50000728268E+02  0.56140651265E+03  0.56420145643E+03  0.00000000000E+00 0. -1.
          1    1    1    2  502    0  0.37326964367E+02 -0.25270554668E+02 -0.43638207988E+03  0.43870402647E+03  0.00000000000E+00 0. -1.
<mgrwt>
<rscale>  0 0.50288998E+02</rscale>
<asrwt>0</asrwt>
<pdfrwt beam="2">  1        2 0.14970744E+00 0.45076637E+02</pdfrwt>
<pdfrwt beam="1">  1        1 0.88307080E-01 0.56104082E+02</pdfrwt>
<totfact> 0.16038383E+02</totfact>
</mgrwt>
</event>
<event>
 5    1  0.8459321E-003  0.1302358E+03  0.7546771E-02  0.1385922E+00
          1   -1    0    0  501    0 -0.00000000000E+00  0.00000000000E+00  0.18039637226E+04  0.18039637226E+04  0.00000000000E+00 0. -1.
          2   -1    0    0  502    0  0.00000000000E+00 -0.00000000000E+00 -0.24033799513E+03  0.24033799513E+03  0.00000000000E+00 0. -1.
         25    1    1    2    0    0 -0.13628253235E+02 -0.10108836251E+03 -0.60294533926E+02  0.17223535393E+03  0.12500000000E+03 0.  0.
          2    1    1    2  501    0  0.28251014807E+02  0.12775199034E+03  0.17436413944E+04  0.17485433947E+04  0.00000000000E+00 0. -1.
          1    1    1    2  502    0 -0.14622761572E+02 -0.26663627830E+02 -0.11972113301E+03  0.12352296910E+03  0.00000000000E+00 0. -1.
<mgrwt>
<rscale>  0 0.62932383E+02</rscale>
<asrwt>0</asrwt>
<pdfrwt beam="2">  1        2 0.36975077E-01 0.30410100E+02</pdfrwt>
<pdfrwt beam="1">  1        1 0.27753287E+00 0.13023584E+03</pdfrwt>
<totfact> 0.89705897E+01</totfact>
</mgrwt>
</event>
<event>
 5    1  0.8459321E-003  0.5800084E+02  0.7546771E-02  0.1459028E+00
          2   -1    0    0  502    0  0.00000000000E+00  0.00000000000E+00  0.36719024724E+04  0.36719024724E+04  0.00000000000E+00 0. -1.
          1   -1    0    0  501    0 -0.00000000000E+00 -0.00000000000E+00 -0.45551289484E+03  0.45551289484E+03  0.00000000000E+00 0. -1.
         25    1    1    2    0    0  0.93963673994E+02 -0.11187207473E+02 -0.89268961346E+02  0.18041139959E+03  0.12500000000E+03 0.  0.
          2    1    1    2  501    0 -0.36126249809E+02  0.14642008116E+02 -0.31925572884E+03  0.32162666979E+03  0.00000000000E+00 0. -1.
          1    1    1    2  502    0 -0.57837424185E+02 -0.34548006433E+01  0.36249142678E+04  0.36253772979E+04  0.00000000000E+00 0. -1.
<mgrwt>
<rscale>  0 0.47549056E+02</rscale>
<asrwt>0</asrwt>
<pdfrwt beam="1">  1        2 0.56490805E+00 0.58000837E+02</pdfrwt>
<pdfrwt beam="2">  1        1 0.70078909E-01 0.38980692E+02</pdfrwt>
<totfact> 0.76031352E+00</totfact>
</mgrwt>
</event>
<event>
 5    1  0.8459321E-003  0.1254317E+03  0.7546771E-02  0.1285748E+00
          2   -1    0    0  502    0  0.00000000000E+00  0.00000000000E+00  0.17172276481E+04  0.17172276481E+04  0.00000000000E+00 0. -1.
          1   -1    0    0  501    0 -0.00000000000E+00 -0.00000000000E+00 -0.11844173403E+04  0.11844173403E+04  0.00000000000E+00 0. -1.
         25    1    1    2    0    0  0.65776695948E+02 -0.44807749834E+02  0.33136893669E+03  0.36299405006E+03  0.12500000000E+03 0.  0.
          2    1    1    2  501    0 -0.12601447407E+03 -0.10604581656E+01 -0.11641557126E+04  0.11709565728E+04  0.00000000000E+00 0. -1.
          1    1    1    2  502    0  0.60237778120E+02  0.45868207999E+02  0.13655970837E+04  0.13676943656E+04  0.00000000000E+00 0. -1.
<mgrwt>
<rscale>  0 0.97451687E+02</rscale>
<asrwt>0</asrwt>
<pdfrwt beam="1">  1        2 0.26418887E+00 0.75713159E+02</pdfrwt>
<pdfrwt beam="2">  1        1 0.18221805E+00 0.12543171E+03</pdfrwt>
<totfact> 0.20122148E+01</totfact>
</mgrwt>
</event>
<event>
 5    1  0.8459321E-003  0.3792757E+02  0.7546771E-02  0.1552437E+00
          1   -1    0    0  501    0 -0.00000000000E+00  0.00000000000E+00  0.30335254231E+03  0.30335254231E+03  0.00000000000E+00 0. -1.
          2   -1    0    0  502    0  0.00000000000E+00 -0.00000000000E+00 -0.42547242345E+03  0.42547242345E+03  0.00000000000E+00 0. -1.
         25    1    1    2    0    0 -0.91728762762E+01  0.56153355568E+01  0.19981181874E+01  0.12547775153E+03  0.12500000000E+03 0.  0.
          2    1    1    2  501    0  0.38045580405E+02  0.70108022987E+01  0.23736314936E+03  0.24049507732E+03  0.00000000000E+00 0. -1.
          1    1    1    2  502    0 -0.28872704129E+02 -0.12626137856E+02 -0.36148114869E+03  0.36285213691E+03  0.00000000000E+00 0. -1.
<mgrwt>
<rscale>  0 0.34571687E+02</rscale>
<asrwt>0</asrwt>
<pdfrwt beam="2">  1        2 0.65457296E-01 0.31512734E+02</pdfrwt>
<pdfrwt beam="1">  1        1 0.46669622E-01 0.37927573E+02</pdfrwt>
<totfact> 0.88761792E+02</totfact>
</mgrwt>
</event>
<event>
 5    1  0.8459321E-003  0.4218070E+02  0.7546771E-02  0.1519724E+00
          1   -1    0    0  502    0  0.00000000000E+00  0.00000000000E+00  0.36574838201E+03  0.36574838201E+03  0.00000000000E+00 0. -1.
         -1   -1    0    0    0  501 -0.00000000000E+00 -0.00000000000E+00 -0.10419797962E+04  0.10419797962E+04  0.00000000000E+00 0.  1.
         25    1    1    2    0    0 -0.49113529645E+02  0.37655554869E+02 -0.65413823594E+03  0.66884371218E+03  0.12500000000E+03 0.  0.
          2    1    1    2  502    0  0.88326244796E+01 -0.33969774542E+02  0.35645623100E+03  0.35818012991E+03  0.00000000000E+00 0. -1.
         -2    1    1    2    0  501  0.40280905165E+02 -0.36857803264E+01 -0.37854940926E+03  0.38070433613E+03  0.00000000000E+00 0.  1.
<mgrwt>
<rscale>  0 0.38477437E+02</rscale>
<asrwt>0</asrwt>
<pdfrwt beam="1">  1        1 0.56268983E-01 0.35099300E+02</pdfrwt>
<pdfrwt beam="2">  1       -1 0.16030458E+00 0.42180704E+02</pdfrwt>
<totfact> 0.25261320E+01</totfact>
</mgrwt>
</event>
<event>
 5    1  0.8459321E-003  0.5583841E+02  0.7546771E-02  0.1472672E+00
          2   -1    0    0  502    0  0.00000000000E+00  0.00000000000E+00  0.26124456338E+04  0.26124456338E+04  0.00000000000E+00 0. -1.
          1   -1    0    0  501    0 -0.00000000000E+00 -0.00000000000E+00 -0.11234299656E+03  0.11234299656E+03  0.00000000000E+00 0. -1.
         25    1    1    2    0    0  0.54023676869E+02 -0.53723671382E+02  0.20988728432E+03  0.25589541350E+03  0.12500000000E+03 0.  0.
          2    1    1    2  501    0 -0.36690220409E+02  0.82547540390E+00 -0.85230112153E+02  0.92795612509E+02  0.00000000000E+00 0. -1.
          1    1    1    2  502    0 -0.17333456461E+02  0.52898195978E+02  0.23754454651E+04  0.23760976044E+04  0.00000000000E+00 0. -1.
<mgrwt>
<rscale>  0 0.45268556E+02</rscale>
<asrwt>0</asrwt>
<pdfrwt beam="1">  1        2 0.40191467E+00 0.55838414E+02</pdfrwt>
<pdfrwt beam="2">  1        1 0.17283540E-01 0.36699505E+02</pdfrwt>
<totfact> 0.16752541E+02</totfact>
</mgrwt>
</event>
<event>
 5    1  0.8459321E-003  0.8056997E+02  0.7546771E-02  0.1349904E+00
          2   -1    0    0  502    0  0.00000000000E+00  0.00000000000E+00  0.87695229009E+03  0.87695229009E+03  0.00000000000E+00 0. -1.
         -2   -1    0    0    0  501 -0.00000000000E+00 -0.00000000000E+00 -0.98413162947E+02  0.98413162947E+02  0.00000000000E+00 0.  1.
         25    1    1    2    0    0  0.26878964051E+02  0.37632377332E+02  0.41652475500E+03  0.43732887632E+03  0.12500000000E+03 0.  0.
          3    1    1    2  502    0  0.56127020096E+02 -0.35283888536E+02  0.42729629948E+03  0.43240874497E+03  0.00000000000E+00 0. -1.
         -1    1    1    2    0  501 -0.83005984147E+02 -0.23484887960E+01 -0.65281927339E+02  0.10562783175E+03  0.00000000000E+00 0.  1.
<mgrwt>
<rscale>  0 0.73085488E+02</rscale>
<asrwt>0</asrwt>
<pdfrwt beam="1">  1        2 0.13491573E+00 0.66296268E+02</pdfrwt>
<pdfrwt beam="2">  1       -2 0.15140487E-01 0.80569974E+02</pdfrwt>
<totfact> 0.10683930E+03</totfact>
</mgrwt>
</event>
<event>
 5    1  0.8459321E-003  0.1821557E+03  0.7546771E-02  0.1290621E+00
          2   -1    0    0  502    0  0.00000000000E+00  0.00000000000E+00  0.12410659788E+04  0.12410659788E+04  0.00000000000E+00 0. -1.
         -2   -1    0    0    0  501 -0.00000000000E+00 -0.00000000000E+00 -0.23228052315E+03  0.23228052315E+03  0.00000000000E+00 0.  1.
         25    1    1    2    0    0 -0.13830558599E+03  0.67104143646E+02  0.36270801185E+03  0.41329590256E+03  0.12500000000E+03 0.  0.
          1    1    1    2  502    0  0.16025854173E+03 -0.11180819323E+03  0.83866438000E+03  0.86112822190E+03  0.00000000000E+00 0. -1.
         -1    1    1    2    0  501 -0.21952955735E+02  0.44704049583E+02 -0.19258693614E+03  0.19892237754E+03  0.00000000000E+00 0.  1.
<mgrwt>
<rscale>  0 0.95246971E+02</rscale>
<asrwt>0</asrwt>
<pdfrwt beam="1">  1        2 0.19093322E+00 0.18215574E+03</pdfrwt>
<pdfrwt beam="2">  1       -2 0.35735466E-01 0.49803457E+02</pdfrwt>
<totfact> 0.14170662E+02</totfact>
</mgrwt>
</event>
<event>
 5    1  0.8459321E-003  0.5681386E+02  0.7546771E-02  0.1498515E+00
         -2   -1    0    0    0  501 -0.00000000000E+00  0.00000000000E+00  0.43338760811E+03  0.43338760811E+03  0.00000000000E+00 0.  1.
          2   -1    0    0  502    0  0.00000000000E+00 -0.00000000000E+00 -0.10992227931E+04  0.10992227931E+04  0.00000000000E+00 0. -1.
         25    1    1    2    0    0  0.44788684409E+01  0.85661870751E+02 -0.18278768055E+03  0.23747495136E+03  0.12500000000E+03 0.  0.
          1    1    1    2  502    0 -0.57096879265E+01 -0.55593846324E+02 -0.88765391855E+03  0.88941146575E+03  0.00000000000E+00 0. -1.
         -1    1    1    2    0  501  0.12308194856E+01 -0.30068024427E+02  0.40460641407E+03  0.40572398415E+03  0.00000000000E+00 0.  1.
<mgrwt>
<rscale>  0 0.41348655E+02</rscale>
<asrwt>0</asrwt>
<pdfrwt beam="2">  1        2 0.16911120E+00 0.56813864E+02</pdfrwt>
<pdfrwt beam="1">  1       -2 0.66675017E-01 0.30093205E+02</pdfrwt>
<totfact> 0.54747611E+01</totfact>
</mgrwt>
</event>
<event>
 5    1  0.8459321E-003  0.8400675E+02  0.7546771E-02  0.1349244E+00
         -2   -1    0    0    0  501 -0.00000000000E+00  0.00000000000E+00  0.38299009616E+02  0.38299009616E+02  0.00000000000E+00 0.  1.
          2   -1    0    0  502    0  0.00000000000E+00 -0.00000000000E+00 -0.12120474557E+04  0.12120474557E+04  0.00000000000E+00 0. -1.
         25    1    1    2    0    0  0.81794919852E+01 -0.48710820637E+02 -0.43071074886E+03  0.45119441189E+03  0.12500000000E+03 0.  0.
          1    1    1    2  502    0  0.42393806344E+02  0.87839751711E+02 -0.72661725482E+03  0.73313415675E+03  0.00000000000E+00 0. -1.
         -1    1    1    2    0  501 -0.50573298329E+02 -0.39128931074E+02 -0.16420442390E+02  0.66017896658E+02  0.00000000000E+00 0.  1.
<mgrwt>
<rscale>  0 0.73291609E+02</rscale>
<asrwt>0</asrwt>
<pdfrwt beam="2">  1        2 0.18646883E+00 0.84006754E+02</pdfrwt>
<pdfrwt beam="1">  1       -2 0.58921555E-02 0.63943192E+02</pdfrwt>
<totfact> 0.28551979E+03</totfact>
</mgrwt>
</event>
<event>
 5    1  0.8459321E-003  0.6429317E+02  0.7546771E-02  0.1409229E+00
          1   -1    0    0  501    0 -0.00000000000E+00  0.00000000000E+00  0.27521432907E+04  0.27521432907E+04  0.00000000000E+00 0. -1.
          2   -1    0    0  502    0  0.00000000000E+00 -0.00000000000E+00 -0.12017575097E+03  0.12017575097E+03  0.00000000000E+00 0. -1.
         25    1    1    2    0    0  0.87494320798E+02  0.24484514230E+02  0.60785237940E+03  0.62718758179E+03  0.12500000000E+03 0.  0.
          2    1    1    2  501    0 -0.60722611141E+02  0.19141483961E+02  0.21281945335E+04  0.21291466846E+04  0.00000000000E+00 0. -1.
          1    1    1    2  502    0 -0.26771709657E+02 -0.43625998191E+02 -0.10407937325E+03  0.11598477526E+03  0.00000000000E+00 0. -1.
<mgrwt>
<rscale>  0 0.57366159E+02</rscale>
<asrwt>0</asrwt>
<pdfrwt beam="2">  1        2 0.18488579E-01 0.51185468E+02</pdfrwt>
<pdfrwt beam="1">  1        1 0.42340661E+00 0.64293173E+02</pdfrwt>
<totfact> 0.52129880E+01</totfact>
</mgrwt>
</event>
<event>
 5    1  0.8459321E-003  0.3622908E+02  0.7546771E-02  0.1564890E+00
          2   -1    0    0  502    0  0.00000000000E+00  0.00000000000E+00  0.46596556981E+03  0.46596556981E+03  0.00000000000E+00 0. -1.
         -2   -1    0    0    0  501 -0.00000000000E+00 -0.00000000000E+00 -0.30801283326E+02  0.30801283326E+02  0.00000000000E+00 0.  1.
         25    1    1    2    0    0  0.13549019053E+02  0.31070447645E+01  0.39185479804E+03  0.41154393738E+03  0.12500000000E+03 0.  0.
          1    1    1    2  502    0  0.17095911158E+02 -0.25236533965E+02  0.35198412042E+02  0.46562657089E+02  0.00000000000E+00 0. -1.
         -1    1    1    2    0  501 -0.30644930212E+02  0.22129489201E+02  0.81110764015E+01  0.38660258669E+02  0.00000000000E+00 0.  1.
<mgrwt>
<rscale>  0 0.33231539E+02</rscale>
<asrwt>0</asrwt>
<pdfrwt beam="1">  1        2 0.71687006E-01 0.30482008E+02</pdfrwt>
<pdfrwt beam="2">  1       -2 0.47386593E-02 0.36229083E+02</pdfrwt>
<totfact> 0.11926241E+04</totfact>
</mgrwt>
</event>
<event>
 5    1  0.8459321E-003  0.7773356E+02  0.7546771E-02  0.1350083E+00
          1   -1    0    0  501    0 -0.00000000000E+00  0.00000000000E+00  0.97438265705E+03  0.97438265705E+03  0.00000000000E+00 0. -1.
          2   -1    0    0  502    0  0.00000000000E+00 -0.00000000000E+00 -0.43311491861E+02  0.43311491861E+02  0.00000000000E+00 0. -1.
         25    1    1    2    0    0 -0.33386110486E+02  0.94097137375E+02  0.70140887639E+03  0.71942220949E+03  0.12500000000E+03 0.  0.
          2    1    1    2  501    0  0.64926152562E+02 -0.33165446610E+02  0.21645248411E+03  0.22840102892E+03  0.00000000000E+00 0. -1.
          1    1    1    2  502    0 -0.31540042077E+02 -0.60931690765E+02  0.13209804693E+02  0.69870910497E+02  0.00000000000E+00 0. -1.
<mgrwt>
<rscale>  0 0.73029884E+02</rscale>
<asrwt>0</asrwt>
<pdfrwt beam="2">  1        2 0.66633071E-02 0.68610824E+02</pdfrwt>
<pdfrwt beam="1">  1        1 0.14990501E+00 0.77733565E+02</pdfrwt>
<totfact> 0.23803627E+03</totfact>
</mgrwt>
</event>
<event>
 5    1  0.8459321E-003  0.9491402E+02  0.7546771E-02  0.1347773E+00
          1   -1    0    0  501    0 -0.00000000000E+00  0.00000000000E+00  0.43995574926E+03  0.43995574926E+03  0.00000000000E+00 0. -1.
          2   -1    0    0  502    0  0.00000000000E+00 -0.00000000000E+00 -0.58583529518E+03  0.58583529518E+03  0.00000000000E+00 0. -1.
         25    1    1    2    0    0  0.14100188407E+03  0.38101207893E+02 -0.14954214020E+03  0.24355920235E+03  0.12500000000E+03 0.  0.
          2    1    1    2  501    0 -0.83794820258E+02 -0.41558498375E+02  0.38521052050E+03  0.39640361476E+03  0.00000000000E+00 0. -1.
          1    1    1    2  502    0 -0.57207063808E+02  0.34572904817E+01 -0.38154792622E+03  0.38582822734E+03  0.00000000000E+00 0. -1.
<mgrwt>
<rscale>  0 0.73754046E+02</rscale>
<asrwt>0</asrwt>
<pdfrwt beam="2">  1        2 0.90128507E-01 0.57311439E+02</pdfrwt>
<pdfrwt beam="1">  1        1 0.67685500E-01 0.94914025E+02</pdfrwt>
<totfact> 0.39948624E+02</totfact>
</mgrwt>
</event>
<event>
 5    1  0.8459321E-003  0.6782273E+02  0.7546771E-02  0.1432730E+00
         -2   -1    0    0    0  501 -0.00000000000E+00  0.00000000000E+00  0.23225499885E+02  0.23225499885E+02  0.00000000000E+00 0.  1.
          2   -1    0    0  502    0  0.00000000000E+00 -0.00000000000E+00 -0.25276857551E+04  0.25276857551E+04  0.00000000000E+00 0. -1.
         25    1    1    2    0    0 -0.32296149652E+02  0.59259157359E+02 -0.48281577733E+03  0.50328000542E+03  0.12500000000E+03 0.  0.
          1    1    1    2  502    0 -0.72339511043E+01 -0.68110700011E+02 -0.20009874436E+04  0.20021593710E+04  0.00000000000E+00 0. -1.
         -1    1    1    2    0  501  0.39530100756E+02  0.88515426520E+01 -0.20657034276E+02  0.45471878543E+02  0.00000000000E+00 0.  1.
<mgrwt>
<rscale>  0 0.52415940E+02</rscale>
<asrwt>0</asrwt>
<pdfrwt beam="2">  1        2 0.38887478E+00 0.67822733E+02</pdfrwt>
<pdfrwt beam="1">  1       -2 0.35731534E-02 0.40508995E+02</pdfrwt>
<totfact> 0.12327611E+03</totfact>
</mgrwt>
</event>
<event>
 5    1  0.8459321E-003  0.6793254E+02  0.7546771E-02  0.1381334E+00
          1   -1    0    0  501    0 -0.00000000000E+00  0.00000000000E+00  0.17417966626E+02  0.17417966626E+02  0.00000000000E+00 0. -1.
          2   -1    0    0  502    0  0.00000000000E+00 -0.00000000000E+00 -0.14371497033E+04  0.14371497033E+04  0.00000000000E+00 0. -1.
         25    1    1    2    0    0 -0.27380931996E+01 -0.27201612886E+02 -0.49483453930E+03  0.51111020943E+03  0.12500000000E+03 0.  0.
          2    1    1    2  501    0  0.21374410462E+02  0.84770947556E+02 -0.23203746368E+03  0.24796040717E+03  0.00000000000E+00 0. -1.
          1    1    1    2  502    0 -0.18636317263E+02 -0.57569334670E+02 -0.69285973370E+03  0.69549705334E+03  0.00000000000E+00 0. -1.
<mgrwt>
<rscale>  0 0.64114300E+02</rscale>
<asrwt>0</asrwt>
<pdfrwt beam="2">  1        2 0.22110001E+00 0.60510665E+02</pdfrwt>
<pdfrwt beam="1">  1        1 0.26796865E-02 0.67932544E+02</pdfrwt>
<totfact> 0.76882536E+03</totfact>
</mgrwt>
</event>
<event>
 5    1  0.8459321E-003  0.4296175E+02  0.7546771E-02  0.1552551E+00
          1   -1    0    0  501    0 -0.00000000000E+00  0.00000000000E+00  0.23339515945E+04  0.23339515945E+04  0.00000000000E+00 0. -1.
          2   -1    0    0  502    0  0.00000000000E+00 -0.00000000000E+00 -0.88937003467E+01  0.88937003467E+01  0.00000000000E+00 0. -1.
         25    1    1    2    0    0 -0.49917314514E+02 -0.48345836818E+01  0.11632046651E+04  0.11709761758E+04  0.12500000000E+03 0.  0.
          2    1    1    2  501    0  0.37931766158E+02 -0.20248833642E+02  0.11244214450E+04  0.11252432716E+04  0.00000000000E+00 0. -1.
          1    1    1    2  502    0  0.11985548356E+02  0.25083417323E+02  0.37431784000E+02  0.46625847418E+02  0.00000000000E+00 0. -1.
<mgrwt>
<rscale>  0 0.34559079E+02</rscale>
<asrwt>0</asrwt>
<pdfrwt beam="2">  1        2 0.13682635E-02 0.27799842E+02</pdfrwt>
<pdfrwt beam="1">  1        1 0.35906899E+00 0.42961753E+02</pdfrwt>
<totfact> 0.23679517E+03</totfact>
</mgrwt>
</event>
<event>
 5    1  0.8459321E-003  0.8192462E+02  0.7546771E-02  0.1367187E+00
          2   -1    0    0  502    0  0.00000000000E+00  0.00000000000E+00  0.51496984110E+03  0.51496984110E+03  0.00000000000E+00 0. -1.
          1   -1    0    0  501    0 -0.00000000000E+00 -0.00000000000E+00 -0.10928742265E+04  0.10928742265E+04  0.00000000000E+00 0. -1.
         25    1    1    2    0    0 -0.11802098170E+03 -0.34711200692E+02 -0.23048136219E+03  0.28962126630E+03  0.12500000000E+03 0.  0.
          2    1    1    2  501    0  0.63350528850E+02  0.48441454206E+02 -0.82926706078E+03  0.83309286522E+03  0.00000000000E+00 0. -1.
          1    1    1    2  502    0  0.54670452848E+02 -0.13730253515E+02  0.48184403761E+03  0.48512993605E+03  0.00000000000E+00 0. -1.
<mgrwt>
<rscale>  0 0.67955473E+02</rscale>
<asrwt>0</asrwt>
<pdfrwt beam="1">  1        2 0.79226130E-01 0.56368238E+02</pdfrwt>
<pdfrwt beam="2">  1        1 0.16813450E+00 0.81924618E+02</pdfrwt>
<totfact> 0.12539931E+02</totfact>
</mgrwt>
</event>
<event>
 5    1  0.8459321E-003  0.2860993E+02  0.7546771E-02  0.1622574E+00
          2   -1    0    0  502    0  0.00000000000E+00  0.00000000000E+00  0.46233677064E+03  0.46233677064E+03  0.00000000000E+00 0. -1.
          1   -1    0    0  501    0 -0.00000000000E+00 -0.00000000000E+00 -0.18622073638E+04  0.18622073638E+04  0.00000000000E+00 0. -1.
         25    1    1    2    0    0  0.43054124810E+02  0.30291572736E+01  0.17035460059E+02  0.13333431800E+03  0.12500000000E+03 0.  0.
          2    1    1    2  501    0 -0.21189695894E+02 -0.19211045237E+02 -0.18034666114E+04  0.18036934013E+04  0.00000000000E+00 0. -1.
          1    1    1    2  502    0 -0.21864428916E+02  0.16181887964E+02  0.38656055826E+03  0.38751641507E+03  0.00000000000E+00 0. -1.
<mgrwt>
<rscale>  0 0.27896689E+02</rscale>
<asrwt>0</asrwt>
<pdfrwt beam="1">  1        2 0.71128733E-01 0.27201227E+02</pdfrwt>
<pdfrwt beam="2">  1        1 0.28649344E+00 0.28609933E+02</pdfrwt>
<totfact> 0.51601935E+01</totfact>
</mgrwt>
</event>
<event>
 5    1  0.8459321E-003  0.8147782E+02  0.7546771E-02  0.1373582E+00
          1   -1    0    0  501    0 -0.00000000000E+00  0.00000000000E+00  0.44134577835E+03  0.44134577835E+03  0.00000000000E+00 0. -1.
          2   -1    0    0  502    0  0.00000000000E+00 -0.00000000000E+00 -0.89869938895E+03  0.89869938895E+03  0.00000000000E+00 0. -1.
         25    1    1    2    0    0 -0.14325306435E+02  0.31554179046E+02 -0.12687982939E+03  0.18145074187E+03  0.12500000000E+03 0.  0.
          2    1    1    2  501    0  0.35434838108E+01  0.53639515457E+02  0.40982306619E+03  0.41333364185E+03  0.00000000000E+00 0. -1.
          1    1    1    2  502    0  0.10781822624E+02 -0.85193694504E+02 -0.74029684740E+03  0.74526078359E+03  0.00000000000E+00 0. -1.
<mgrwt>
<rscale>  0 0.66181241E+02</rscale>
<asrwt>0</asrwt>
<pdfrwt beam="2">  1        2 0.13826144E+00 0.81477818E+02</pdfrwt>
<pdfrwt beam="1">  1        1 0.67899351E-01 0.53756431E+02</pdfrwt>
<totfact> 0.24065759E+02</totfact>
</mgrwt>
</event>
<event>
 5    1  0.8459321E-003  0.1058853E+03  0.7546771E-02  0.1325104E+00
          3   -1    0    0  501    0 -0.00000000000E+00  0.00000000000E+00  0.19104674897E+03  0.19104674897E+03  0.00000000000E+00 0. -1.
          2   -1    0    0  502    0  0.00000000000E+00 -0.00000000000E+00 -0.94624820248E+03  0.94624820248E+03  0.00000000000E+00 0. -1.
         25    1    1    2    0    0 -0.46772490899E+01 -0.14085606512E+03 -0.23078116488E+03  0.29790477304E+03  0.12500000000E+03 0.  0.
          2    1    1    2  501    0 -0.39525665443E+02  0.96546047445E+02  0.13857096615E+03  0.17345123282E+03  0.00000000000E+00 0. -1.
          1    1    1    2  502    0  0.44202914533E+02  0.44310017670E+02 -0.66299125479E+03  0.66593894558E+03  0.00000000000E+00 0. -1.
<mgrwt>
<rscale>  0 0.81407396E+02</rscale>
<asrwt>0</asrwt>
<pdfrwt beam="2">  1        2 0.14557665E+00 0.62588140E+02</pdfrwt>
<pdfrwt beam="1">  1        3 0.29391807E-01 0.10588530E+03</pdfrwt>
<totfact> 0.20106602E+02</totfact>
</mgrwt>
</event>
<event>
 5    1  0.8459321E-003  0.4095949E+02  0.7546771E-02  0.1566401E+00
         -2   -1    0    0    0  501 -0.00000000000E+00  0.00000000000E+00  0.56760542208E+03  0.56760542208E+03  0.00000000000E+00 0.  1.
          2   -1    0    0  502    0  0.00000000000E+00 -0.00000000000E+00 -0.81300169464E+02  0.81300169464E+02  0.00000000000E+00 0. -1.
         25    1    1    2    0    0 -0.31094731442E+02 -0.28710184594E+02  0.10524161163E+03  0.16879559782E+03  0.12500000000E+03 0.  0.
          1    1    1    2  502    0  0.72556719806E+01  0.40749219895E+02 -0.40377867491E+02  0.57823143126E+02  0.00000000000E+00 0. -1.
         -1    1    1    2    0  501  0.23839059461E+02 -0.12039035300E+02  0.42144150848E+03  0.42228685061E+03  0.00000000000E+00 0.  1.
<mgrwt>
<rscale>  0 0.33073951E+02</rscale>
<asrwt>0</asrwt>
<pdfrwt beam="2">  1        2 0.12507719E-01 0.40959494E+02</pdfrwt>
<pdfrwt beam="1">  1       -2 0.87323909E-01 0.26706537E+02</pdfrwt>
<totfact> 0.53817464E+02</totfact>
</mgrwt>
</event>
<event>
 5    1  0.8459321E-003  0.7028715E+02  0.7546771E-02  0.1418863E+00
          2   -1    0    0  502    0  0.00000000000E+00  0.00000000000E+00  0.33043205798E+04  0.33043205798E+04  0.00000000000E+00 0. -1.
          1   -1    0    0  501    0 -0.00000000000E+00 -0.00000000000E+00 -0.10652514897E+02  0.10652514897E+02  0.00000000000E+00 0. -1.
         25    1    1    2    0    0 -0.17954721570E+02  0.31313363787E+02  0.16691583925E+04  0.16742215021E+04  0.12500000000E+03 0.  0.
          2    1    1    2  501    0  0.59345653438E+02 -0.44527604004E+02  0.16870453303E+03  0.18429821910E+03  0.00000000000E+00 0. -1.
          1    1    1    2  502    0 -0.41390931868E+02  0.13214240218E+02  0.14558051394E+04  0.14564533735E+04  0.00000000000E+00 0. -1.
<mgrwt>
<rscale>  0 0.55262231E+02</rscale>
<asrwt>0</asrwt>
<pdfrwt beam="1">  1        2 0.50835619E+00 0.43449113E+02</pdfrwt>
<pdfrwt beam="2">  1        1 0.16388511E-02 0.70287148E+02</pdfrwt>
<totfact> 0.17162441E+03</totfact>
</mgrwt>
</event>
<event>
 5    1  0.8459321E-003  0.7322435E+02  0.7546771E-02  0.1515164E+00
         -2   -1    0    0    0  501 -0.00000000000E+00  0.00000000000E+00  0.34032232751E+03  0.34032232751E+03  0.00000000000E+00 0.  1.
          2   -1    0    0  502    0  0.00000000000E+00 -0.00000000000E+00 -0.53391962344E+02  0.53391962344E+02  0.00000000000E+00 0. -1.
         25    1    1    2    0    0  0.39812915110E+02 -0.48580152068E+02  0.24772931494E+03  0.28449940750E+03  0.12500000000E+03 0.  0.
          3    1    1    2  502    0 -0.32262337367E+02  0.68011779130E+02  0.14098857920E+02  0.76584843849E+02  0.00000000000E+00 0. -1.
         -1    1    1    2    0  501 -0.75505777428E+01 -0.19431627062E+02  0.25102192301E+02  0.32630038505E+02  0.00000000000E+00 0.  1.
<mgrwt>
<rscale>  0 0.39070597E+02</rscale>
<asrwt>0</asrwt>
<pdfrwt beam="2">  1        2 0.82141483E-02 0.73224355E+02</pdfrwt>
<pdfrwt beam="1">  1       -2 0.52357280E-01 0.20847047E+02</pdfrwt>
<totfact> 0.26167384E+03</totfact>
</mgrwt>
</event>
<event>
 5    1  0.8459321E-003  0.1138830E+03  0.7546771E-02  0.1323963E+00
         -2   -1    0    0    0  501 -0.00000000000E+00  0.00000000000E+00  0.35455356570E+04  0.35455356570E+04  0.00000000000E+00 0.  1.
          2   -1    0    0  502    0  0.00000000000E+00 -0.00000000000E+00 -0.13328031510E+03  0.13328031510E+03  0.00000000000E+00 0. -1.
         25    1    1    2    0    0  0.11944980757E+03 -0.89444393122E+02  0.53608597618E+03  0.57033475245E+03  0.12500000000E+03 0.  0.
          1    1    1    2  502    0 -0.11831299024E+02  0.57582182429E+02 -0.10759506067E+03  0.12260662483E+03  0.00000000000E+00 0. -1.
         -1    1    1    2    0  501 -0.10761850855E+03  0.31862210693E+02  0.29837644263E+04  0.29858745948E+04  0.00000000000E+00 0.  1.
<mgrwt>
<rscale>  0 0.81820676E+02</rscale>
<asrwt>0</asrwt>
<pdfrwt beam="2">  1        2 0.20504667E-01 0.58785095E+02</pdfrwt>
<pdfrwt beam="1">  1       -2 0.54546695E+00 0.11388300E+03</pdfrwt>
<totfact> 0.31483918E-01</totfact>
</mgrwt>
</event>
<event>
 5    1  0.8459321E-003  0.1145415E+03  0.7546771E-02  0.1338167E+00
         -2   -1    0    0    0  501 -0.00000000000E+00  0.00000000000E+00  0.44472991369E+03  0.44472991369E+03  0.00000000000E+00 0.  1.
          2   -1    0    0  502    0  0.00000000000E+00 -0.00000000000E+00 -0.10641250254E+04  0.10641250254E+04  0.00000000000E+00 0. -1.
         25    1    1    2    0    0  0.21505885904E+02 -0.12955301582E+03  0.31366921721E+03  0.36229803320E+03  0.12500000000E+03 0.  0.
          1    1    1    2  502    0  0.29997552325E+02  0.41975233854E+02 -0.10148307499E+04  0.10161413407E+04  0.00000000000E+00 0. -1.
         -1    1    1    2    0  501 -0.51503438229E+02  0.87577781966E+02  0.81766420965E+02  0.13041556518E+03  0.00000000000E+00 0.  1.
<mgrwt>
<rscale>  0 0.76873073E+02</rscale>
<asrwt>0</asrwt>
<pdfrwt beam="2">  1        2 0.16371154E+00 0.51592377E+02</pdfrwt>
<pdfrwt beam="1">  1       -2 0.68419987E-01 0.11454152E+03</pdfrwt>
<totfact> 0.54086436E+01</totfact>
</mgrwt>
</event>
<event>
 5    1  0.8459321E-003  0.9744040E+02  0.7546771E-02  0.1376580E+00
          2   -1    0    0  502    0  0.00000000000E+00  0.00000000000E+00  0.21720501251E+04  0.21720501251E+04  0.00000000000E+00 0. -1.
          1   -1    0    0  501    0 -0.00000000000E+00 -0.00000000000E+00 -0.17623571224E+03  0.17623571224E+03  0.00000000000E+00 0. -1.
         25    1    1    2    0    0  0.63577444400E+02  0.33797084285E+02  0.73228891945E+03  0.74636210775E+03  0.12500000000E+03 0.  0.
          2    1    1    2  501    0 -0.97840279701E+02 -0.64205723291E+01 -0.15462653731E+03  0.18309371950E+03  0.00000000000E+00 0. -1.
          1    1    1    2  502    0  0.34262835302E+02 -0.27376511955E+02  0.14181520307E+04  0.14188300100E+04  0.00000000000E+00 0. -1.
<mgrwt>
<rscale>  0 0.65371401E+02</rscale>
<asrwt>0</asrwt>
<pdfrwt beam="1">  1        2 0.33416154E+00 0.43856759E+02</pdfrwt>
<pdfrwt beam="2">  1        1 0.27113188E-01 0.97440399E+02</pdfrwt>
<totfact> 0.17218052E+02</totfact>
</mgrwt>
</event>
<event>
 5    1  0.8459321E-003  0.6794266E+02  0.7546771E-02  0.1388830E+00
          1   -1    0    0  502    0  0.00000000000E+00  0.00000000000E+00  0.36136832769E+03  0.36136832769E+03  0.00000000000E+00 0. -1.
         -1   -1    0    0    0  501 -0.00000000000E+00 -0.00000000000E+00 -0.12213761462E+03  0.12213761462E+03  0.00000000000E+00 0.  1.
         25    1    1    2    0    0  0.13788240544E+02 -0.15872292926E+02  0.19910249793E+03  0.23602722288E+03  0.12500000000E+03 0.  0.
          2    1    1    2  502    0 -0.14102898082E+02 -0.55166128505E+02  0.12466713617E+03  0.13705505576E+03  0.00000000000E+00 0. -1.
         -2    1    1    2    0  501  0.31465753849E+00  0.71038421431E+02 -0.84538921025E+02  0.11042366366E+03  0.00000000000E+00 0.  1.
<mgrwt>
<rscale>  0 0.62198659E+02</rscale>
<asrwt>0</asrwt>
<pdfrwt beam="1">  1        1 0.55595127E-01 0.56940262E+02</pdfrwt>
<pdfrwt beam="2">  1       -1 0.18790402E-01 0.67942665E+02</pdfrwt>
<totfact> 0.14889620E+03</totfact>
</mgrwt>
</event>
<event>
 5    1  0.8459321E-003  0.6265440E+02  0.7546771E-02  0.1409449E+00
          2   -1    0    0  502    0  0.00000000000E+00  0.00000000000E+00  0.55168628191E+03  0.55168628191E+03  0.00000000000E+00 0. -1.
         -2   -1    0    0    0  501 -0.00000000000E+00 -0.00000000000E+00 -0.51188930824E+02  0.51188930824E+02  0.00000000000E+00 0.  1.
         25    1    1    2    0    0  0.43986541540E+02  0.14317386231E+02  0.18103169846E+03  0.22480498044E+03  0.12500000000E+03 0.  0.
          1    1    1    2  502    0 -0.24844560950E+02 -0.63132501076E+02  0.31848065189E+03  0.32562691923E+03  0.00000000000E+00 0. -1.
         -1    1    1    2    0  501 -0.19141980589E+02  0.48815114845E+02  0.98500073924E+00  0.52443313060E+02  0.00000000000E+00 0.  1.
<mgrwt>
<rscale>  0 0.57316879E+02</rscale>
<asrwt>0</asrwt>
<pdfrwt beam="1">  1        2 0.84874809E-01 0.62654399E+02</pdfrwt>
<pdfrwt beam="2">  1       -2 0.78752205E-02 0.52434062E+02</pdfrwt>
<totfact> 0.48894217E+03</totfact>
</mgrwt>
</event>
<event>
 5    1  0.8459321E-003  0.8332796E+02  0.7546771E-02  0.1365014E+00
          1   -1    0    0  501    0 -0.00000000000E+00  0.00000000000E+00  0.11565464424E+04  0.11565464424E+04  0.00000000000E+00 0. -1.
          2   -1    0    0  502    0  0.00000000000E+00 -0.00000000000E+00 -0.24414720296E+03  0.24414720296E+03  0.00000000000E+00 0. -1.
         25    1    1    2    0    0 -0.12195854456E+03 -0.17291976619E+02  0.40482565787E+03  0.44122750630E+03  0.12500000000E+03 0.  0.
          2    1    1    2  501    0  0.77468844711E+02 -0.17422174391E+02  0.72780311050E+03  0.73212179432E+03  0.00000000000E+00 0. -1.
          1    1    1    2  502    0  0.44489699847E+02  0.34714151010E+02 -0.22022952893E+03  0.22734434474E+03  0.00000000000E+00 0. -1.
<mgrwt>
<rscale>  0 0.68572894E+02</rscale>
<asrwt>0</asrwt>
<pdfrwt beam="2">  1        2 0.37561109E-01 0.56430538E+02</pdfrwt>
<pdfrwt beam="1">  1        1 0.17793022E+00 0.83327964E+02</pdfrwt>
<totfact> 0.24509567E+02</totfact>
</mgrwt>
</event>
<event>
 5    1  0.8459321E-003  0.3840946E+02  0.7546771E-02  0.1533845E+00
         -1   -1    0    0    0  502 -0.00000000000E+00  0.00000000000E+00  0.98648961949E+02  0.98648961949E+02  0.00000000000E+00 0.  1.
         -2   -1    0    0    0  501  0.00000000000E+00 -0.00000000000E+00 -0.47986969171E+03  0.47986969171E+03  0.00000000000E+00 0.  1.
         25    1    1    2    0    0 -0.61441000022E+01  0.50080289335E+01 -0.51418578434E+02  0.13539461041E+03  0.12500000000E+03 0.  0.
         -2    1    1    2    0  502 -0.31837331318E+02 -0.14784859481E+02  0.50116073008E+02  0.61186832808E+02  0.00000000000E+00 0.  1.
         -1    1    1    2    0  501  0.37981431321E+02  0.97768305480E+01 -0.37991822434E+03  0.38193721045E+03  0.00000000000E+00 0.  1.
<mgrwt>
<rscale>  0 0.36718938E+02</rscale>
<asrwt>0</asrwt>
<pdfrwt beam="2">  1       -2 0.73826108E-01 0.38409465E+02</pdfrwt>
<pdfrwt beam="1">  1       -1 0.15176763E-01 0.35102817E+02</pdfrwt>
<totfact> 0.36898752E+02</totfact>
</mgrwt>
</event>
<event>
 5    1  0.8459321E-003  0.9531790E+02  0.7546771E-02  0.1334191E+00
          1   -1    0    0  501    0 -0.00000000000E+00  0.00000000000E+00  0.10768611867E+03  0.10768611867E+03  0.00000000000E+00 0. -1.
          2   -1    0    0  502    0  0.00000000000E+00 -0.00000000000E+00 -0.96677482679E+03  0.96677482679E+03  0.00000000000E+00 0. -1.
         25    1    1    2    0    0 -0.95020605011E+02  0.69337379024E+02 -0.13713064851E+03  0.21969615898E+03  0.12500000000E+03 0.  0.
          2    1    1    2  501    0  0.17876250430E+00 -0.64182440649E+02  0.47259727082E+02  0.79705077928E+02  0.00000000000E+00 0. -1.
          1    1    1    2  502    0  0.94841842507E+02 -0.51549383748E+01 -0.76921778669E+03  0.77505970856E+03  0.00000000000E+00 0. -1.
<mgrwt>
<rscale>  0 0.78216106E+02</rscale>
<asrwt>0</asrwt>
<pdfrwt beam="2">  1        2 0.14873458E+00 0.95317901E+02</pdfrwt>
<pdfrwt beam="1">  1        1 0.16567096E-01 0.64182690E+02</pdfrwt>
<totfact> 0.12131761E+03</totfact>
</mgrwt>
</event>
<event>
 5    1  0.8459321E-003  0.1315573E+03  0.7546771E-02  0.1310154E+00
          2   -1    0    0  502    0  0.00000000000E+00  0.00000000000E+00  0.80183942554E+03  0.80183942554E+03  0.00000000000E+00 0. -1.
         -2   -1    0    0    0  501 -0.00000000000E+00 -0.00000000000E+00 -0.88342016154E+03  0.88342016154E+03  0.00000000000E+00 0.  1.
         25    1    1    2    0    0  0.99425108103E+02  0.37522247873E+02  0.18872040325E+03  0.25006731456E+03  0.12500000000E+03 0.  0.
          1    1    1    2  502    0 -0.14026619108E+03  0.30975150940E+01  0.57299986933E+03  0.58992630829E+03  0.00000000000E+00 0. -1.
         -1    1    1    2    0  501  0.40841082973E+02 -0.40619762967E+02 -0.84330100859E+03  0.84526596423E+03  0.00000000000E+00 0.  1.
<mgrwt>
<rscale>  0 0.87051311E+02</rscale>
<asrwt>0</asrwt>
<pdfrwt beam="1">  1        2 0.12335991E+00 0.13155735E+03</pdfrwt>
<pdfrwt beam="2">  1       -2 0.13591079E+00 0.57601729E+02</pdfrwt>
<totfact> 0.16072793E+01</totfact>
</mgrwt>
</event>
<event>
 5    1  0.8459321E-003  0.1007825E+03  0.7546771E-02  0.1370845E+00
          1   -1    0    0  501    0 -0.00000000000E+00  0.00000000000E+00  0.25788325379E+03  0.25788325379E+03  0.00000000000E+00 0. -1.
          2   -1    0    0  502    0  0.00000000000E+00 -0.00000000000E+00 -0.51201959509E+03  0.51201959509E+03  0.00000000000E+00 0. -1.
         25    1    1    2    0    0  0.33034472617E+02 -0.13189934485E+03  0.67626284321E+02  0.19669018248E+03  0.12500000000E+03 0.  0.
          2    1    1    2  501    0 -0.20049823144E+02  0.89385820129E+02  0.10773740273E+03  0.14141841533E+03  0.00000000000E+00 0. -1.
          1    1    1    2  502    0 -0.12984649473E+02  0.42513524716E+02 -0.42950002835E+03  0.43179425107E+03  0.00000000000E+00 0. -1.
<mgrwt>
<rscale>  0 0.66932868E+02</rscale>
<asrwt>0</asrwt>
<pdfrwt beam="2">  1        2 0.78772244E-01 0.44452232E+02</pdfrwt>
<pdfrwt beam="1">  1        1 0.39674347E-01 0.10078254E+03</pdfrwt>
<totfact> 0.89517675E+02</totfact>
</mgrwt>
</event>
<event>
 5    1  0.8459321E-003  0.8700315E+02  0.7546771E-02  0.1430602E+00
          2   -1    0    0  502    0  0.00000000000E+00  0.00000000000E+00  0.24520243834E+04  0.24520243834E+04  0.00000000000E+00 0. -1.
         -2   -1    0    0    0  501 -0.00000000000E+00 -0.00000000000E+00 -0.23486345417E+03  0.23486345417E+03  0.00000000000E+00 0.  1.
         25    1    1    2    0    0 -0.94318337002E+01 -0.11287381821E+03  0.21078089025E+03  0.26996859450E+03  0.12500000000E+03 0.  0.
          1    1    1    2  502    0 -0.12380519289E+02  0.29606303894E+02  0.22025038024E+04  0.22027375718E+04  0.00000000000E+00 0. -1.
         -1    1    1    2    0  501  0.21812352989E+02  0.83267514314E+02 -0.19612376349E+03  0.21418167123E+03  0.00000000000E+00 0.  1.
<mgrwt>
<rscale>  0 0.52839272E+02</rscale>
<asrwt>0</asrwt>
<pdfrwt beam="1">  1        2 0.37723450E+00 0.32090660E+02</pdfrwt>
<pdfrwt beam="2">  1       -2 0.36132841E-01 0.87003155E+02</pdfrwt>
<totfact> 0.41117505E+01</totfact>
</mgrwt>
</event>
<event>
 5    1  0.8459321E-003  0.1180942E+03  0.7546771E-02  0.1428404E+00
         -1   -1    0    0    0  501 -0.00000000000E+00  0.00000000000E+00  0.49023587604E+02  0.49023587604E+02  0.00000000000E+00 0.  1.
          1   -1    0    0  502    0  0.00000000000E+00 -0.00000000000E+00 -0.69612640893E+03  0.69612640893E+03  0.00000000000E+00 0. -1.
         25    1    1    2    0    0 -0.18086904079E+01 -0.11189181242E+03 -0.22275221151E+03  0.27886662902E+03  0.12500000000E+03 0.  0.
          2    1    1    2  502    0 -0.21296459367E+02  0.11852938481E+03 -0.42550246577E+03  0.44221612660E+03  0.00000000000E+00 0. -1.
         -2    1    1    2    0  501  0.23105149774E+02 -0.66375723914E+01  0.11518559504E+01  0.24067240920E+02  0.00000000000E+00 0.  1.
<mgrwt>
<rscale>  0 0.53281740E+02</rscale>
<asrwt>0</asrwt>
<pdfrwt beam="2">  1        1 0.10709637E+00 0.11809417E+03</pdfrwt>
<pdfrwt beam="1">  1       -1 0.75420905E-02 0.24039661E+02</pdfrwt>
<totfact> 0.22557450E+03</totfact>
</mgrwt>
</event>
<event>
 5    1  0.8459321E-003  0.1000252E+03  0.7546771E-02  0.1407213E+00
          2   -1    0    0  502    0  0.00000000000E+00  0.00000000000E+00  0.33418497650E+04  0.33418497650E+04  0.00000000000E+00 0. -1.
         -2   -1    0    0    0  501 -0.00000000000E+00 -0.00000000000E+00 -0.23634262109E+02  0.23634262109E+02  0.00000000000E+00 0.  1.
         25    1    1    2    0    0 -0.81779755920E+02 -0.95143189023E+02  0.85484093650E+03  0.87299380388E+03  0.12500000000E+03 0.  0.
          3    1    1    2  502    0  0.50495009344E+02  0.83378719473E+02  0.24564167790E+04  0.24583500867E+04  0.00000000000E+00 0. -1.
         -1    1    1    2    0  501  0.31284746575E+02  0.11764469551E+02  0.69577873544E+01  0.34140136452E+02  0.00000000000E+00 0.  1.
<mgrwt>
<rscale>  0 0.57820431E+02</rscale>
<asrwt>0</asrwt>
<pdfrwt beam="1">  1        2 0.51413036E+00 0.10002515E+03</pdfrwt>
<pdfrwt beam="2">  1       -2 0.36360430E-02 0.33423616E+02</pdfrwt>
<totfact> 0.38284633E+02</totfact>
</mgrwt>
</event>
<event>
 5    1  0.8459321E-003  0.1113110E+03  0.7546771E-02  0.1389169E+00
          1   -1    0    0  501    0 -0.00000000000E+00  0.00000000000E+00  0.11526411141E+03  0.11526411141E+03  0.00000000000E+00 0. -1.
          2   -1    0    0  502    0  0.00000000000E+00 -0.00000000000E+00 -0.67291809461E+03  0.67291809461E+03  0.00000000000E+00 0. -1.
         25    1    1    2    0    0 -0.12855136092E+03 -0.54824722246E+01 -0.14642223359E+02  0.17998584556E+03  0.12500000000E+03 0.  0.
          2    1    1    2  501    0  0.20452001337E+02  0.27983719676E+02  0.16148827564E+02  0.38238168854E+02  0.00000000000E+00 0. -1.
          1    1    1    2  502    0  0.10809935959E+03 -0.22501247452E+02 -0.55916058740E+03  0.56995819161E+03  0.00000000000E+00 0. -1.
<mgrwt>
<rscale>  0 0.62113869E+02</rscale>
<asrwt>0</asrwt>
<pdfrwt beam="2">  1        2 0.10352586E+00 0.11131104E+03</pdfrwt>
<pdfrwt beam="1">  1        1 0.17732940E-01 0.34660827E+02</pdfrwt>
<totfact> 0.16812211E+03</totfact>
</mgrwt>
</event>
<event>
 5    1  0.8459321E-003  0.1070479E+03  0.7546771E-02  0.1400717E+00
         -2   -1    0    0    0  501  0.00000000000E+00  0.00000000000E+00  0.23172093181E+03  0.23172093181E+03  0.00000000000E+00 0.  1.
         -1   -1    0    0    0  502 -0.00000000000E+00 -0.00000000000E+00 -0.23421097244E+03  0.23421097244E+03  0.00000000000E+00 0.  1.
         25    1    1    2    0    0 -0.97036554875E+02 -0.47488640833E+02 -0.80162877667E+02  0.18363646410E+03  0.12500000000E+03 0.  0.
         -2    1    1    2    0  502  0.19227861944E+02 -0.26658799662E+02 -0.82838933406E+02  0.89121777149E+02  0.00000000000E+00 0.  1.
         -1    1    1    2    0  501  0.77808692931E+02  0.74147440495E+02  0.16051177044E+03  0.19317366300E+03  0.00000000000E+00 0.  1.
<mgrwt>
<rscale>  0 0.59317859E+02</rscale>
<asrwt>0</asrwt>
<pdfrwt beam="1">  1       -2 0.35649374E-01 0.10704791E+03</pdfrwt>
<pdfrwt beam="2">  1       -1 0.36032457E-01 0.32869473E+02</pdfrwt>
<totfact> 0.39641831E+02</totfact>
</mgrwt>
</event>
<event>
 5    1  0.8459321E-003  0.4411195E+02  0.7546771E-02  0.1598031E+00
         -1   -1    0    0    0  502 -0.00000000000E+00  0.00000000000E+00  0.40662089356E+03  0.40662089356E+03  0.00000000000E+00 0.  1.
         -2   -1    0    0    0  501  0.00000000000E+00 -0.00000000000E+00 -0.28326933759E+03  0.28326933759E+03  0.00000000000E+00 0.  1.
         25    1    1    2    0    0  0.33689782043E+02  0.33585621487E+01  0.17799560927E+03  0.22012205313E+03  0.12500000000E+03 0.  0.
         -2    1    1    2    0  502  0.38555496290E+01  0.20042276026E+02  0.20518602627E+03  0.20619860200E+03  0.00000000000E+00 0.  1.
         -1    1    1    2    0  501 -0.37545331672E+02 -0.23400838174E+02 -0.25983007956E+03  0.26356957602E+03  0.00000000000E+00 0.  1.
<mgrwt>
<rscale>  0 0.30005235E+02</rscale>
<asrwt>0</asrwt>
<pdfrwt beam="2">  1       -2 0.43579898E-01 0.44111953E+02</pdfrwt>
<pdfrwt beam="1">  1       -1 0.62557061E-01 0.20409755E+02</pdfrwt>
<totfact> 0.10366866E+02</totfact>
</mgrwt>
</event>
<event>
 5    1  0.8459321E-003  0.4437091E+02  0.7546771E-02  0.1516666E+00
          1   -1    0    0  501    0 -0.00000000000E+00  0.00000000000E+00  0.14166842895E+02  0.14166842895E+02  0.00000000000E+00 0. -1.
          2   -1    0    0  502    0  0.00000000000E+00 -0.00000000000E+00 -0.13424633140E+04  0.13424633140E+04  0.00000000000E+00 0. -1.
         25    1    1    2    0    0  0.17522639244E+02 -0.29365338140E+02 -0.48210719237E+03  0.49922110422E+03  0.12500000000E+03 0.  0.
          2    1    1    2  501    0 -0.47085516254E+02  0.12454531489E+02 -0.10845712187E+03  0.11889116233E+03  0.00000000000E+00 0. -1.
          1    1    1    2  502    0  0.29562877010E+02  0.16910806651E+02 -0.73773215686E+03  0.73851789034E+03  0.00000000000E+00 0. -1.
<mgrwt>
<rscale>  0 0.38873885E+02</rscale>
<asrwt>0</asrwt>
<pdfrwt beam="2">  1        2 0.20653282E+00 0.34057878E+02</pdfrwt>
<pdfrwt beam="1">  1        1 0.21795142E-02 0.44370907E+02</pdfrwt>
<totfact> 0.11188040E+04</totfact>
</mgrwt>
</event>
<event>
 5    1  0.8459321E-003  0.5169019E+02  0.7546771E-02  0.1460860E+00
          2   -1    0    0  502    0  0.00000000000E+00  0.00000000000E+00  0.32117369018E+04  0.32117369018E+04  0.00000000000E+00 0. -1.
          1   -1    0    0  501    0 -0.00000000000E+00 -0.00000000000E+00 -0.20949893943E+03  0.20949893943E+03  0.00000000000E+00 0. -1.
         25    1    1    2    0    0 -0.76583418850E+02 -0.52476724587E+02  0.16736418500E+03  0.22859264443E+03  0.12500000000E+03 0.  0.
          2    1    1    2  501    0  0.37196593947E+02  0.34824670225E+02 -0.17509833164E+03  0.18236164619E+03  0.00000000000E+00 0. -1.
          1    1    1    2  502    0  0.39386824904E+02  0.17652054362E+02  0.30099721090E+04  0.30102815507E+04  0.00000000000E+00 0. -1.
<mgrwt>
<rscale>  0 0.47233753E+02</rscale>
<asrwt>0</asrwt>
<pdfrwt beam="1">  1        2 0.49411333E+00 0.43161522E+02</pdfrwt>
<pdfrwt beam="2">  1        1 0.32230609E-01 0.51690194E+02</pdfrwt>
<totfact> 0.39236233E+01</totfact>
</mgrwt>
</event>
<event>
 5    1  0.8459321E-003  0.5555028E+02  0.7546771E-02  0.1480971E+00
         -1   -1    0    0    0  502 -0.00000000000E+00  0.00000000000E+00  0.19907368217E+03  0.19907368217E+03  0.00000000000E+00 0.  1.
         -2   -1    0    0    0  501  0.00000000000E+00 -0.00000000000E+00 -0.21680942550E+03  0.21680942550E+03  0.00000000000E+00 0.  1.
         25    1    1    2    0    0  0.29050944441E+02 -0.42344792225E+02 -0.50786196759E+02  0.14436508090E+03  0.12500000000E+03 0.  0.
         -2    1    1    2    0  502  0.25414077947E+02  0.23744717169E+02  0.14313302438E+03  0.14729816570E+03  0.00000000000E+00 0.  1.
         -3    1    1    2    0  501 -0.54465022388E+02  0.18600075056E+02 -0.11008257096E+03  0.12421986107E+03  0.00000000000E+00 0.  1.
<mgrwt>
<rscale>  0 0.43955315E+02</rscale>
<asrwt>0</asrwt>
<pdfrwt beam="2">  1       -2 0.33355296E-01 0.55550284E+02</pdfrwt>
<pdfrwt beam="1">  1       -1 0.30626720E-01 0.34780554E+02</pdfrwt>
<totfact> 0.57722775E+02</totfact>
</mgrwt>
</event>
<event>
 5    1  0.8459321E-003  0.9678570E+02  0.7546771E-02  0.1303922E+00
          2   -1    0    0  502    0  0.00000000000E+00  0.00000000000E+00  0.92098661598E+03  0.92098661598E+03  0.00000000000E+00 0. -1.
          1   -1    0    0  501    0 -0.00000000000E+00 -0.00000000000E+00 -0.14700527203E+04  0.14700527203E+04  0.00000000000E+00 0. -1.
         25    1    1    2    0    0 -0.96910829373E+01  0.17015612065E+02  0.44575690965E+02  0.13414708483E+03  0.12500000000E+03 0.  0.
          2    1    1    2  501    0 -0.52714675381E+02  0.63946027474E+02 -0.14209138988E+04  0.14233285774E+04  0.00000000000E+00 0. -1.
          1    1    1    2  502    0  0.62405758318E+02 -0.80961639539E+02  0.82727210343E+03  0.83356367415E+03  0.00000000000E+00 0. -1.
<mgrwt>
<rscale>  0 0.89559588E+02</rscale>
<asrwt>0</asrwt>
<pdfrwt beam="1">  1        2 0.14169025E+00 0.96785701E+02</pdfrwt>
<pdfrwt beam="2">  1        1 0.22616196E+00 0.82872984E+02</pdfrwt>
<totfact> 0.35410180E+01</totfact>
</mgrwt>
</event>
<event>
 5    1  0.8459321E-003  0.4303144E+02  0.7546771E-02  0.1494478E+00
          1   -1    0    0  501    0 -0.00000000000E+00  0.00000000000E+00  0.39312472888E+03  0.39312472888E+03  0.00000000000E+00 0. -1.
          2   -1    0    0  502    0  0.00000000000E+00 -0.00000000000E+00 -0.43952191860E+03  0.43952191860E+03  0.00000000000E+00 0. -1.
         25    1    1    2    0    0 -0.15006486056E+02  0.63492341332E+02 -0.11742191036E+03  0.18349217167E+03  0.12500000000E+03 0.  0.
          2    1    1    2  501    0  0.32547484237E+02 -0.24693623337E+02  0.35735134151E+03  0.35967915570E+03  0.00000000000E+00 0. -1.
          1    1    1    2  502    0 -0.17540998181E+02 -0.38798717995E+02 -0.28632662086E+03  0.28947532011E+03  0.00000000000E+00 0. -1.
<mgrwt>
<rscale>  0 0.41928990E+02</rscale>
<asrwt>0</asrwt>
<pdfrwt beam="2">  1        2 0.67618756E-01 0.43031436E+02</pdfrwt>
<pdfrwt beam="1">  1        1 0.60480728E-01 0.40854789E+02</pdfrwt>
<totfact> 0.63037059E+02</totfact>
</mgrwt>
</event>
<event>
 5    1  0.8459321E-003  0.6335568E+02  0.7546771E-02  0.1450190E+00
          1   -1    0    0  501    0 -0.00000000000E+00  0.00000000000E+00  0.49928304732E+03  0.49928304732E+03  0.00000000000E+00 0. -1.
          2   -1    0    0  502    0  0.00000000000E+00 -0.00000000000E+00 -0.48895252014E+03  0.48895252014E+03  0.00000000000E+00 0. -1.
         25    1    1    2    0    0 -0.37956313855E+02 -0.41744030946E+02 -0.72113612849E+02  0.15494714918E+03  0.12500000000E+03 0.  0.
          2    1    1    2  501    0  0.66156178810E+01  0.63357915136E+02  0.45467494063E+03  0.45911577346E+03  0.00000000000E+00 0. -1.
          1    1    1    2  502    0  0.31340695974E+02 -0.21613884189E+02 -0.37223080060E+03  0.37417264481E+03  0.00000000000E+00 0. -1.
<mgrwt>
<rscale>  0 0.49112243E+02</rscale>
<asrwt>0</asrwt>
<pdfrwt beam="2">  1        2 0.75223465E-01 0.38070976E+02</pdfrwt>
<pdfrwt beam="1">  1        1 0.76812776E-01 0.63355676E+02</pdfrwt>
<totfact> 0.41836557E+02</totfact>
</mgrwt>
</event>
<event>
 5    1  0.8459321E-003  0.1280777E+03  0.7546771E-02  0.1316674E+00
          2   -1    0    0  502    0  0.00000000000E+00  0.00000000000E+00  0.33340383578E+03  0.33340383578E+03  0.00000000000E+00 0. -1.
          1   -1    0    0  501    0 -0.00000000000E+00 -0.00000000000E+00 -0.30622070574E+03  0.30622070574E+03  0.00000000000E+00 0. -1.
         25    1    1    2    0    0  0.14182852462E+03 -0.55052489771E+02  0.69719352342E+01  0.19702719332E+03  0.12500000000E+03 0.  0.
          2    1    1    2  501    0 -0.12506051463E+03  0.18470094378E+01 -0.18868828814E+03  0.22637759131E+03  0.00000000000E+00 0. -1.
          1    1    1    2  502    0 -0.16768009986E+02  0.53205480333E+02  0.20889948295E+03  0.21621975690E+03  0.00000000000E+00 0. -1.
<mgrwt>
<rscale>  0 0.84527157E+02</rscale>
<asrwt>0</asrwt>
<pdfrwt beam="1">  1        2 0.51292898E-01 0.55785207E+02</pdfrwt>
<pdfrwt beam="2">  1        1 0.47110878E-01 0.12807769E+03</pdfrwt>
<totfact> 0.11285446E+03</totfact>
</mgrwt>
</event>
<event>
 5    1  0.8459321E-003  0.7398575E+02  0.7546771E-02  0.1446755E+00
         -2   -1    0    0    0  501 -0.00000000000E+00  0.00000000000E+00  0.11888873102E+03  0.11888873102E+03  0.00000000000E+00 0.  1.
          2   -1    0    0  502    0  0.00000000000E+00 -0.00000000000E+00 -0.85113892211E+03  0.85113892211E+03  0.00000000000E+00 0. -1.
         25    1    1    2    0    0  0.78987250953E+02  0.18956990628E+02 -0.21322405400E+03  0.26016888844E+03  0.12500000000E+03 0.  0.
          1    1    1    2  502    0 -0.58404375871E+02 -0.45309681597E+02 -0.60920855629E+03  0.61367670920E+03  0.00000000000E+00 0. -1.
         -1    1    1    2    0  501 -0.20582875082E+02  0.26352690969E+02  0.90182419186E+02  0.96182055490E+02  0.00000000000E+00 0.  1.
<mgrwt>
<rscale>  0 0.49738885E+02</rscale>
<asrwt>0</asrwt>
<pdfrwt beam="2">  1        2 0.13094445E+00 0.73985748E+02</pdfrwt>
<pdfrwt beam="1">  1       -2 0.18290574E-01 0.33438287E+02</pdfrwt>
<totfact> 0.77353475E+02</totfact>
</mgrwt>
</event>
<event>
 5    1  0.2602356E-002  0.1277710E+03  0.7546771E-02  0.1331356E+00
          2   -1    0    0  502    0  0.00000000000E+00  0.00000000000E+00  0.13631524180E+04  0.13631524180E+04  0.00000000000E+00 0.  1.
         -2   -1    0    0    0  501 -0.00000000000E+00 -0.00000000000E+00 -0.24172139492E+02  0.24172139492E+02  0.00000000000E+00 0. -1.
         25    1    1    2    0    0 -0.10336234497E+03  0.10201149194E+03  0.68210277355E+03  0.70850498412E+03  0.12500000000E+03 0.  0.
          1    1    1    2  502    0  0.54613733265E+02 -0.10774419021E+03  0.50309853515E+03  0.51739695250E+03  0.00000000000E+00 0. -1.
         -1    1    1    2    0  501  0.48748611704E+02  0.57326982701E+01  0.15377896979E+03  0.16142262085E+03  0.00000000000E+00 0.  1.
<mgrwt>
<rscale>  0 0.79193314E+02</rscale>
<asrwt>0</asrwt>
<pdfrwt beam="1">  1        2 0.20971570E+00 0.12777103E+03</pdfrwt>
<pdfrwt beam="2">  1       -2 0.37187918E-02 0.49084529E+02</pdfrwt>
<totfact> 0.43782308E+03</totfact>
</mgrwt>
</event>
<event>
 5    1  0.8459321E-003  0.8492739E+02  0.7546771E-02  0.1329209E+00
         -1   -1    0    0    0  501 -0.00000000000E+00  0.00000000000E+00  0.90412726447E+03  0.90412726447E+03  0.00000000000E+00 0.  1.
          1   -1    0    0  502    0  0.00000000000E+00 -0.00000000000E+00 -0.22363388963E+03  0.22363388963E+03  0.00000000000E+00 0. -1.
         25    1    1    2    0    0  0.10736558032E+02 -0.72582837353E+01  0.34003092475E+03  0.36251067039E+03  0.12500000000E+03 0.  0.
          2    1    1    2  502    0 -0.44601146185E+02  0.74461942275E+02 -0.20081308871E+03  0.21876868991E+03  0.00000000000E+00 0. -1.
         -2    1    1    2    0  501  0.33864588153E+02 -0.67203658540E+02  0.54127553879E+03  0.54648179379E+03  0.00000000000E+00 0.  1.
<mgrwt>
<rscale>  0 0.79944439E+02</rscale>
<asrwt>0</asrwt>
<pdfrwt beam="2">  1        1 0.34405214E-01 0.84927394E+02</pdfrwt>
<pdfrwt beam="1">  1       -1 0.13909650E+00 0.75253851E+02</pdfrwt>
<totfact> 0.63044777E+01</totfact>
</mgrwt>
</event>
<event>
 5    1  0.8459321E-003  0.6405966E+02  0.7546771E-02  0.1409224E+00
          1   -1    0    0  501    0 -0.00000000000E+00  0.00000000000E+00  0.76704301961E+02  0.76704301961E+02  0.00000000000E+00 0. -1.
          2   -1    0    0  502    0  0.00000000000E+00 -0.00000000000E+00 -0.77269397669E+03  0.77269397669E+03  0.00000000000E+00 0. -1.
         25    1    1    2    0    0  0.37913970498E+02  0.25435317650E+02 -0.81175982543E+02  0.15588125187E+03  0.12500000000E+03 0.  0.
          2    1    1    2  501    0 -0.14623290842E+02 -0.71226791684E+02  0.37638532665E+01  0.72809773246E+02  0.00000000000E+00 0. -1.
          1    1    1    2  502    0 -0.23290679656E+02  0.45791474034E+02 -0.61857754545E+03  0.62070725353E+03  0.00000000000E+00 0. -1.
<mgrwt>
<rscale>  0 0.57367391E+02</rscale>
<asrwt>0</asrwt>
<pdfrwt beam="2">  1        2 0.11887599E+00 0.51374263E+02</pdfrwt>
<pdfrwt beam="1">  1        1 0.11800662E-01 0.64059656E+02</pdfrwt>
<totfact> 0.25327865E+03</totfact>
</mgrwt>
</event>
<event>
 5    1  0.8459321E-003  0.4264416E+02  0.7546771E-02  0.1522236E+00
         -1   -1    0    0    0  501 -0.00000000000E+00  0.00000000000E+00  0.29386611828E+02  0.29386611828E+02  0.00000000000E+00 0.  1.
          1   -1    0    0  502    0  0.00000000000E+00 -0.00000000000E+00 -0.92434078587E+03  0.92434078587E+03  0.00000000000E+00 0. -1.
         25    1    1    2    0    0 -0.59298809758E+02 -0.46311803856E+02 -0.48668389296E+03  0.50808202456E+03  0.12500000000E+03 0.  0.
          2    1    1    2  502    0  0.26688267112E+02  0.21290816060E+02 -0.40272500342E+03  0.40416950755E+03  0.00000000000E+00 0. -1.
         -2    1    1    2    0  501  0.32610542646E+02  0.25020987796E+02 -0.55452776596E+01  0.41475865588E+02  0.00000000000E+00 0.  1.
<mgrwt>
<rscale>  0 0.38156071E+02</rscale>
<asrwt>0</asrwt>
<pdfrwt beam="2">  1        1 0.14220626E+00 0.34140335E+02</pdfrwt>
<pdfrwt beam="1">  1       -1 0.45210176E-02 0.42644156E+02</pdfrwt>
<totfact> 0.35262787E+03</totfact>
</mgrwt>
</event>
<event>
 5    1  0.8459321E-003  0.4950851E+02  0.7546771E-02  0.1474424E+00
          2   -1    0    0  502    0  0.00000000000E+00  0.00000000000E+00  0.14101393954E+04  0.14101393954E+04  0.00000000000E+00 0. -1.
         -2   -1    0    0    0  501 -0.00000000000E+00 -0.00000000000E+00 -0.17518009718E+03  0.17518009718E+03  0.00000000000E+00 0.  1.
         25    1    1    2    0    0  0.44932162200E+02  0.17452173750E+02 -0.67800652088E+02  0.15015127702E+03  0.12500000000E+03 0.  0.
          1    1    1    2  502    0  0.28793513560E+01 -0.40776605821E+02  0.13579200986E+04  0.13585352467E+04  0.00000000000E+00 0. -1.
         -1    1    1    2    0  501 -0.47811513556E+02  0.23324432071E+02 -0.55160148297E+02  0.76632968885E+02  0.00000000000E+00 0.  1.
<mgrwt>
<rscale>  0 0.44986841E+02</rscale>
<asrwt>0</asrwt>
<pdfrwt beam="1">  1        2 0.21694451E+00 0.40878139E+02</pdfrwt>
<pdfrwt beam="2">  1       -2 0.26950785E-01 0.49508512E+02</pdfrwt>
<totfact> 0.21176678E+02</totfact>
</mgrwt>
</event>
<event>
 5    1  0.8459321E-003  0.1105749E+03  0.7546771E-02  0.1326641E+00
          1   -1    0    0  501    0 -0.00000000000E+00  0.00000000000E+00  0.38114917833E+03  0.38114917833E+03  0.00000000000E+00 0. -1.
          2   -1    0    0  502    0  0.00000000000E+00 -0.00000000000E+00 -0.30168523974E+04  0.30168523974E+04  0.00000000000E+00 0. -1.
         25    1    1    2    0    0  0.71965625812E+02  0.10826454539E+03 -0.62934316178E+02  0.19101306563E+03  0.12500000000E+03 0.  0.
          2    1    1    2  501    0 -0.12851493830E+02 -0.10933653628E+03  0.30724248069E+03  0.32637031268E+03  0.00000000000E+00 0. -1.
          1    1    1    2  502    0 -0.59114131982E+02  0.10719908857E+01 -0.28800113836E+04  0.28806181974E+04  0.00000000000E+00 0. -1.
<mgrwt>
<rscale>  0 0.80855497E+02</rscale>
<asrwt>0</asrwt>
<pdfrwt beam="2">  1        2 0.46413116E+00 0.59123851E+02</pdfrwt>
<pdfrwt beam="1">  1        1 0.58638332E-01 0.11057486E+03</pdfrwt>
<totfact> 0.23165522E+01</totfact>
</mgrwt>
</event>
<event>
 5    1  0.8459321E-003  0.4371712E+02  0.7546771E-02  0.1566950E+00
          2   -1    0    0  502    0  0.00000000000E+00  0.00000000000E+00  0.23193966692E+04  0.23193966692E+04  0.00000000000E+00 0. -1.
          1   -1    0    0  501    0 -0.00000000000E+00 -0.00000000000E+00 -0.15639299548E+02  0.15639299548E+02  0.00000000000E+00 0. -1.
         25    1    1    2    0    0  0.43941575054E+02  0.16595785312E+02  0.45863585738E+03  0.47767994702E+03  0.12500000000E+03 0.  0.
          2    1    1    2  501    0 -0.17166379879E+02  0.18086177414E+02  0.20698980678E+02  0.32407440700E+02  0.00000000000E+00 0. -1.
          1    1    1    2  502    0 -0.26775195176E+02 -0.34681962727E+02  0.18244225316E+04  0.18249485810E+04  0.00000000000E+00 0. -1.
<mgrwt>
<rscale>  0 0.33016992E+02</rscale>
<asrwt>0</asrwt>
<pdfrwt beam="1">  1        2 0.35682998E+00 0.43717125E+02</pdfrwt>
<pdfrwt beam="2">  1        1 0.24060479E-02 0.24935806E+02</pdfrwt>
<totfact> 0.29208123E+03</totfact>
</mgrwt>
</event>
<event>
 5    1  0.8459321E-003  0.1067431E+03  0.7546771E-02  0.1374096E+00
          2   -1    0    0  502    0  0.00000000000E+00  0.00000000000E+00  0.32890870276E+04  0.32890870276E+04  0.00000000000E+00 0. -1.
          1   -1    0    0  501    0 -0.00000000000E+00 -0.00000000000E+00 -0.58760596322E+03  0.58760596322E+03  0.00000000000E+00 0. -1.
         25    1    1    2    0    0  0.36619977882E+02 -0.87818779402E+02  0.14385600988E+03  0.21300871431E+03  0.12500000000E+03 0.  0.
          2    1    1    2  501    0 -0.35950740433E+02 -0.19417883869E+02 -0.55134915689E+03  0.55286110620E+03  0.00000000000E+00 0. -1.
          1    1    1    2  502    0 -0.66923744827E+00  0.10723666327E+03  0.31089742114E+04  0.31108231703E+04  0.00000000000E+00 0. -1.
<mgrwt>
<rscale>  0 0.66041527E+02</rscale>
<asrwt>0</asrwt>
<pdfrwt beam="1">  1        2 0.50601338E+00 0.10674307E+03</pdfrwt>
<pdfrwt beam="2">  1        1 0.90400920E-01 0.40859637E+02</pdfrwt>
<totfact> 0.85663143E+00</totfact>
</mgrwt>
</event>
<event>
 5    1  0.8459321E-003  0.5616938E+02  0.7546771E-02  0.1492769E+00
          1   -1    0    0  501    0 -0.00000000000E+00  0.00000000000E+00  0.27008281295E+03  0.27008281295E+03  0.00000000000E+00 0. -1.
          2   -1    0    0  502    0  0.00000000000E+00 -0.00000000000E+00 -0.16466993416E+04  0.16466993416E+04  0.00000000000E+00 0. -1.
         25    1    1    2    0    0  0.42455543090E+02  0.18386267511E+02 -0.30774224646E+03  0.33536669218E+03  0.12500000000E+03 0.  0.
          2    1    1    2  501    0 -0.30174445979E+02 -0.47579978335E+02  0.25298193008E+03  0.25917987668E+03  0.00000000000E+00 0. -1.
          1    1    1    2  502    0 -0.12281097111E+02  0.29193710824E+02 -0.13218562123E+04  0.13222355857E+04  0.00000000000E+00 0. -1.
<mgrwt>
<rscale>  0 0.42177970E+02</rscale>
<asrwt>0</asrwt>
<pdfrwt beam="2">  1        2 0.25333836E+00 0.31671724E+02</pdfrwt>
<pdfrwt beam="1">  1        1 0.41551202E-01 0.56169382E+02</pdfrwt>
<totfact> 0.18856063E+02</totfact>
</mgrwt>
</event>
<event>
 5    1  0.8459321E-003  0.1087710E+03  0.7546771E-02  0.1268790E+00
         -1   -1    0    0    0  501 -0.00000000000E+00  0.00000000000E+00  0.60157039001E+03  0.60157039001E+03  0.00000000000E+00 0.  1.
          1   -1    0    0  502    0  0.00000000000E+00 -0.00000000000E+00 -0.29176917377E+03  0.29176917377E+03  0.00000000000E+00 0. -1.
         25    1    1    2    0    0  0.79317689960E+02  0.14929550760E+03 -0.42394840574E+02  0.21448255649E+03  0.12500000000E+03 0.  0.
          2    1    1    2  502    0  0.16742926793E+02 -0.10129832439E+03 -0.14082349577E+03  0.17427832074E+03  0.00000000000E+00 0. -1.
         -2    1    1    2    0  501 -0.96060616753E+02 -0.47997183216E+02  0.49301955259E+03  0.50457868655E+03  0.00000000000E+00 0.  1.
<mgrwt>
<rscale>  0 0.10567786E+03</rscale>
<asrwt>0</asrwt>
<pdfrwt beam="2">  1        1 0.44887565E-01 0.10267266E+03</pdfrwt>
<pdfrwt beam="1">  1       -1 0.92549290E-01 0.10877101E+03</pdfrwt>
<totfact> 0.11359888E+02</totfact>
</mgrwt>
</event>
<event>
 5    1  0.8459321E-003  0.3474907E+02  0.7546771E-02  0.1625682E+00
          2   -1    0    0  502    0  0.00000000000E+00  0.00000000000E+00  0.77481823014E+03  0.77481823014E+03  0.00000000000E+00 0. -1.
          1   -1    0    0  501    0 -0.00000000000E+00 -0.00000000000E+00 -0.91806169805E+03  0.91806169805E+03  0.00000000000E+00 0. -1.
         25    1    1    2    0    0  0.34613141793E+02 -0.48341092176E+01 -0.29232278244E+03  0.31984222256E+03  0.12500000000E+03 0.  0.
          2    1    1    2  501    0 -0.99211075042E+01 -0.19628298386E+02 -0.61138451765E+03  0.61177996608E+03  0.00000000000E+00 0. -1.
          1    1    1    2  502    0 -0.24692034289E+02  0.24462407604E+02  0.76046383219E+03  0.76125773954E+03  0.00000000000E+00 0. -1.
<mgrwt>
<rscale>  0 0.27644914E+02</rscale>
<asrwt>0</asrwt>
<pdfrwt beam="1">  1        2 0.11920280E+00 0.34749065E+02</pdfrwt>
<pdfrwt beam="2">  1        1 0.14124026E+00 0.21993146E+02</pdfrwt>
<totfact> 0.11728845E+02</totfact>
</mgrwt>
</event>
<event>
 5    1  0.8459321E-003  0.4647685E+02  0.7546771E-02  0.1515893E+00
         -2   -1    0    0    0  501 -0.00000000000E+00  0.00000000000E+00  0.21539690038E+03  0.21539690038E+03  0.00000000000E+00 0.  1.
          2   -1    0    0  502    0  0.00000000000E+00 -0.00000000000E+00 -0.58099953009E+03  0.58099953009E+03  0.00000000000E+00 0. -1.
         25    1    1    2    0    0 -0.23009838697E+01 -0.22954921735E+02  0.90849528456E+02  0.15623975096E+03  0.12500000000E+03 0.  0.
          1    1    1    2  502    0  0.19081195960E+02 -0.26535947996E+02 -0.54033752489E+03  0.54132512354E+03  0.00000000000E+00 0. -1.
         -1    1    1    2    0  501 -0.16780212090E+02  0.49490869731E+02  0.83885366727E+02  0.98831555970E+02  0.00000000000E+00 0.  1.
<mgrwt>
<rscale>  0 0.38975026E+02</rscale>
<asrwt>0</asrwt>
<pdfrwt beam="2">  1        2 0.89384543E-01 0.32684072E+02</pdfrwt>
<pdfrwt beam="1">  1       -2 0.33137985E-01 0.46476849E+02</pdfrwt>
<totfact> 0.45468681E+02</totfact>
</mgrwt>
</event>
<event>
 5    1  0.8459321E-003  0.5507305E+02  0.7546771E-02  0.1443367E+00
         -1   -1    0    0    0  501 -0.00000000000E+00  0.00000000000E+00  0.80391020654E+02  0.80391020654E+02  0.00000000000E+00 0.  1.
          1   -1    0    0  502    0  0.00000000000E+00 -0.00000000000E+00 -0.66030978294E+03  0.66030978294E+03  0.00000000000E+00 0. -1.
         25    1    1    2    0    0  0.18375601377E+02 -0.15527324101E+02 -0.61035512522E+02  0.14117044417E+03  0.12500000000E+03 0.  0.
          2    1    1    2  502    0  0.45274570235E+02  0.84953693057E+01 -0.53214422739E+03  0.53413428719E+03  0.00000000000E+00 0. -1.
         -2    1    1    2    0  501 -0.63650171612E+02  0.70319547958E+01  0.13260977631E+02  0.65396072223E+02  0.00000000000E+00 0.  1.
<mgrwt>
<rscale>  0 0.50367889E+02</rscale>
<asrwt>0</asrwt>
<pdfrwt beam="2">  1        1 0.10158612E+00 0.46064715E+02</pdfrwt>
<pdfrwt beam="1">  1       -1 0.12367850E-01 0.55073047E+02</pdfrwt>
<totfact> 0.13167331E+03</totfact>
</mgrwt>
</event>
<event>
 5    1  0.8459321E-003  0.8502036E+02  0.7546771E-02  0.1431404E+00
         -2   -1    0    0    0  501 -0.00000000000E+00  0.00000000000E+00  0.30283836457E+03  0.30283836457E+03  0.00000000000E+00 0.  1.
          2   -1    0    0  502    0  0.00000000000E+00 -0.00000000000E+00 -0.28746289479E+03  0.28746289479E+03  0.00000000000E+00 0. -1.
         25    1    1    2    0    0  0.49664867895E+01  0.59079010975E+02 -0.18232475608E+03  0.22887182485E+03  0.12500000000E+03 0.  0.
          1    1    1    2  502    0  0.24413292367E+02  0.21665174438E+02 -0.71634926143E+02  0.78720716912E+02  0.00000000000E+00 0. -1.
         -1    1    1    2    0  501 -0.29379779157E+02 -0.80744185413E+02  0.26933515200E+03  0.28270871760E+03  0.00000000000E+00 0.  1.
<mgrwt>
<rscale>  0 0.52679116E+02</rscale>
<asrwt>0</asrwt>
<pdfrwt beam="2">  1        2 0.44225061E-01 0.32640291E+02</pdfrwt>
<pdfrwt beam="1">  1       -2 0.46590518E-01 0.85020357E+02</pdfrwt>
<totfact> 0.49858974E+02</totfact>
</mgrwt>
</event>
<event>
 5    1  0.8459321E-003  0.3787130E+03  0.7546771E-02  0.1241639E+00
          2   -1    0    0  502    0  0.00000000000E+00  0.00000000000E+00  0.90884730476E+03  0.90884730476E+03  0.00000000000E+00 0. -1.
          1   -1    0    0  501    0 -0.00000000000E+00 -0.00000000000E+00 -0.32143039707E+04  0.32143039707E+04  0.00000000000E+00 0. -1.
         25    1    1    2    0    0 -0.39453605823E+03  0.16653824990E+02 -0.64999753283E+03  0.77075147993E+03  0.12500000000E+03 0.  0.
          2    1    1    2  501    0  0.17118147279E+02 -0.34583625548E+02 -0.24617051229E+04  0.24620075488E+04  0.00000000000E+00 0. -1.
          1    1    1    2  502    0  0.37741791095E+03  0.17929800558E+02  0.80624598972E+03  0.89039224682E+03  0.00000000000E+00 0. -1.
<mgrwt>
<rscale>  0 0.12088796E+03</rscale>
<asrwt>0</asrwt>
<pdfrwt beam="1">  1        2 0.13982266E+00 0.37871304E+03</pdfrwt>
<pdfrwt beam="2">  1        1 0.49450831E+00 0.38588316E+02</pdfrwt>
<totfact> 0.29653306E+00</totfact>
</mgrwt>
</event>
<event>
 5    1  0.8459321E-003  0.5782591E+02  0.7546771E-02  0.1489209E+00
          1   -1    0    0  501    0 -0.00000000000E+00  0.00000000000E+00  0.13446800254E+04  0.13446800254E+04  0.00000000000E+00 0. -1.
          2   -1    0    0  502    0  0.00000000000E+00 -0.00000000000E+00 -0.59696156852E+03  0.59696156852E+03  0.00000000000E+00 0. -1.
         25    1    1    2    0    0  0.52358172280E+02  0.14200155067E+02  0.30834249707E+02  0.13970960441E+03  0.12500000000E+03 0.  0.
          2    1    1    2  501    0 -0.55364434785E+02  0.17192260336E+02  0.12582818684E+04  0.12596166301E+04  0.00000000000E+00 0. -1.
          1    1    1    2  502    0  0.30062625052E+01 -0.31392415403E+02 -0.54139766128E+03  0.54231535936E+03  0.00000000000E+00 0. -1.
<mgrwt>
<rscale>  0 0.42703628E+02</rscale>
<asrwt>0</asrwt>
<pdfrwt beam="2">  1        2 0.91840242E-01 0.31536033E+02</pdfrwt>
<pdfrwt beam="1">  1        1 0.20687385E+00 0.57825911E+02</pdfrwt>
<totfact> 0.75805567E+01</totfact>
</mgrwt>
</event>
<event>
 5    1  0.8459321E-003  0.1106607E+03  0.7546771E-02  0.1285120E+00
          2   -1    0    0  502    0  0.00000000000E+00  0.00000000000E+00  0.13344281194E+04  0.13344281194E+04  0.00000000000E+00 0. -1.
          1   -1    0    0  501    0 -0.00000000000E+00 -0.00000000000E+00 -0.49135511815E+02  0.49135511815E+02  0.00000000000E+00 0. -1.
         25    1    1    2    0    0 -0.31490477181E+02  0.42678296212E+02  0.43488817157E+03  0.45559390788E+03  0.12500000000E+03 0.  0.
          2    1    1    2  501    0  0.11771229209E+03 -0.46989559143E+02  0.73970045050E+02  0.14675070679E+03  0.00000000000E+00 0. -1.
          1    1    1    2  502    0 -0.86221814910E+02  0.43112629303E+01  0.77643439100E+03  0.78121901659E+03  0.00000000000E+00 0. -1.
<mgrwt>
<rscale>  0 0.97740909E+02</rscale>
<asrwt>0</asrwt>
<pdfrwt beam="1">  1        2 0.20529661E+00 0.86329534E+02</pdfrwt>
<pdfrwt beam="2">  1        1 0.75593105E-02 0.11066068E+03</pdfrwt>
<totfact> 0.21828115E+03</totfact>
</mgrwt>
</event>
<event>
 5    1  0.8459321E-003  0.6234790E+02  0.7546771E-02  0.1471772E+00
         -1   -1    0    0    0  501 -0.00000000000E+00  0.00000000000E+00  0.89227826128E+01  0.89227826128E+01  0.00000000000E+00 0.  1.
          1   -1    0    0  502    0  0.00000000000E+00 -0.00000000000E+00 -0.18427846108E+04  0.18427846108E+04  0.00000000000E+00 0. -1.
         25    1    1    2    0    0 -0.50546542079E+01  0.55351623575E+02 -0.12673699420E+04  0.12747317057E+04  0.12500000000E+03 0.  0.
          2    1    1    2  502    0  0.32920886825E+02  0.32372990920E+01 -0.33296194473E+03  0.33460113798E+03  0.00000000000E+00 0. -1.
         -2    1    1    2    0  501 -0.27866232617E+02 -0.58588922667E+02 -0.23352994146E+03  0.24237454969E+03  0.00000000000E+00 0.  1.
<mgrwt>
<rscale>  0 0.45414185E+02</rscale>
<asrwt>0</asrwt>
<pdfrwt beam="2">  1        1 0.28350565E+00 0.33079675E+02</pdfrwt>
<pdfrwt beam="1">  1       -1 0.13727342E-02 0.62347897E+02</pdfrwt>
<totfact> 0.52873460E+03</totfact>
</mgrwt>
</event>
<event>
 5    1  0.8459321E-003  0.2691638E+02  0.7546771E-02  0.1656559E+00
         -2   -1    0    0    0  501 -0.00000000000E+00  0.00000000000E+00  0.59512218220E+02  0.59512218220E+02  0.00000000000E+00 0.  1.
          2   -1    0    0  502    0  0.00000000000E+00 -0.00000000000E+00 -0.61431196614E+03  0.61431196614E+03  0.00000000000E+00 0. -1.
         25    1    1    2    0    0  0.38400685052E+02 -0.26058573460E+02 -0.18663876468E+03  0.22937456342E+03  0.12500000000E+03 0.  0.
          1    1    1    2  502    0 -0.12491591620E+02  0.20262395416E+02 -0.40128970735E+03  0.40199506683E+03  0.00000000000E+00 0. -1.
         -1    1    1    2    0  501 -0.25909093433E+02  0.57961780434E+01  0.33128724118E+02  0.42454554103E+02  0.00000000000E+00 0.  1.
<mgrwt>
<rscale>  0 0.25312110E+02</rscale>
<asrwt>0</asrwt>
<pdfrwt beam="2">  1        2 0.94509541E-01 0.23803456E+02</pdfrwt>
<pdfrwt beam="1">  1       -2 0.91557251E-02 0.26916381E+02</pdfrwt>
<totfact> 0.33196850E+03</totfact>
</mgrwt>
</event>
<event>
 5    1  0.8459321E-003  0.4426168E+02  0.7546771E-02  0.1566721E+00
         -2   -1    0    0    0  501 -0.00000000000E+00  0.00000000000E+00  0.26626495490E+03  0.26626495490E+03  0.00000000000E+00 0.  1.
          2   -1    0    0  502    0  0.00000000000E+00 -0.00000000000E+00 -0.10333592821E+04  0.10333592821E+04  0.00000000000E+00 0. -1.
         25    1    1    2    0    0 -0.62600018607E+02  0.10502844780E+02 -0.16331472357E+03  0.21523422361E+03  0.12500000000E+03 0.  0.
          1    1    1    2  502    0  0.18848588255E+02 -0.15907938111E+02 -0.84188087322E+03  0.84224208899E+03  0.00000000000E+00 0. -1.
         -1    1    1    2    0  501  0.43751430352E+02  0.54050933308E+01  0.23810126961E+03  0.24214792438E+03  0.00000000000E+00 0.  1.
<mgrwt>
<rscale>  0 0.33040687E+02</rscale>
<asrwt>0</asrwt>
<pdfrwt beam="2">  1        2 0.15897835E+00 0.24664383E+02</pdfrwt>
<pdfrwt beam="1">  1       -2 0.40963839E-01 0.44261680E+02</pdfrwt>
<totfact> 0.16141515E+02</totfact>
</mgrwt>
</event>
<event>
 5    1  0.8459321E-003  0.6770817E+02  0.7546771E-02  0.1452861E+00
          1   -1    0    0  502    0  0.00000000000E+00  0.00000000000E+00  0.17281258110E+04  0.17281258110E+04  0.00000000000E+00 0. -1.
         -1   -1    0    0    0  501 -0.00000000000E+00 -0.00000000000E+00 -0.45211381862E+02  0.45211381862E+02  0.00000000000E+00 0.  1.
         25    1    1    2    0    0  0.79833066830E+02 -0.42396413479E+02  0.57124417577E+03  0.59170574003E+03  0.12500000000E+03 0.  0.
          2    1    1    2  502    0 -0.34340081621E+02 -0.63972118935E+01  0.11143199532E+04  0.11148673121E+04  0.00000000000E+00 0. -1.
         -2    1    1    2    0  501 -0.45492985208E+02  0.48793625372E+02 -0.26496998035E+01  0.66764140743E+02  0.00000000000E+00 0.  1.
<mgrwt>
<rscale>  0 0.48632345E+02</rscale>
<asrwt>0</asrwt>
<pdfrwt beam="1">  1        1 0.26586546E+00 0.34930868E+02</pdfrwt>
<pdfrwt beam="2">  1       -1 0.69555985E-02 0.67708166E+02</pdfrwt>
<totfact> 0.61062362E+02</totfact>
</mgrwt>
</event>
<event>
 5    1  0.8459321E-003  0.1015021E+03  0.7546771E-02  0.1310308E+00
          1   -1    0    0  501    0 -0.00000000000E+00  0.00000000000E+00  0.38064444576E+03  0.38064444576E+03  0.00000000000E+00 0. -1.
          2   -1    0    0  502    0  0.00000000000E+00 -0.00000000000E+00 -0.20809602904E+03  0.20809602904E+03  0.00000000000E+00 0. -1.
         25    1    1    2    0    0 -0.57197621881E+02 -0.37082900002E+02 -0.13211212957E+03  0.19423008057E+03  0.12500000000E+03 0.  0.
          2    1    1    2  501    0  0.14585555101E+03 -0.12338292341E+02  0.20803094101E+03  0.25436774095E+03  0.00000000000E+00 0. -1.
          1    1    1    2  502    0 -0.88657929130E+02  0.49421192342E+02  0.96629605279E+02  0.14014265327E+03  0.00000000000E+00 0. -1.
<mgrwt>
<rscale>  0 0.86990498E+02</rscale>
<asrwt>0</asrwt>
<pdfrwt beam="2">  1        2 0.32014774E-01 0.74553575E+02</pdfrwt>
<pdfrwt beam="1">  1        1 0.58560684E-01 0.10150213E+03</pdfrwt>
<totfact> 0.14134771E+03</totfact>
</mgrwt>
</event>
<event>
 5    1  0.8459321E-003  0.6391072E+02  0.7546771E-02  0.1474427E+00
          2   -1    0    0  502    0  0.00000000000E+00  0.00000000000E+00  0.41313081293E+04  0.41313081293E+04  0.00000000000E+00 0. -1.
          1   -1    0    0  501    0 -0.00000000000E+00 -0.00000000000E+00 -0.29484535270E+02  0.29484535270E+02  0.00000000000E+00 0. -1.
         25    1    1    2    0    0 -0.29026062027E+02  0.55157684973E+02  0.21600060236E+04  0.21645174761E+04  0.12500000000E+03 0.  0.
          2    1    1    2  501    0  0.29822254383E+02  0.10646053684E+02 -0.17279354723E+02  0.36073278409E+02  0.00000000000E+00 0. -1.
          1    1    1    2  502    0 -0.79619235566E+00 -0.65803738657E+02  0.19590969252E+04  0.19602019100E+04  0.00000000000E+00 0. -1.
<mgrwt>
<rscale>  0 0.44986292E+02</rscale>
<asrwt>0</asrwt>
<pdfrwt beam="1">  1        2 0.63558541E+00 0.63910724E+02</pdfrwt>
<pdfrwt beam="2">  1        1 0.45360856E-02 0.31665523E+02</pdfrwt>
<totfact> 0.10112552E+02</totfact>
</mgrwt>
</event>
<event>
 5    1  0.8459321E-003  0.5727210E+02  0.7546771E-02  0.1415150E+00
          2   -1    0    0  502    0  0.00000000000E+00  0.00000000000E+00  0.15086672067E+04  0.15086672067E+04  0.00000000000E+00 0. -1.
          1   -1    0    0  501    0 -0.00000000000E+00 -0.00000000000E+00 -0.23955133076E+03  0.23955133076E+03  0.00000000000E+00 0. -1.
         25    1    1    2    0    0  0.86279604017E+01 -0.24247414093E+02  0.20584030115E+02  0.12927134673E+03  0.12500000000E+03 0.  0.
          2    1    1    2  501    0  0.43299520363E+02  0.41987981398E+02 -0.17975630851E+03  0.18960529923E+03  0.00000000000E+00 0. -1.
          1    1    1    2  502    0 -0.51927480764E+02 -0.17740567305E+02  0.14282881543E+04  0.14293418915E+04  0.00000000000E+00 0. -1.
<mgrwt>
<rscale>  0 0.56060393E+02</rscale>
<asrwt>0</asrwt>
<pdfrwt beam="1">  1        2 0.23210264E+00 0.54874320E+02</pdfrwt>
<pdfrwt beam="2">  1        1 0.36854052E-01 0.57272101E+02</pdfrwt>
<totfact> 0.24136235E+02</totfact>
</mgrwt>
</event>
<event>
 5    1  0.8459321E-003  0.6029072E+02  0.7546771E-02  0.1512366E+00
         -1   -1    0    0    0  502 -0.00000000000E+00  0.00000000000E+00  0.73250194473E+02  0.73250194473E+02  0.00000000000E+00 0.  1.
         -2   -1    0    0    0  501  0.00000000000E+00 -0.00000000000E+00 -0.16676960784E+04  0.16676960784E+04  0.00000000000E+00 0.  1.
         25    1    1    2    0    0  0.68009696415E+02  0.35625973980E+01 -0.12349041897E+04  0.12430814007E+04  0.12500000000E+03 0.  0.
         -2    1    1    2    0  502 -0.56934936732E+02  0.19741177044E+02  0.55558426924E+02  0.81963649833E+02  0.00000000000E+00 0.  1.
         -1    1    1    2    0  501 -0.11074759683E+02 -0.23303774442E+02 -0.41510012110E+03  0.41590122234E+03  0.00000000000E+00 0.  1.
<mgrwt>
<rscale>  0 0.39440962E+02</rscale>
<asrwt>0</asrwt>
<pdfrwt beam="2">  1       -2 0.25656859E+00 0.25801477E+02</pdfrwt>
<pdfrwt beam="1">  1       -1 0.11269262E-01 0.60290716E+02</pdfrwt>
<totfact> 0.28093970E+01</totfact>
</mgrwt>
</event>
<event>
 5    1  0.8706073E-003  0.1044928E+03  0.7546771E-02  0.1316548E+00
          2   -1    0    0  502    0  0.00000000000E+00  0.00000000000E+00  0.10365408385E+04  0.10365408385E+04  0.00000000000E+00 0. -1.
          1   -1    0    0  501    0 -0.00000000000E+00 -0.00000000000E+00 -0.27342057186E+04  0.27342057186E+04  0.00000000000E+00 0. -1.
         25    1    1    2    0    0 -0.10769025237E+03 -0.10272895419E+03 -0.68437245847E+03  0.71143593555E+03  0.12500000000E+03 0.  0.
          2    1    1    2  501    0  0.94935395290E+02  0.35474171909E+02 -0.20338932673E+04  0.20364166982E+04  0.00000000000E+00 0. -1.
          1    1    1    2  502    0  0.12754857076E+02  0.67254782278E+02  0.10206008456E+04  0.10228939233E+04  0.00000000000E+00 0. -1.
<mgrwt>
<rscale>  0 0.84574858E+02</rscale>
<asrwt>0</asrwt>
<pdfrwt beam="1">  1        2 0.15946782E+00 0.68453576E+02</pdfrwt>
<pdfrwt beam="2">  1        1 0.42064703E+00 0.10449281E+03</pdfrwt>
<totfact> 0.46996315E+00</totfact>
</mgrwt>
</event>
<event>
 5    1  0.8459321E-003  0.4616019E+02  0.7546771E-02  0.1578832E+00
          1   -1    0    0  502    0  0.00000000000E+00  0.00000000000E+00  0.16273825150E+04  0.16273825150E+04  0.00000000000E+00 0. -1.
         -3   -1    0    0    0  501 -0.00000000000E+00 -0.00000000000E+00 -0.18115163394E+03  0.18115163394E+03  0.00000000000E+00 0.  1.
         25    1    1    2    0    0 -0.21822398158E+02 -0.60656865517E+02  0.13683958067E+04  0.13756044330E+04  0.12500000000E+03 0.  0.
          2    1    1    2  502    0 -0.29249310608E+01  0.21734496732E+02  0.25190241252E+03  0.25285523329E+03  0.00000000000E+00 0. -1.
         -2    1    1    2    0  501  0.24747329219E+02  0.38922368785E+02 -0.17406733813E+03  0.18007448264E+03  0.00000000000E+00 0.  1.
<mgrwt>
<rscale>  0 0.31816860E+02</rscale>
<asrwt>0</asrwt>
<pdfrwt beam="1">  1        1 0.25036653E+00 0.21930426E+02</pdfrwt>
<pdfrwt beam="2">  1       -3 0.27869483E-01 0.46160188E+02</pdfrwt>
<totfact> 0.46102156E+01</totfact>
</mgrwt>
</event>
<event>
 5    1  0.8459321E-003  0.5052029E+02  0.7546771E-02  0.1517966E+00
          1   -1    0    0  501    0 -0.00000000000E+00  0.00000000000E+00  0.55043304164E+03  0.55043304164E+03  0.00000000000E+00 0. -1.
          2   -1    0    0  502    0  0.00000000000E+00 -0.00000000000E+00 -0.30247054167E+03  0.30247054167E+03  0.00000000000E+00 0. -1.
         25    1    1    2    0    0  0.46003933589E+02  0.18005626591E+02  0.31258969095E+03  0.34026148678E+03  0.12500000000E+03 0.  0.
          2    1    1    2  501    0  0.32660554829E+01 -0.29472082892E+02  0.22079219849E+03  0.22277447273E+03  0.00000000000E+00 0. -1.
          3    1    1    2  502    0 -0.49269989072E+02  0.11466456301E+02 -0.28541938947E+03  0.28986762380E+03  0.00000000000E+00 0. -1.
<mgrwt>
<rscale>  0 0.38704689E+02</rscale>
<asrwt>0</asrwt>
<pdfrwt beam="2">  1        2 0.46533929E-01 0.50520290E+02</pdfrwt>
<pdfrwt beam="1">  1        1 0.84682007E-01 0.29652501E+02</pdfrwt>
<totfact> 0.61631599E+02</totfact>
</mgrwt>
</event>
<event>
 5    1  0.8459321E-003  0.1170659E+03  0.7546771E-02  0.1389607E+00
          2   -1    0    0  502    0  0.00000000000E+00  0.00000000000E+00  0.19544043879E+04  0.19544043879E+04  0.00000000000E+00 0. -1.
         -2   -1    0    0    0  501 -0.00000000000E+00 -0.00000000000E+00 -0.68068614264E+02  0.68068614264E+02  0.00000000000E+00 0.  1.
         25    1    1    2    0    0  0.12847532237E+03 -0.28243738969E+02  0.48654355291E+03  0.51928147101E+03  0.12500000000E+03 0.  0.
          1    1    1    2  502    0 -0.10400208958E+03  0.50143248782E+02  0.14437284655E+04  0.14483378964E+04  0.00000000000E+00 0. -1.
         -1    1    1    2    0  501 -0.24473232787E+02 -0.21899509813E+02 -0.43936244719E+02  0.54853634822E+02  0.00000000000E+00 0.  1.
<mgrwt>
<rscale>  0 0.62004475E+02</rscale>
<asrwt>0</asrwt>
<pdfrwt beam="1">  1        2 0.30067756E+00 0.11706591E+03</pdfrwt>
<pdfrwt beam="2">  1       -2 0.10472096E-01 0.32840945E+02</pdfrwt>
<totfact> 0.45761852E+02</totfact>
</mgrwt>
</event>
<event>
 5    1  0.8459321E-003  0.1037202E+03  0.7546771E-02  0.1387865E+00
          2   -1    0    0  502    0  0.00000000000E+00  0.00000000000E+00  0.15746466530E+04  0.15746466530E+04  0.00000000000E+00 0. -1.
          1   -1    0    0  501    0 -0.00000000000E+00 -0.00000000000E+00 -0.46262426767E+03  0.46262426767E+03  0.00000000000E+00 0. -1.
         25    1    1    2    0    0  0.90208737749E+02  0.53424573045E+02  0.30813355125E+03  0.34865898350E+03  0.12500000000E+03 0.  0.
          2    1    1    2  501    0 -0.25086169573E+02  0.27994803006E+02 -0.43937706525E+03  0.44098212023E+03  0.00000000000E+00 0. -1.
          1    1    1    2  502    0 -0.65122568176E+02 -0.81419376051E+02  0.12432658993E+04  0.12476298169E+04  0.00000000000E+00 0. -1.
<mgrwt>
<rscale>  0 0.62440904E+02</rscale>
<asrwt>0</asrwt>
<pdfrwt beam="1">  1        2 0.24225333E+00 0.10372023E+03</pdfrwt>
<pdfrwt beam="2">  1        1 0.71172965E-01 0.37590223E+02</pdfrwt>
<totfact> 0.96148848E+01</totfact>
</mgrwt>
</event>
<event>
 5    1  0.8459321E-003  0.7697998E+02  0.7546771E-02  0.1414469E+00
          1   -1    0    0  501    0 -0.00000000000E+00  0.00000000000E+00  0.45035184674E+03  0.45035184674E+03  0.00000000000E+00 0. -1.
          2   -1    0    0  502    0  0.00000000000E+00 -0.00000000000E+00 -0.14083070459E+04  0.14083070459E+04  0.00000000000E+00 0. -1.
         25    1    1    2    0    0  0.37699901610E+02  0.22899830815E+02  0.53818019563E+00  0.13255555239E+03  0.12500000000E+03 0.  0.
          2    1    1    2  501    0 -0.48703624759E+02 -0.62438758015E+02  0.37940242996E+03  0.38757817976E+03  0.00000000000E+00 0. -1.
          1    1    1    2  502    0  0.11003723149E+02  0.39538927200E+02 -0.13378958093E+04  0.13385251605E+04  0.00000000000E+00 0. -1.
<mgrwt>
<rscale>  0 0.56208341E+02</rscale>
<asrwt>0</asrwt>
<pdfrwt beam="2">  1        2 0.21666262E+00 0.41041548E+02</pdfrwt>
<pdfrwt beam="1">  1        1 0.69284901E-01 0.76979981E+02</pdfrwt>
<totfact> 0.12868626E+02</totfact>
</mgrwt>
</event>
<event>
 5    1  0.8459321E-003  0.5401758E+02  0.7546771E-02  0.1568249E+00
          1   -1    0    0  501    0 -0.00000000000E+00  0.00000000000E+00  0.11358824750E+03  0.11358824750E+03  0.00000000000E+00 0. -1.
          2   -1    0    0  502    0  0.00000000000E+00 -0.00000000000E+00 -0.18073313310E+04  0.18073313310E+04  0.00000000000E+00 0. -1.
         25    1    1    2    0    0  0.38055343716E+02  0.11322759902E+02 -0.76583672064E+03  0.77698603383E+03  0.12500000000E+03 0.  0.
          2    1    1    2  501    0  0.18002156154E+02 -0.87523993613E+01  0.10631897516E+03  0.10818690586E+03  0.00000000000E+00 0. -1.
          3    1    1    2  502    0 -0.56057499870E+02 -0.25703605408E+01 -0.10342253380E+04  0.10357466388E+04  0.00000000000E+00 0. -1.
<mgrwt>
<rscale>  0 0.32882707E+02</rscale>
<asrwt>0</asrwt>
<pdfrwt beam="2">  1        2 0.27805097E+00 0.54017582E+02</pdfrwt>
<pdfrwt beam="1">  1        1 0.17475116E-01 0.20017046E+02</pdfrwt>
<totfact> 0.40344441E+02</totfact>
</mgrwt>
</event>
<event>
 5    1  0.8459321E-003  0.2329961E+03  0.7546771E-02  0.1296763E+00
          2   -1    0    0  502    0  0.00000000000E+00  0.00000000000E+00  0.35477657228E+04  0.35477657228E+04  0.00000000000E+00 0. -1.
          1   -1    0    0  501    0 -0.00000000000E+00 -0.00000000000E+00 -0.78338625569E+03  0.78338625569E+03  0.00000000000E+00 0. -1.
         25    1    1    2    0    0 -0.15023670246E+03  0.14815426590E+03  0.10033107761E+04  0.10328495857E+04  0.12500000000E+03 0.  0.
          2    1    1    2  501    0  0.14327584518E+03 -0.18426163192E+03 -0.75075892674E+03  0.78620562379E+03  0.00000000000E+00 0. -1.
          1    1    1    2  502    0  0.69608572833E+01  0.36107366020E+02  0.25118276178E+04  0.25120967690E+04  0.00000000000E+00 0. -1.
<mgrwt>
<rscale>  0 0.92562302E+02</rscale>
<asrwt>0</asrwt>
<pdfrwt beam="1">  1        2 0.54581010E+00 0.36772210E+02</pdfrwt>
<pdfrwt beam="2">  1        1 0.12052096E+00 0.23299605E+03</pdfrwt>
<totfact> 0.45748416E+00</totfact>
</mgrwt>
</event>
<event>
 5    1  0.8459321E-003  0.5411370E+02  0.7546771E-02  0.1435667E+00
          2   -1    0    0  502    0  0.00000000000E+00  0.00000000000E+00  0.74179531367E+03  0.74179531367E+03  0.00000000000E+00 0. -1.
          1   -1    0    0  501    0 -0.00000000000E+00 -0.00000000000E+00 -0.10431785871E+03  0.10431785871E+03  0.00000000000E+00 0. -1.
         25    1    1    2    0    0  0.45450334993E+02  0.59457685193E+02  0.42227064671E+03  0.44669726701E+03  0.12500000000E+03 0.  0.
          2    1    1    2  501    0 -0.53063598334E+02 -0.10384762815E+02 -0.81926800588E+02  0.98161038205E+02  0.00000000000E+00 0. -1.
          3    1    1    2  502    0  0.76132633419E+01 -0.49072922378E+02  0.29713360884E+03  0.30125486717E+03  0.00000000000E+00 0. -1.
<mgrwt>
<rscale>  0 0.51839031E+02</rscale>
<asrwt>0</asrwt>
<pdfrwt beam="1">  1        2 0.11412235E+00 0.49659979E+02</pdfrwt>
<pdfrwt beam="2">  1        1 0.16048902E-01 0.54113699E+02</pdfrwt>
<totfact> 0.17837453E+03</totfact>
</mgrwt>
</event>
<event>
 5    1  0.8459321E-003  0.7761373E+02  0.7546771E-02  0.1411439E+00
          2   -1    0    0  502    0  0.00000000000E+00  0.00000000000E+00  0.17508909407E+04  0.17508909407E+04  0.00000000000E+00 0. -1.
          1   -1    0    0  501    0 -0.00000000000E+00 -0.00000000000E+00 -0.31025546495E+03  0.31025546495E+03  0.00000000000E+00 0. -1.
         25    1    1    2    0    0  0.99637081628E+02 -0.51444594835E+02  0.93232264614E+03  0.94732497638E+03  0.12500000000E+03 0.  0.
          2    1    1    2  501    0 -0.35978373182E+02  0.21034586589E+02 -0.29977585225E+03  0.30265898098E+03  0.00000000000E+00 0. -1.
          1    1    1    2  502    0 -0.63658708446E+02  0.30410008246E+02  0.80808868191E+03  0.81116244834E+03  0.00000000000E+00 0. -1.
<mgrwt>
<rscale>  0 0.56873875E+02</rscale>
<asrwt>0</asrwt>
<pdfrwt beam="1">  1        2 0.26936783E+00 0.77613735E+02</pdfrwt>
<pdfrwt beam="2">  1        1 0.47731611E-01 0.41676098E+02</pdfrwt>
<totfact> 0.12979495E+02</totfact>
</mgrwt>
</event>
<event>
 5    1  0.8459321E-003  0.8939629E+02  0.7546771E-02  0.1454297E+00
          2   -1    0    0  502    0  0.00000000000E+00  0.00000000000E+00  0.69557003594E+03  0.69557003594E+03  0.00000000000E+00 0. -1.
          1   -1    0    0  501    0 -0.00000000000E+00 -0.00000000000E+00 -0.22037456741E+03  0.22037456741E+03  0.00000000000E+00 0. -1.
         25    1    1    2    0    0  0.54888583262E+01  0.65629393707E+02  0.19269895317E+03  0.23894608479E+03  0.12500000000E+03 0.  0.
          2    1    1    2  501    0 -0.17644885761E+02 -0.88815461773E+02 -0.18647440991E+03  0.20729745246E+03  0.00000000000E+00 0. -1.
          1    1    1    2  502    0  0.12156027434E+02  0.23186068066E+02  0.46897092527E+03  0.46970106611E+03  0.00000000000E+00 0. -1.
<mgrwt>
<rscale>  0 0.48377105E+02</rscale>
<asrwt>0</asrwt>
<pdfrwt beam="1">  1        2 0.10701077E+00 0.26179434E+02</pdfrwt>
<pdfrwt beam="2">  1        1 0.33903780E-01 0.89396292E+02</pdfrwt>
<totfact> 0.78978075E+02</totfact>
</mgrwt>
</event>
<event>
 5    1  0.8459321E-003  0.1191800E+03  0.7546771E-02  0.1256940E+00
          2   -1    0    0  502    0  0.00000000000E+00  0.00000000000E+00  0.13406341519E+03  0.13406341519E+03  0.00000000000E+00 0. -1.
          1   -1    0    0  501    0 -0.00000000000E+00 -0.00000000000E+00 -0.23453386912E+04  0.23453386912E+04  0.00000000000E+00 0. -1.
         25    1    1    2    0    0 -0.96015788829E+01 -0.19674750148E+02 -0.45826778128E+03  0.47551408545E+03  0.12500000000E+03 0.  0.
          2    1    1    2  501    0 -0.76899367661E+02 -0.71819420945E+02 -0.18449706943E+04  0.18479687240E+04  0.00000000000E+00 0. -1.
          1    1    1    2  502    0  0.86500946544E+02  0.91494171093E+02  0.91963199545E+02  0.15591929697E+03  0.00000000000E+00 0. -1.
<mgrwt>
<rscale>  0 0.11198344E+03</rscale>
<asrwt>0</asrwt>
<pdfrwt beam="1">  1        2 0.20625144E-01 0.11918004E+03</pdfrwt>
<pdfrwt beam="2">  1        1 0.36082129E+00 0.10522140E+03</pdfrwt>
<totfact> 0.80959986E+01</totfact>
</mgrwt>
</event>
<event>
 5    1  0.8459321E-003  0.1196214E+03  0.7546771E-02  0.1358210E+00
          1   -1    0    0  501    0 -0.00000000000E+00  0.00000000000E+00  0.51085633839E+03  0.51085633839E+03  0.00000000000E+00 0. -1.
          2   -1    0    0  502    0  0.00000000000E+00 -0.00000000000E+00 -0.44200808064E+03  0.44200808064E+03  0.00000000000E+00 0. -1.
         25    1    1    2    0    0  0.10521500247E+03  0.51634047398E+02 -0.30301822638E+02  0.17400997687E+03  0.12500000000E+03 0.  0.
          2    1    1    2  501    0 -0.11969236359E+03 -0.12616688410E+02  0.42942274429E+03  0.44597010667E+03  0.00000000000E+00 0. -1.
          3    1    1    2  502    0  0.14477361117E+02 -0.39017358988E+02 -0.33027266391E+03  0.33288433549E+03  0.00000000000E+00 0. -1.
<mgrwt>
<rscale>  0 0.70556677E+02</rscale>
<asrwt>0</asrwt>
<pdfrwt beam="2">  1        2 0.68001243E-01 0.41616683E+02</pdfrwt>
<pdfrwt beam="1">  1        1 0.78593283E-01 0.11962137E+03</pdfrwt>
<totfact> 0.44380505E+02</totfact>
</mgrwt>
</event>
<event>
 5    1  0.8459321E-003  0.6298880E+02  0.7546771E-02  0.1429000E+00
          1   -1    0    0  502    0  0.00000000000E+00  0.00000000000E+00  0.70544782593E+03  0.70544782593E+03  0.00000000000E+00 0. -1.
         -1   -1    0    0    0  501 -0.00000000000E+00 -0.00000000000E+00 -0.78605394716E+02  0.78605394716E+02  0.00000000000E+00 0.  1.
         25    1    1    2    0    0 -0.75375254229E+02 -0.31325218800E+02  0.12349859606E+03  0.19375139099E+03  0.12500000000E+03 0.  0.
          2    1    1    2  502    0  0.61621222600E+02 -0.11381663248E+02  0.53290189939E+03  0.53657352871E+03  0.00000000000E+00 0. -1.
         -2    1    1    2    0  501  0.13754031629E+02  0.42706882048E+02 -0.29558064243E+02  0.53728300942E+02  0.00000000000E+00 0.  1.
<mgrwt>
<rscale>  0 0.53161274E+02</rscale>
<asrwt>0</asrwt>
<pdfrwt beam="1">  1        1 0.10853043E+00 0.62988802E+02</pdfrwt>
<pdfrwt beam="2">  1       -1 0.12093138E-01 0.44867039E+02</pdfrwt>
<totfact> 0.12110405E+03</totfact>
</mgrwt>
</event>
<event>
 5    1  0.8459321E-003  0.3590925E+02  0.7546771E-02  0.1605164E+00
         -2   -1    0    0    0  501  0.00000000000E+00  0.00000000000E+00  0.24307862577E+03  0.24307862577E+03  0.00000000000E+00 0.  1.
         -1   -1    0    0    0  502 -0.00000000000E+00 -0.00000000000E+00 -0.23217820416E+03  0.23217820416E+03  0.00000000000E+00 0.  1.
         25    1    1    2    0    0  0.54929174044E+02 -0.20881984386E+01  0.18922791862E+02  0.13785734215E+03  0.12500000000E+03 0.  0.
         -2    1    1    2    0  502 -0.20912582902E+02  0.11817954474E+02 -0.16995633477E+03  0.17164543658E+03  0.00000000000E+00 0.  1.
         -1    1    1    2    0  501 -0.34016591143E+02 -0.97297560358E+01  0.16193396452E+03  0.16575405120E+03  0.00000000000E+00 0.  1.
<mgrwt>
<rscale>  0 0.29369541E+02</rscale>
<asrwt>0</asrwt>
<pdfrwt beam="1">  1       -2 0.37396712E-01 0.35909251E+02</pdfrwt>
<pdfrwt beam="2">  1       -1 0.35719724E-01 0.24020828E+02</pdfrwt>
<totfact> 0.35793312E+02</totfact>
</mgrwt>
</event>
<event>
 5    1  0.8459321E-003  0.1275269E+03  0.7546771E-02  0.1289127E+00
          2   -1    0    0  502    0  0.00000000000E+00  0.00000000000E+00  0.39764175115E+03  0.39764175115E+03  0.00000000000E+00 0. -1.
          1   -1    0    0  501    0 -0.00000000000E+00 -0.00000000000E+00 -0.45353069763E+03  0.45353069763E+03  0.00000000000E+00 0. -1.
         25    1    1    2    0    0 -0.61529659695E+02 -0.30384274943E+02  0.20229499455E+02  0.14402546939E+03  0.12500000000E+03 0.  0.
          2    1    1    2  501    0  0.13361752229E+03  0.27644652926E+02 -0.37532958455E+03  0.39936219918E+03  0.00000000000E+00 0. -1.
          1    1    1    2  502    0 -0.72087862591E+02  0.27396220172E+01  0.29921113861E+03  0.30778478021E+03  0.00000000000E+00 0. -1.
<mgrwt>
<rscale>  0 0.95915487E+02</rscale>
<asrwt>0</asrwt>
<pdfrwt beam="1">  1        2 0.61175654E-01 0.72139902E+02</pdfrwt>
<pdfrwt beam="2">  1        1 0.69773953E-01 0.12752694E+03</pdfrwt>
<totfact> 0.57537290E+02</totfact>
</mgrwt>
</event>
<event>
 5    1  0.8459321E-003  0.6302484E+02  0.7546771E-02  0.1431176E+00
          1   -1    0    0  501    0 -0.00000000000E+00  0.00000000000E+00  0.12029515695E+04  0.12029515695E+04  0.00000000000E+00 0. -1.
          2   -1    0    0  502    0  0.00000000000E+00 -0.00000000000E+00 -0.18081723935E+04  0.18081723935E+04  0.00000000000E+00 0. -1.
         25    1    1    2    0    0  0.52553290222E+02  0.88449289118E+02 -0.24298687576E+03  0.29198073027E+03  0.12500000000E+03 0.  0.
          2    1    1    2  501    0 -0.32638625379E+02 -0.29668481377E+02  0.11774165241E+04  0.11782424071E+04  0.00000000000E+00 0. -1.
          3    1    1    2  502    0 -0.19914664842E+02 -0.58780807741E+02 -0.15396504724E+04  0.15409008256E+04  0.00000000000E+00 0. -1.
<mgrwt>
<rscale>  0 0.52724637E+02</rscale>
<asrwt>0</asrwt>
<pdfrwt beam="2">  1        2 0.27818037E+00 0.63024838E+02</pdfrwt>
<pdfrwt beam="1">  1        1 0.18506947E+00 0.44107807E+02</pdfrwt>
<totfact> 0.19507178E+01</totfact>
</mgrwt>
</event>
<event>
 5    1  0.8459321E-003  0.1360391E+03  0.7546771E-02  0.1285910E+00
          1   -1    0    0  501    0 -0.00000000000E+00  0.00000000000E+00  0.10645442142E+04  0.10645442142E+04  0.00000000000E+00 0. -1.
          2   -1    0    0  502    0  0.00000000000E+00 -0.00000000000E+00 -0.69978480073E+03  0.69978480073E+03  0.00000000000E+00 0. -1.
         25    1    1    2    0    0 -0.86141741312E+02 -0.70530498599E+02  0.20836544265E+03  0.26727534215E+03  0.12500000000E+03 0.  0.
          2    1    1    2  501    0  0.54887549543E+02  0.13283324412E+03  0.81863418383E+03  0.83115536500E+03  0.00000000000E+00 0. -1.
          1    1    1    2  502    0  0.31254191769E+02 -0.62302745520E+02 -0.66224021300E+03  0.66589830779E+03  0.00000000000E+00 0. -1.
<mgrwt>
<rscale>  0 0.97377026E+02</rscale>
<asrwt>0</asrwt>
<pdfrwt beam="2">  1        2 0.10765920E+00 0.69702630E+02</pdfrwt>
<pdfrwt beam="1">  1        1 0.16377603E+00 0.13603913E+03</pdfrwt>
<totfact> 0.89978498E+01</totfact>
</mgrwt>
</event>
<event>
 5    1  0.8459321E-003  0.8974415E+02  0.7546771E-02  0.1336596E+00
          2   -1    0    0  502    0  0.00000000000E+00  0.00000000000E+00  0.74700708213E+03  0.74700708213E+03  0.00000000000E+00 0. -1.
          1   -1    0    0  501    0 -0.00000000000E+00 -0.00000000000E+00 -0.70455679944E+03  0.70455679944E+03  0.00000000000E+00 0. -1.
         25    1    1    2    0    0 -0.89997334723E+01 -0.14814123352E+03 -0.33515801164E+03  0.38727601661E+03  0.12500000000E+03 0.  0.
          2    1    1    2  501    0  0.27622833241E+02  0.60770255035E+02 -0.33728868857E+03  0.34383092393E+03  0.00000000000E+00 0. -1.
          1    1    1    2  502    0 -0.18623099769E+02  0.87370978482E+02  0.71489698290E+03  0.72045694104E+03  0.00000000000E+00 0. -1.
<mgrwt>
<rscale>  0 0.77399910E+02</rscale>
<asrwt>0</asrwt>
<pdfrwt beam="1">  1        2 0.11492417E+00 0.89744148E+02</pdfrwt>
<pdfrwt beam="2">  1        1 0.10839335E+00 0.66753613E+02</pdfrwt>
<totfact> 0.16296340E+02</totfact>
</mgrwt>
</event>
<event>
 5    1  0.8459321E-003  0.7272814E+02  0.7546771E-02  0.1410299E+00
          1   -1    0    0  501    0 -0.00000000000E+00  0.00000000000E+00  0.97621044984E+03  0.97621044984E+03  0.00000000000E+00 0. -1.
          2   -1    0    0  502    0  0.00000000000E+00 -0.00000000000E+00 -0.93724987773E+03  0.93724987773E+03  0.00000000000E+00 0. -1.
         25    1    1    2    0    0 -0.19522324816E+02  0.65123178330E+02  0.34370152070E+03  0.37199178063E+03  0.12500000000E+03 0.  0.
          2    1    1    2  501    0  0.59953775584E+02 -0.45658974175E+02  0.61551902624E+03  0.62011520607E+03  0.00000000000E+00 0. -1.
          3    1    1    2  502    0 -0.40431450768E+02 -0.19464204155E+02 -0.92025997484E+03  0.92135334087E+03  0.00000000000E+00 0. -1.
<mgrwt>
<rscale>  0 0.57127108E+02</rscale>
<asrwt>0</asrwt>
<pdfrwt beam="2">  1        2 0.14419229E+00 0.44872680E+02</pdfrwt>
<pdfrwt beam="1">  1        1 0.15018622E+00 0.72728138E+02</pdfrwt>
<totfact> 0.77671770E+01</totfact>
</mgrwt>
</event>
<event>
 5    1  0.8459321E-003  0.1741482E+03  0.7546771E-02  0.1233229E+00
          2   -1    0    0  502    0  0.00000000000E+00  0.00000000000E+00  0.81453319897E+03  0.81453319897E+03  0.00000000000E+00 0. -1.
          1   -1    0    0  501    0 -0.00000000000E+00 -0.00000000000E+00 -0.26162810542E+03  0.26162810542E+03  0.00000000000E+00 0. -1.
         25    1    1    2    0    0 -0.15086840810E+03 -0.17216545478E+03  0.34400043836E+03  0.43169841554E+03  0.12500000000E+03 0.  0.
          2    1    1    2  501    0  0.16064930364E+02  0.90009192261E+02 -0.19251122347E+03  0.21312040691E+03  0.00000000000E+00 0. -1.
          1    1    1    2  502    0  0.13480347774E+03  0.82156262523E+02  0.40141587867E+03  0.43134248194E+03  0.00000000000E+00 0. -1.
<mgrwt>
<rscale>  0 0.12618497E+03</rscale>
<asrwt>0</asrwt>
<pdfrwt beam="1">  1        2 0.12531280E+00 0.17414818E+03</pdfrwt>
<pdfrwt beam="2">  1        1 0.40250478E-01 0.91431596E+02</pdfrwt>
<totfact> 0.49891536E+02</totfact>
</mgrwt>
</event>
<event>
 5    1  0.8459321E-003  0.8765046E+02  0.7546771E-02  0.1472171E+00
          1   -1    0    0  501    0 -0.00000000000E+00  0.00000000000E+00  0.13644228298E+03  0.13644228298E+03  0.00000000000E+00 0. -1.
          2   -1    0    0  502    0  0.00000000000E+00 -0.00000000000E+00 -0.10571416028E+04  0.10571416028E+04  0.00000000000E+00 0. -1.
         25    1    1    2    0    0  0.60196591200E+02 -0.31622377265E+02 -0.15334868575E+03  0.20919948317E+03  0.12500000000E+03 0.  0.
          2    1    1    2  501    0 -0.83646868560E+02  0.32407652193E+02  0.89790159453E+02  0.12692252470E+03  0.00000000000E+00 0. -1.
          1    1    1    2  502    0  0.23450277360E+02 -0.78527492781E+00 -0.85714079348E+03  0.85746187788E+03  0.00000000000E+00 0. -1.
<mgrwt>
<rscale>  0 0.45349528E+02</rscale>
<asrwt>0</asrwt>
<pdfrwt beam="2">  1        2 0.16263717E+00 0.23463422E+02</pdfrwt>
<pdfrwt beam="1">  1        1 0.20991121E-01 0.87650460E+02</pdfrwt>
<totfact> 0.87644034E+02</totfact>
</mgrwt>
</event>
<event>
 5    1  0.8459321E-003  0.4619399E+02  0.7546771E-02  0.1513022E+00
          2   -1    0    0  502    0  0.00000000000E+00  0.00000000000E+00  0.17948654535E+04  0.17948654535E+04  0.00000000000E+00 0. -1.
         -2   -1    0    0    0  501 -0.00000000000E+00 -0.00000000000E+00 -0.77209406324E+01  0.77209406324E+01  0.00000000000E+00 0.  1.
         25    1    1    2    0    0  0.13380279108E+01 -0.13225489386E+02  0.71784185676E+03  0.72876514406E+03  0.12500000000E+03 0.  0.
          1    1    1    2  502    0 -0.42783685372E+02 -0.17419548153E+02  0.56814353095E+03  0.57001838229E+03  0.00000000000E+00 0. -1.
         -1    1    1    2    0  501  0.41445657461E+02  0.30645037539E+02  0.50115912517E+03  0.50380286779E+03  0.00000000000E+00 0.  1.
<mgrwt>
<rscale>  0 0.39353775E+02</rscale>
<asrwt>0</asrwt>
<pdfrwt beam="1">  1        2 0.27613281E+00 0.46193987E+02</pdfrwt>
<pdfrwt beam="2">  1       -2 0.11878384E-02 0.33526433E+02</pdfrwt>
<totfact> 0.13541804E+04</totfact>
</mgrwt>
</event>
<event>
 5    1  0.8459321E-003  0.1466243E+03  0.7546771E-02  0.1240338E+00
          1   -1    0    0  501    0 -0.00000000000E+00  0.00000000000E+00  0.47698247710E+03  0.47698247710E+03  0.00000000000E+00 0. -1.
          2   -1    0    0  502    0  0.00000000000E+00 -0.00000000000E+00 -0.70137659648E+03  0.70137659648E+03  0.00000000000E+00 0. -1.
         25    1    1    2    0    0  0.11938377830E+03 -0.17628228150E+03 -0.61890442004E+02  0.25452574743E+03  0.12500000000E+03 0.  0.
          2    1    1    2  501    0 -0.25078603375E+02  0.14014279401E+03  0.36236884301E+03  0.38933291339E+03  0.00000000000E+00 0. -1.
          1    1    1    2  502    0 -0.94305174929E+02  0.36139487481E+02 -0.52487252040E+03  0.53450041276E+03  0.00000000000E+00 0. -1.
<mgrwt>
<rscale>  0 0.12168806E+03</rscale>
<asrwt>0</asrwt>
<pdfrwt beam="2">  1        2 0.10790409E+00 0.10099272E+03</pdfrwt>
<pdfrwt beam="1">  1        1 0.73381920E-01 0.14662427E+03</pdfrwt>
<totfact> 0.28739705E+02</totfact>
</mgrwt>
</event>
<event>
 5    1  0.8459321E-003  0.2035362E+03  0.7546771E-02  0.1372042E+00
         -1   -1    0    0    0  501 -0.00000000000E+00  0.00000000000E+00  0.23046019668E+02  0.23046019668E+02  0.00000000000E+00 0.  1.
          1   -1    0    0  502    0  0.00000000000E+00 -0.00000000000E+00 -0.23490478912E+04  0.23490478912E+04  0.00000000000E+00 0. -1.
         25    1    1    2    0    0  0.13274489513E+03 -0.15545817010E+03 -0.12561920705E+04  0.12788400869E+04  0.12500000000E+03 0.  0.
          2    1    1    2  502    0  0.15046744141E+02  0.15766569076E+02 -0.10935119462E+03  0.11150189673E+03  0.00000000000E+00 0. -1.
         -2    1    1    2    0  501 -0.14779163927E+03  0.13969160103E+03 -0.96045860639E+03  0.98175192723E+03  0.00000000000E+00 0.  1.
<mgrwt>
<rscale>  0 0.66602693E+02</rscale>
<asrwt>0</asrwt>
<pdfrwt beam="2">  1        1 0.36139204E+00 0.21794247E+02</pdfrwt>
<pdfrwt beam="1">  1       -1 0.35455410E-02 0.20353622E+03</pdfrwt>
<totfact> 0.83036483E+02</totfact>
</mgrwt>
</event>
<event>
 5    1  0.8459321E-003  0.7768838E+02  0.7546771E-02  0.1349671E+00
          1   -1    0    0  502    0  0.00000000000E+00  0.00000000000E+00  0.12624951497E+04  0.12624951497E+04  0.00000000000E+00 0. -1.
         -1   -1    0    0    0  501 -0.00000000000E+00 -0.00000000000E+00 -0.70823448626E+02  0.70823448626E+02  0.00000000000E+00 0.  1.
         25    1    1    2    0    0  0.10667294745E+03 -0.37357249158E+02  0.46058163864E+03  0.49044380681E+03  0.12500000000E+03 0.  0.
          2    1    1    2  502    0 -0.63659945807E+02 -0.26335570872E+02  0.75824052291E+03  0.76136380369E+03  0.00000000000E+00 0. -1.
         -2    1    1    2    0  501 -0.43013001643E+02  0.63692820030E+02 -0.27150460470E+02  0.81510987832E+02  0.00000000000E+00 0.  1.
<mgrwt>
<rscale>  0 0.73158269E+02</rscale>
<asrwt>0</asrwt>
<pdfrwt beam="1">  1        1 0.19423001E+00 0.68892314E+02</pdfrwt>
<pdfrwt beam="2">  1       -1 0.10895916E-01 0.77688380E+02</pdfrwt>
<totfact> 0.57555647E+02</totfact>
</mgrwt>
</event>
<event>
 5    1  0.8459321E-003  0.7152761E+02  0.7546771E-02  0.1428820E+00
          1   -1    0    0  501    0 -0.00000000000E+00  0.00000000000E+00  0.82046196878E+03  0.82046196878E+03  0.00000000000E+00 0. -1.
          2   -1    0    0  502    0  0.00000000000E+00 -0.00000000000E+00 -0.81696650466E+03  0.81696650466E+03  0.00000000000E+00 0. -1.
         25    1    1    2    0    0 -0.56860458324E+02  0.82426774399E+02 -0.13201122613E+03  0.20755541111E+03  0.12500000000E+03 0.  0.
          2    1    1    2  501    0  0.56981299161E+02 -0.42862150996E+02  0.78045851045E+03  0.78370882283E+03  0.00000000000E+00 0. -1.
          1    1    1    2  502    0 -0.12084083710E+00 -0.39564623403E+02 -0.64495182020E+03  0.64616423950E+03  0.00000000000E+00 0. -1.
<mgrwt>
<rscale>  0 0.53197521E+02</rscale>
<asrwt>0</asrwt>
<pdfrwt beam="2">  1        2 0.12568715E+00 0.39564808E+02</pdfrwt>
<pdfrwt beam="1">  1        1 0.12622492E+00 0.71527613E+02</pdfrwt>
<totfact> 0.12095621E+02</totfact>
</mgrwt>
</event>
<event>
 5    1  0.8459321E-003  0.5922466E+02  0.7546771E-02  0.1479410E+00
          2   -1    0    0  502    0  0.00000000000E+00  0.00000000000E+00  0.72119975583E+03  0.72119975583E+03  0.00000000000E+00 0. -1.
          1   -1    0    0  501    0 -0.00000000000E+00 -0.00000000000E+00 -0.39497386526E+03  0.39497386526E+03  0.00000000000E+00 0. -1.
         25    1    1    2    0    0 -0.27584472217E+02 -0.46847600050E+02 -0.27303163551E+02  0.13901821276E+03  0.12500000000E+03 0.  0.
          2    1    1    2  501    0 -0.25753948319E+02  0.20608014355E+02 -0.30960770839E+03  0.31135974242E+03  0.00000000000E+00 0. -1.
          1    1    1    2  502    0  0.53338420536E+02  0.26239585694E+02  0.66313676250E+03  0.66579566591E+03  0.00000000000E+00 0. -1.
<mgrwt>
<rscale>  0 0.44198153E+02</rscale>
<asrwt>0</asrwt>
<pdfrwt beam="1">  1        2 0.11095381E+00 0.59224658E+02</pdfrwt>
<pdfrwt beam="2">  1        1 0.60765210E-01 0.32984180E+02</pdfrwt>
<totfact> 0.36565786E+02</totfact>
</mgrwt>
</event>
<event>
 5    1  0.8459321E-003  0.2615755E+03  0.7546771E-02  0.1205648E+00
          2   -1    0    0  502    0  0.00000000000E+00  0.00000000000E+00  0.15915238809E+04  0.15915238809E+04  0.00000000000E+00 0. -1.
          1   -1    0    0  501    0 -0.00000000000E+00 -0.00000000000E+00 -0.61599091913E+03  0.61599091913E+03  0.00000000000E+00 0. -1.
         25    1    1    2    0    0  0.18462765455E+03  0.20644935087E+03 -0.41346862961E+02  0.30666474916E+03  0.12500000000E+03 0.  0.
          2    1    1    2  501    0 -0.75255854982E+02  0.30866332977E+02 -0.42640881193E+03  0.43409751106E+03  0.00000000000E+00 0. -1.
          1    1    1    2  502    0 -0.10937179956E+03 -0.23731568385E+03  0.14432886366E+04  0.14667525398E+04  0.00000000000E+00 0. -1.
<mgrwt>
<rscale>  0 0.14586472E+03</rscale>
<asrwt>0</asrwt>
<pdfrwt beam="1">  1        2 0.24484983E+00 0.26157551E+03</pdfrwt>
<pdfrwt beam="2">  1        1 0.94767835E-01 0.81339869E+02</pdfrwt>
<totfact> 0.59420417E+01</totfact>
</mgrwt>
</event>
<event>
 5    1  0.8459321E-003  0.7125818E+02  0.7546771E-02  0.1444492E+00
          2   -1    0    0  502    0  0.00000000000E+00  0.00000000000E+00  0.65194581602E+03  0.65194581602E+03  0.00000000000E+00 0. -1.
          1   -1    0    0  501    0 -0.00000000000E+00 -0.00000000000E+00 -0.59287895502E+02  0.59287895502E+02  0.00000000000E+00 0. -1.
         25    1    1    2    0    0 -0.38597589515E+02  0.46324188073E+02  0.56915370622E+02  0.15000021243E+03  0.12500000000E+03 0.  0.
          2    1    1    2  501    0  0.25246921046E+02  0.24679612918E+02  0.20246157969E+02  0.40698860286E+02  0.00000000000E+00 0. -1.
          1    1    1    2  502    0  0.13350668469E+02 -0.71003800991E+02  0.51549639193E+03  0.52053463880E+03  0.00000000000E+00 0. -1.
<mgrwt>
<rscale>  0 0.50157927E+02</rscale>
<asrwt>0</asrwt>
<pdfrwt beam="1">  1        2 0.10029935E+00 0.71258176E+02</pdfrwt>
<pdfrwt beam="2">  1        1 0.91212151E-02 0.35305670E+02</pdfrwt>
<totfact> 0.40510566E+03</totfact>
</mgrwt>
</event>
<event>
 5    1  0.8459321E-003  0.1613760E+03  0.7546771E-02  0.1223105E+00
          1   -1    0    0  501    0 -0.00000000000E+00  0.00000000000E+00  0.47283690936E+03  0.47283690936E+03  0.00000000000E+00 0. -1.
          2   -1    0    0  502    0  0.00000000000E+00 -0.00000000000E+00 -0.15109750374E+04  0.15109750374E+04  0.00000000000E+00 0. -1.
         25    1    1    2    0    0  0.95699040869E+02 -0.16943700774E+03  0.18800102991E+03  0.29805468166E+03  0.12500000000E+03 0.  0.
          2    1    1    2  501    0 -0.13954848463E+03  0.69019215480E+02  0.20109895275E+03  0.25431913114E+03  0.00000000000E+00 0. -1.
          1    1    1    2  502    0  0.43849443762E+02  0.10041779226E+03 -0.14272381107E+04  0.14314381340E+04  0.00000000000E+00 0. -1.
<mgrwt>
<rscale>  0 0.13297611E+03</rscale>
<asrwt>0</asrwt>
<pdfrwt beam="2">  1        2 0.23245770E+00 0.10957421E+03</pdfrwt>
<pdfrwt beam="1">  1        1 0.72744140E-01 0.16137599E+03</pdfrwt>
<totfact> 0.97588266E+01</totfact>
</mgrwt>
</event>
<event>
 5    1  0.8459321E-003  0.8053906E+02  0.7546771E-02  0.1346800E+00
         -1   -1    0    0    0  501 -0.00000000000E+00  0.00000000000E+00  0.58138618381E+02  0.58138618381E+02  0.00000000000E+00 0.  1.
          1   -1    0    0  502    0  0.00000000000E+00 -0.00000000000E+00 -0.62277097254E+03  0.62277097254E+03  0.00000000000E+00 0. -1.
         25    1    1    2    0    0 -0.31213937735E+02 -0.38071553652E+02 -0.44932145517E+03  0.46897603690E+03  0.12500000000E+03 0.  0.
          2    1    1    2  502    0 -0.54474040790E+02  0.40878570708E+02 -0.10559144310E+03  0.12565043382E+03  0.00000000000E+00 0. -1.
         -2    1    1    2    0  501  0.85687978525E+02 -0.28070170567E+01 -0.97194558797E+01  0.86283120198E+02  0.00000000000E+00 0.  1.
<mgrwt>
<rscale>  0 0.74062297E+02</rscale>
<asrwt>0</asrwt>
<pdfrwt beam="2">  1        1 0.95810914E-01 0.68106378E+02</pdfrwt>
<pdfrwt beam="1">  1       -1 0.89444033E-02 0.80539064E+02</pdfrwt>
<totfact> 0.23455510E+03</totfact>
</mgrwt>
</event>
<event>
 5    1  0.8459321E-003  0.3044577E+02  0.7546771E-02  0.1596957E+00
          1   -1    0    0  501    0 -0.00000000000E+00  0.00000000000E+00  0.54729114645E+03  0.54729114645E+03  0.00000000000E+00 0. -1.
          2   -1    0    0  502    0  0.00000000000E+00 -0.00000000000E+00 -0.94466165465E+02  0.94466165465E+02  0.00000000000E+00 0. -1.
         25    1    1    2    0    0  0.10229467761E+01 -0.10238891800E+01  0.11274356319E+03  0.16833955509E+03  0.12500000000E+03 0.  0.
          2    1    1    2  501    0  0.22773863289E+02 -0.19162799562E+02  0.40251815990E+03  0.40361705958E+03  0.00000000000E+00 0. -1.
          1    1    1    2  502    0 -0.23796810065E+02  0.20186688742E+02 -0.62436742099E+02  0.69800697242E+02  0.00000000000E+00 0. -1.
<mgrwt>
<rscale>  0 0.30102668E+02</rscale>
<asrwt>0</asrwt>
<pdfrwt beam="2">  1        2 0.14533257E-01 0.30445774E+02</pdfrwt>
<pdfrwt beam="1">  1        1 0.84198636E-01 0.29763430E+02</pdfrwt>
<totfact> 0.20816974E+03</totfact>
</mgrwt>
</event>
<event>
 5    1  0.8459321E-003  0.4810971E+02  0.7546771E-02  0.1490942E+00
          1   -1    0    0  502    0  0.00000000000E+00  0.00000000000E+00  0.14700363154E+04  0.14700363154E+04  0.00000000000E+00 0. -1.
         -1   -1    0    0    0  501 -0.00000000000E+00 -0.00000000000E+00 -0.37410854776E+03  0.37410854776E+03  0.00000000000E+00 0.  1.
         25    1    1    2    0    0 -0.13142679854E+02  0.74190511920E+01  0.85589376570E+02  0.15224425682E+03  0.12500000000E+03 0.  0.
          2    1    1    2  502    0 -0.72147285502E+01  0.36748551735E+02  0.13491231998E+04  0.13496428849E+04  0.00000000000E+00 0. -1.
         -2    1    1    2    0  501  0.20357408404E+02 -0.44167602927E+02 -0.33878480878E+03  0.34225772144E+03  0.00000000000E+00 0.  1.
<mgrwt>
<rscale>  0 0.42446584E+02</rscale>
<asrwt>0</asrwt>
<pdfrwt beam="1">  1        1 0.22615943E+00 0.37450078E+02</pdfrwt>
<pdfrwt beam="2">  1       -1 0.57555162E-01 0.48109713E+02</pdfrwt>
<totfact> 0.29576690E+01</totfact>
</mgrwt>
</event>
<event>
 5    1  0.8459321E-003  0.3743967E+02  0.7546771E-02  0.1540975E+00
          2   -1    0    0  502    0  0.00000000000E+00  0.00000000000E+00  0.18792351026E+04  0.18792351026E+04  0.00000000000E+00 0. -1.
         -2   -1    0    0    0  501 -0.00000000000E+00 -0.00000000000E+00 -0.11781437819E+03  0.11781437819E+03  0.00000000000E+00 0.  1.
         25    1    1    2    0    0  0.10798557769E+02 -0.10514855905E+02 -0.10255649987E+02  0.12632240261E+03  0.12500000000E+03 0.  0.
          1    1    1    2  502    0  0.13188629582E+02  0.35135051908E+02  0.18150199860E+04  0.18154079325E+04  0.00000000000E+00 0. -1.
         -1    1    1    2    0  501 -0.23987187351E+02 -0.24620196002E+02 -0.43343611617E+02  0.55319145657E+02  0.00000000000E+00 0.  1.
<mgrwt>
<rscale>  0 0.35873854E+02</rscale>
<asrwt>0</asrwt>
<pdfrwt beam="1">  1        2 0.28911307E+00 0.37439670E+02</pdfrwt>
<pdfrwt beam="2">  1       -2 0.18125290E-01 0.34373525E+02</pdfrwt>
<totfact> 0.24094092E+02</totfact>
</mgrwt>
</event>
<event>
 5    1  0.8459321E-003  0.5135450E+02  0.7546771E-02  0.1517707E+00
          2   -1    0    0  502    0  0.00000000000E+00  0.00000000000E+00  0.24968911741E+04  0.24968911741E+04  0.00000000000E+00 0. -1.
          1   -1    0    0  501    0 -0.00000000000E+00 -0.00000000000E+00 -0.22258776863E+02  0.22258776863E+02  0.00000000000E+00 0. -1.
         25    1    1    2    0    0 -0.40086181014E+02  0.67898808728E+02  0.70564994589E+03  0.72096046790E+03  0.12500000000E+03 0.  0.
          2    1    1    2  501    0  0.26781707682E+02 -0.41881859397E+02  0.28184802642E+02  0.57146593187E+02  0.00000000000E+00 0. -1.
          1    1    1    2  502    0  0.13304473332E+02 -0.26016949330E+02  0.17407976487E+04  0.17410428899E+04  0.00000000000E+00 0. -1.
<mgrwt>
<rscale>  0 0.38738233E+02</rscale>
<asrwt>0</asrwt>
<pdfrwt beam="1">  1        2 0.38413688E+00 0.29221408E+02</pdfrwt>
<pdfrwt beam="2">  1        1 0.34244292E-02 0.51354496E+02</pdfrwt>
<totfact> 0.17660701E+03</totfact>
</mgrwt>
</event>
<event>
 5    1  0.8459321E-003  0.1025090E+03  0.7546771E-02  0.1419825E+00
          2   -1    0    0  502    0  0.00000000000E+00  0.00000000000E+00  0.59235169043E+03  0.59235169043E+03  0.00000000000E+00 0. -1.
          1   -1    0    0  501    0 -0.00000000000E+00 -0.00000000000E+00 -0.79435930346E+02  0.79435930346E+02  0.00000000000E+00 0. -1.
         25    1    1    2    0    0  0.49765187860E+02 -0.11496784028E+03  0.35479607144E+03  0.39648383388E+03  0.12500000000E+03 0.  0.
          2    1    1    2  501    0 -0.51881927581E+02  0.85471776104E+02 -0.13733745375E+02  0.10092459899E+03  0.00000000000E+00 0. -1.
          1    1    1    2  502    0  0.21167397215E+01  0.29496064176E+02  0.17185343402E+03  0.17437918790E+03  0.00000000000E+00 0. -1.
<mgrwt>
<rscale>  0 0.55058046E+02</rscale>
<asrwt>0</asrwt>
<pdfrwt beam="1">  1        2 0.91131026E-01 0.29571919E+02</pdfrwt>
<pdfrwt beam="2">  1        1 0.12220913E-01 0.10250902E+03</pdfrwt>
<totfact> 0.33917243E+03</totfact>
</mgrwt>
</event>
<event>
 5    1  0.8459321E-003  0.1106257E+03  0.7546771E-02  0.1457733E+00
          2   -1    0    0  502    0  0.00000000000E+00  0.00000000000E+00  0.17020374083E+04  0.17020374083E+04  0.00000000000E+00 0. -1.
          1   -1    0    0  501    0 -0.00000000000E+00 -0.00000000000E+00 -0.21948799293E+03  0.21948799293E+03  0.00000000000E+00 0. -1.
         25    1    1    2    0    0  0.50057764388E+02 -0.11923680491E+03  0.34123177278E+02  0.18306443305E+03  0.12500000000E+03 0.  0.
          2    1    1    2  501    0 -0.14004747389E+02  0.15149679449E+02 -0.14236919597E+03  0.14385629530E+03  0.00000000000E+00 0. -1.
          1    1    1    2  502    0 -0.36053016999E+02  0.10408712546E+03  0.15907954341E+04  0.15946046729E+04  0.00000000000E+00 0. -1.
<mgrwt>
<rscale>  0 0.47773832E+02</rscale>
<asrwt>0</asrwt>
<pdfrwt beam="1">  1        2 0.26185190E+00 0.11062570E+03</pdfrwt>
<pdfrwt beam="2">  1        1 0.33767385E-01 0.20631184E+02</pdfrwt>
<totfact> 0.19649784E+02</totfact>
</mgrwt>
</event>
<event>
 5    1  0.8459321E-003  0.4643516E+02  0.7546771E-02  0.1477377E+00
          2   -1    0    0  502    0  0.00000000000E+00  0.00000000000E+00  0.19155788142E+03  0.19155788142E+03  0.00000000000E+00 0. -1.
         -2   -1    0    0    0  501 -0.00000000000E+00 -0.00000000000E+00 -0.49188745462E+03  0.49188745462E+03  0.00000000000E+00 0.  1.
         25    1    1    2    0    0  0.10298367386E+02 -0.11566284982E+02 -0.40179807808E+03  0.42107782044E+03  0.12500000000E+03 0.  0.
          1    1    1    2  502    0 -0.44675602932E+02 -0.13725691248E+02  0.17292851273E+03  0.17913284069E+03  0.00000000000E+00 0. -1.
         -1    1    1    2    0  501  0.34377235546E+02  0.25291976230E+02 -0.71460007852E+02  0.83234674912E+02  0.00000000000E+00 0.  1.
<mgrwt>
<rscale>  0 0.44517368E+02</rscale>
<asrwt>0</asrwt>
<pdfrwt beam="1">  1        2 0.29470444E-01 0.46435160E+02</pdfrwt>
<pdfrwt beam="2">  1       -2 0.75674992E-01 0.42678781E+02</pdfrwt>
<totfact> 0.28641655E+02</totfact>
</mgrwt>
</event>
<event>
 5    1  0.8459321E-003  0.7044850E+02  0.7546771E-02  0.1359071E+00
          2   -1    0    0  502    0  0.00000000000E+00  0.00000000000E+00  0.27270870535E+03  0.27270870535E+03  0.00000000000E+00 0. -1.
          1   -1    0    0  501    0 -0.00000000000E+00 -0.00000000000E+00 -0.81736854282E+03  0.81736854282E+03  0.00000000000E+00 0. -1.
         25    1    1    2    0    0  0.72898724359E+01 -0.73858961235E+01  0.16878270770E+02  0.12656053779E+03  0.12500000000E+03 0.  0.
          2    1    1    2  501    0 -0.62479672622E+02 -0.35924628506E+02 -0.75463591529E+03  0.75806968879E+03  0.00000000000E+00 0. -1.
          1    1    1    2  502    0  0.55189800186E+02  0.43310524629E+02  0.19309780705E+03  0.20544702158E+03  0.00000000000E+00 0. -1.
<mgrwt>
<rscale>  0 0.70301568E+02</rscale>
<asrwt>0</asrwt>
<pdfrwt beam="1">  1        2 0.41955186E-01 0.70154940E+02</pdfrwt>
<pdfrwt beam="2">  1        1 0.12574901E+00 0.70448503E+02</pdfrwt>
<totfact> 0.39001306E+02</totfact>
</mgrwt>
</event>
<event>
 5    1  0.8459321E-003  0.1223064E+03  0.7546771E-02  0.1277298E+00
          2   -1    0    0  502    0  0.00000000000E+00  0.00000000000E+00  0.43610120410E+03  0.43610120410E+03  0.00000000000E+00 0. -1.
          1   -1    0    0  501    0 -0.00000000000E+00 -0.00000000000E+00 -0.11339562152E+03  0.11339562152E+03  0.00000000000E+00 0. -1.
         25    1    1    2    0    0 -0.10035606521E+02  0.63982559771E+02  0.14805690727E+03  0.20430450103E+03  0.12500000000E+03 0.  0.
          2    1    1    2  501    0 -0.11625750689E+02 -0.14527852435E+03 -0.60493118709E+01  0.14586844035E+03  0.00000000000E+00 0. -1.
          1    1    1    2  502    0  0.21661357210E+02  0.81295964578E+02  0.18069798719E+03  0.19932388424E+03  0.00000000000E+00 0. -1.
<mgrwt>
<rscale>  0 0.10143924E+03</rscale>
<asrwt>0</asrwt>
<pdfrwt beam="1">  1        2 0.67092492E-01 0.84132326E+02</pdfrwt>
<pdfrwt beam="2">  1        1 0.17445480E-01 0.12230637E+03</pdfrwt>
<totfact> 0.29455418E+03</totfact>
</mgrwt>
</event>
<event>
 5    1  0.8459321E-003  0.5634048E+02  0.7546771E-02  0.1490729E+00
          2   -1    0    0  502    0  0.00000000000E+00  0.00000000000E+00  0.12894805835E+04  0.12894805835E+04  0.00000000000E+00 0. -1.
         -2   -1    0    0    0  501 -0.00000000000E+00 -0.00000000000E+00 -0.42089950744E+02  0.42089950744E+02  0.00000000000E+00 0.  1.
         25    1    1    2    0    0 -0.76014105194E+02  0.39855693581E+02  0.45823260510E+03  0.48266835496E+03  0.12500000000E+03 0.  0.
          1    1    1    2  502    0  0.46072657915E+02 -0.28489199729E+02  0.80927232374E+03  0.81108323758E+03  0.00000000000E+00 0. -1.
         -1    1    1    2    0  501  0.29941447279E+02 -0.11366493852E+02 -0.20114296062E+02  0.37818941731E+02  0.00000000000E+00 0.  1.
<mgrwt>
<rscale>  0 0.42477996E+02</rscale>
<asrwt>0</asrwt>
<pdfrwt beam="1">  1        2 0.19838160E+00 0.56340476E+02</pdfrwt>
<pdfrwt beam="2">  1       -2 0.64753780E-02 0.32026356E+02</pdfrwt>
<totfact> 0.21575474E+03</totfact>
</mgrwt>
</event>
<event>
 5    1  0.8459321E-003  0.5402822E+02  0.7546771E-02  0.1460820E+00
          2   -1    0    0  502    0  0.00000000000E+00  0.00000000000E+00  0.11666002574E+04  0.11666002574E+04  0.00000000000E+00 0. -1.
          1   -1    0    0  501    0 -0.00000000000E+00 -0.00000000000E+00 -0.39332635677E+03  0.39332635677E+03  0.00000000000E+00 0. -1.
         25    1    1    2    0    0 -0.69247211930E+02  0.60712413578E+02  0.19829512026E+03  0.25184743048E+03  0.12500000000E+03 0.  0.
          2    1    1    2  501    0  0.36773040014E+02 -0.18812566636E+02 -0.36463706137E+03  0.36696914810E+03  0.00000000000E+00 0. -1.
          3    1    1    2  502    0  0.32474171916E+02 -0.41899846942E+02  0.93961584170E+03  0.94111003554E+03  0.00000000000E+00 0. -1.
<mgrwt>
<rscale>  0 0.47240648E+02</rscale>
<asrwt>0</asrwt>
<pdfrwt beam="1">  1        2 0.17947696E+00 0.54028219E+02</pdfrwt>
<pdfrwt beam="2">  1        1 0.60511748E-01 0.41305800E+02</pdfrwt>
<totfact> 0.19971158E+02</totfact>
</mgrwt>
</event>
<event>
 5    1  0.8459321E-003  0.1220626E+03  0.7546771E-02  0.1307221E+00
          1   -1    0    0  501    0 -0.00000000000E+00  0.00000000000E+00  0.54089767394E+02  0.54089767394E+02  0.00000000000E+00 0. -1.
          2   -1    0    0  502    0  0.00000000000E+00 -0.00000000000E+00 -0.94182693629E+03  0.94182693629E+03  0.00000000000E+00 0. -1.
         25    1    1    2    0    0  0.12264512676E+03  0.11626604415E+03 -0.46131342258E+03  0.50694644095E+03  0.12500000000E+03 0.  0.
          2    1    1    2  501    0 -0.95385557716E+02 -0.58626769757E+02 -0.82214533048E+02  0.13890547936E+03  0.00000000000E+00 0. -1.
          1    1    1    2  502    0 -0.27259569045E+02 -0.57639274390E+02 -0.34420921327E+03  0.35006478337E+03  0.00000000000E+00 0. -1.
<mgrwt>
<rscale>  0 0.88219870E+02</rscale>
<asrwt>0</asrwt>
<pdfrwt beam="2">  1        2 0.14489644E+00 0.63760255E+02</pdfrwt>
<pdfrwt beam="1">  1        1 0.83215032E-02 0.12206265E+03</pdfrwt>
<totfact> 0.32415308E+03</totfact>
</mgrwt>
</event>
<event>
 5    1  0.8459321E-003  0.3688834E+02  0.7546771E-02  0.1565467E+00
          2   -1    0    0  502    0  0.00000000000E+00  0.00000000000E+00  0.22203232795E+04  0.22203232795E+04  0.00000000000E+00 0. -1.
          1   -1    0    0  501    0 -0.00000000000E+00 -0.00000000000E+00 -0.14288836842E+04  0.14288836842E+04  0.00000000000E+00 0. -1.
         25    1    1    2    0    0 -0.14541942113E+02 -0.44682775581E+02 -0.17853570065E+03  0.22295294328E+03  0.12500000000E+03 0.  0.
          2    1    1    2  501    0 -0.13442704494E+02  0.34357483181E+02 -0.12277610575E+04  0.12283152516E+04  0.00000000000E+00 0. -1.
          1    1    1    2  502    0  0.27984646607E+02  0.10325292400E+02  0.21977363534E+04  0.21979387688E+04  0.00000000000E+00 0. -1.
<mgrwt>
<rscale>  0 0.33171249E+02</rscale>
<asrwt>0</asrwt>
<pdfrwt beam="1">  1        2 0.34158820E+00 0.29828713E+02</pdfrwt>
<pdfrwt beam="2">  1        1 0.21982826E+00 0.36888341E+02</pdfrwt>
<totfact> 0.98658137E+00</totfact>
</mgrwt>
</event>
<event>
 5    1  0.8459321E-003  0.1151181E+03  0.7546771E-02  0.1348114E+00
          1   -1    0    0  501    0 -0.00000000000E+00  0.00000000000E+00  0.19074229850E+04  0.19074229850E+04  0.00000000000E+00 0. -1.
          2   -1    0    0  502    0  0.00000000000E+00 -0.00000000000E+00 -0.42770722620E+03  0.42770722620E+03  0.00000000000E+00 0. -1.
         25    1    1    2    0    0 -0.58350457220E+02 -0.51159423975E+02 -0.19096217649E+03  0.24106765724E+03  0.12500000000E+03 0.  0.
          2    1    1    2  501    0  0.60688545967E+02  0.98216533903E+02  0.18779537573E+04  0.18814993759E+04  0.00000000000E+00 0. -1.
          1    1    1    2  502    0 -0.23380887461E+01 -0.47057109928E+02 -0.20727582201E+03  0.21256317801E+03  0.00000000000E+00 0. -1.
<mgrwt>
<rscale>  0 0.73646510E+02</rscale>
<asrwt>0</asrwt>
<pdfrwt beam="2">  1        2 0.65801113E-01 0.47115159E+02</pdfrwt>
<pdfrwt beam="1">  1        1 0.29344969E+00 0.11511812E+03</pdfrwt>
<totfact> 0.43880808E+01</totfact>
</mgrwt>
</event>
<event>
 5    1  0.8459321E-003  0.5591091E+02  0.7546771E-02  0.1455341E+00
         -2   -1    0    0    0  501 -0.00000000000E+00  0.00000000000E+00  0.45336331718E+03  0.45336331718E+03  0.00000000000E+00 0.  1.
          2   -1    0    0  502    0  0.00000000000E+00 -0.00000000000E+00 -0.13326811898E+04  0.13326811898E+04  0.00000000000E+00 0. -1.
         25    1    1    2    0    0 -0.77276252691E+02  0.88863516343E+01 -0.43522283682E+02  0.15352451157E+03  0.12500000000E+03 0.  0.
          1    1    1    2  502    0  0.33127373198E+02  0.25062662505E+02 -0.12318594785E+04  0.12325596678E+04  0.00000000000E+00 0. -1.
         -1    1    1    2    0  501  0.44148879493E+02 -0.33949014140E+02  0.39606388952E+03  0.39996032766E+03  0.00000000000E+00 0.  1.
<mgrwt>
<rscale>  0 0.48192648E+02</rscale>
<asrwt>0</asrwt>
<pdfrwt beam="2">  1        2 0.20502787E+00 0.41539859E+02</pdfrwt>
<pdfrwt beam="1">  1       -2 0.69748204E-01 0.55910911E+02</pdfrwt>
<totfact> 0.38372561E+01</totfact>
</mgrwt>
</event>
<event>
 5    1  0.8459321E-003  0.7993128E+02  0.7546771E-02  0.1405754E+00
          2   -1    0    0  502    0  0.00000000000E+00  0.00000000000E+00  0.77744968426E+03  0.77744968426E+03  0.00000000000E+00 0. -1.
         -2   -1    0    0    0  501 -0.00000000000E+00 -0.00000000000E+00 -0.10571995007E+03  0.10571995007E+03  0.00000000000E+00 0.  1.
         25    1    1    2    0    0  0.52523741453E+02 -0.10474378583E+03  0.27572079656E+03  0.32461817840E+03  0.12500000000E+03 0.  0.
          1    1    1    2  502    0 -0.38372270068E+02  0.64873461074E+02  0.46855054041E+03  0.47457413117E+03  0.00000000000E+00 0. -1.
         -1    1    1    2    0  501 -0.14151471385E+02  0.39870324760E+02 -0.72541602789E+02  0.83977324761E+02  0.00000000000E+00 0.  1.
<mgrwt>
<rscale>  0 0.58152181E+02</rscale>
<asrwt>0</asrwt>
<pdfrwt beam="1">  1        2 0.11960764E+00 0.79931283E+02</pdfrwt>
<pdfrwt beam="2">  1       -2 0.16264608E-01 0.42307292E+02</pdfrwt>
<totfact> 0.10553543E+03</totfact>
</mgrwt>
</event>
<event>
 5    1  0.8459321E-003  0.9638161E+02  0.7546771E-02  0.1417219E+00
          2   -1    0    0  502    0  0.00000000000E+00  0.00000000000E+00  0.14944503660E+04  0.14944503660E+04  0.00000000000E+00 0. -1.
          1   -1    0    0  501    0 -0.00000000000E+00 -0.00000000000E+00 -0.94715894584E+02  0.94715894584E+02  0.00000000000E+00 0. -1.
         25    1    1    2    0    0 -0.18999353410E+02  0.11279843475E+03  0.29738052129E+03  0.34226398694E+03  0.12500000000E+03 0.  0.
          2    1    1    2  501    0 -0.74511402876E+01 -0.94628824554E+02 -0.40785090904E+02  0.10331291095E+03  0.00000000000E+00 0. -1.
          1    1    1    2  502    0  0.26450493697E+02 -0.18169610200E+02  0.11431390410E+04  0.11435893627E+04  0.00000000000E+00 0. -1.
<mgrwt>
<rscale>  0 0.55613657E+02</rscale>
<asrwt>0</asrwt>
<pdfrwt beam="1">  1        2 0.22991542E+00 0.32089926E+02</pdfrwt>
<pdfrwt beam="2">  1        1 0.14571677E-01 0.96381614E+02</pdfrwt>
<totfact> 0.82469415E+02</totfact>
</mgrwt>
</event>
<event>
 5    1  0.8459321E-003  0.8339641E+02  0.7546771E-02  0.1383914E+00
          2   -1    0    0  502    0  0.00000000000E+00  0.00000000000E+00  0.23454873244E+03  0.23454873244E+03  0.00000000000E+00 0. -1.
          1   -1    0    0  501    0 -0.00000000000E+00 -0.00000000000E+00 -0.65597561218E+03  0.65597561218E+03  0.00000000000E+00 0. -1.
         25    1    1    2    0    0  0.11412975938E+03  0.33576049473E+01  0.37631062439E+02  0.17343002147E+03  0.12500000000E+03 0.  0.
          2    1    1    2  501    0 -0.75944658329E+02 -0.32882800570E+02 -0.58052189012E+03  0.58639111061E+03  0.00000000000E+00 0. -1.
          1    1    1    2  502    0 -0.38185101049E+02  0.29525195623E+02  0.12146394794E+03  0.13070321254E+03  0.00000000000E+00 0. -1.
<mgrwt>
<rscale>  0 0.63446133E+02</rscale>
<asrwt>0</asrwt>
<pdfrwt beam="1">  1        2 0.36084421E-01 0.48268407E+02</pdfrwt>
<pdfrwt beam="2">  1        1 0.10091932E+00 0.83396408E+02</pdfrwt>
<totfact> 0.61438450E+02</totfact>
</mgrwt>
</event>
<event>
 5    1  0.9203968E-003  0.1062580E+03  0.7546771E-02  0.1440935E+00
         -2   -1    0    0    0  501 -0.00000000000E+00  0.00000000000E+00  0.73801041101E+03  0.73801041101E+03  0.00000000000E+00 0.  1.
          2   -1    0    0  502    0  0.00000000000E+00 -0.00000000000E+00 -0.20720245005E+04  0.20720245005E+04  0.00000000000E+00 0. -1.
         25    1    1    2    0    0 -0.52331736759E+02  0.85896069948E+02  0.32676656175E+03  0.36403039898E+03  0.12500000000E+03 0.  0.
          1    1    1    2  502    0  0.33247331518E+02 -0.10095736468E+03 -0.20516391421E+04  0.20543906503E+04  0.00000000000E+00 0. -1.
         -1    1    1    2    0  501  0.19084405241E+02  0.15061294730E+02  0.39085849093E+03  0.39161386218E+03  0.00000000000E+00 0.  1.
<mgrwt>
<rscale>  0 0.50826253E+02</rscale>
<asrwt>0</asrwt>
<pdfrwt beam="2">  1        2 0.31877300E+00 0.10625796E+03</pdfrwt>
<pdfrwt beam="1">  1       -2 0.11354006E+00 0.24311666E+02</pdfrwt>
<totfact> 0.52412951E+00</totfact>
</mgrwt>
</event>
<event>
 5    1  0.8459321E-003  0.8862782E+02  0.7546771E-02  0.1408772E+00
          1   -1    0    0  501    0 -0.00000000000E+00  0.00000000000E+00  0.38053980983E+03  0.38053980983E+03  0.00000000000E+00 0. -1.
          2   -1    0    0  502    0  0.00000000000E+00 -0.00000000000E+00 -0.14340315144E+04  0.14340315144E+04  0.00000000000E+00 0. -1.
         25    1    1    2    0    0  0.69158369156E+02 -0.10465332936E+03  0.53592952895E+02  0.18502000965E+03  0.12500000000E+03 0.  0.
          2    1    1    2  501    0 -0.19841063730E+02  0.31543091121E+02  0.25847478223E+03  0.26114717585E+03  0.00000000000E+00 0. -1.
          1    1    1    2  502    0 -0.49317305426E+02  0.73110238243E+02 -0.13655594397E+04  0.13684041387E+04  0.00000000000E+00 0. -1.
<mgrwt>
<rscale>  0 0.57468786E+02</rscale>
<asrwt>0</asrwt>
<pdfrwt beam="2">  1        2 0.22062023E+00 0.88627824E+02</pdfrwt>
<pdfrwt beam="1">  1        1 0.58544586E-01 0.37264385E+02</pdfrwt>
<totfact> 0.14546000E+02</totfact>
</mgrwt>
</event>
<event>
 5    1  0.8459321E-003  0.8552211E+02  0.7546771E-02  0.1337031E+00
          2   -1    0    0  502    0  0.00000000000E+00  0.00000000000E+00  0.28433197010E+04  0.28433197010E+04  0.00000000000E+00 0. -1.
          1   -1    0    0  501    0 -0.00000000000E+00 -0.00000000000E+00 -0.65571441204E+02  0.65571441204E+02  0.00000000000E+00 0. -1.
         25    1    1    2    0    0 -0.18163206511E+02  0.30740748560E+02  0.17673621981E+04  0.17721368556E+04  0.12500000000E+03 0.  0.
          2    1    1    2  501    0 -0.64548058212E+02  0.56103296474E+02 -0.29126888144E+02  0.90346042012E+02  0.00000000000E+00 0. -1.
          1    1    1    2  502    0  0.82711264724E+02 -0.86844045034E+02  0.10395129498E+04  0.10464082446E+04  0.00000000000E+00 0. -1.
<mgrwt>
<rscale>  0 0.77253486E+02</rscale>
<asrwt>0</asrwt>
<pdfrwt beam="1">  1        2 0.43743370E+00 0.69784305E+02</pdfrwt>
<pdfrwt beam="2">  1        1 0.10087916E-01 0.85522112E+02</pdfrwt>
<totfact> 0.25362999E+02</totfact>
</mgrwt>
</event>
<event>
 5    1  0.8459321E-003  0.5059730E+02  0.7546771E-02  0.1529353E+00
          2   -1    0    0  502    0  0.00000000000E+00  0.00000000000E+00  0.93272022913E+03  0.93272022913E+03  0.00000000000E+00 0. -1.
         -2   -1    0    0    0  501 -0.00000000000E+00 -0.00000000000E+00 -0.11389961335E+03  0.11389961335E+03  0.00000000000E+00 0.  1.
         25    1    1    2    0    0 -0.40950522243E+02 -0.64231204437E+02  0.28997108266E+03  0.32482429354E+03  0.12500000000E+03 0.  0.
          1    1    1    2  502    0  0.85054372857E+01  0.26095936578E+02  0.61850103836E+03  0.61910974376E+03  0.00000000000E+00 0. -1.
         -1    1    1    2    0  501  0.32445084957E+02  0.38135267859E+02 -0.89651505237E+02  0.10268580517E+03  0.00000000000E+00 0.  1.
<mgrwt>
<rscale>  0 0.37265888E+02</rscale>
<asrwt>0</asrwt>
<pdfrwt beam="1">  1        2 0.14349541E+00 0.27447047E+02</pdfrwt>
<pdfrwt beam="2">  1       -2 0.17523018E-01 0.50597299E+02</pdfrwt>
<totfact> 0.79391432E+02</totfact>
</mgrwt>
</event>
<event>
 5    1  0.8459321E-003  0.1433329E+03  0.7546771E-02  0.1291022E+00
          1   -1    0    0  501    0 -0.00000000000E+00  0.00000000000E+00  0.91432583076E+02  0.91432583076E+02  0.00000000000E+00 0. -1.
          2   -1    0    0  502    0  0.00000000000E+00 -0.00000000000E+00 -0.29902658243E+04  0.29902658243E+04  0.00000000000E+00 0. -1.
         25    1    1    2    0    0 -0.26046976172E+02  0.89856734985E+02 -0.19344403565E+02  0.15732731403E+03  0.12500000000E+03 0.  0.
          2    1    1    2  501    0  0.31134159098E+02  0.54833956993E+02 -0.27637599303E+02  0.68847190193E+02  0.00000000000E+00 0. -1.
          1    1    1    2  502    0 -0.50871829261E+01 -0.14469069198E+03 -0.28518512384E+04  0.28555239032E+04  0.00000000000E+00 0. -1.
<mgrwt>
<rscale>  0 0.95068644E+02</rscale>
<asrwt>0</asrwt>
<pdfrwt beam="2">  1        2 0.46004078E+00 0.14333294E+03</pdfrwt>
<pdfrwt beam="1">  1        1 0.14066555E-01 0.63056314E+02</pdfrwt>
<totfact> 0.11985708E+02</totfact>
</mgrwt>
</event>
<event>
 5    1  0.8459321E-003  0.9283182E+02  0.7546771E-02  0.1399995E+00
          2   -1    0    0  502    0  0.00000000000E+00  0.00000000000E+00  0.12803923060E+04  0.12803923060E+04  0.00000000000E+00 0. -1.
         -2   -1    0    0    0  501 -0.00000000000E+00 -0.00000000000E+00 -0.82992943661E+02  0.82992943661E+02  0.00000000000E+00 0.  1.
         25    1    1    2    0    0 -0.80563816358E+02  0.41035696259E+02  0.10096770259E+03  0.18437443923E+03  0.12500000000E+03 0.  0.
          1    1    1    2  502    0  0.58859849205E+02 -0.72373788500E+02  0.11265639458E+04  0.11304197323E+04  0.00000000000E+00 0. -1.
         -1    1    1    2    0  501  0.21703967153E+02  0.31338092240E+02 -0.30132286050E+02  0.48591078174E+02  0.00000000000E+00 0.  1.
<mgrwt>
<rscale>  0 0.59487423E+02</rscale>
<asrwt>0</asrwt>
<pdfrwt beam="1">  1        2 0.19698342E+00 0.92831816E+02</pdfrwt>
<pdfrwt beam="2">  1       -2 0.12768146E-01 0.38120050E+02</pdfrwt>
<totfact> 0.77280981E+02</totfact>
</mgrwt>
</event>
<event>
 5    1  0.8459321E-003  0.1427228E+03  0.7546771E-02  0.1302007E+00
          2   -1    0    0  502    0  0.00000000000E+00  0.00000000000E+00  0.52357869392E+03  0.52357869392E+03  0.00000000000E+00 0. -1.
          1   -1    0    0  501    0 -0.00000000000E+00 -0.00000000000E+00 -0.38000329434E+04  0.38000329434E+04  0.00000000000E+00 0. -1.
         25    1    1    2    0    0 -0.12912387220E+03 -0.26503079885E+02 -0.12142458923E+03  0.21850473332E+03  0.12500000000E+03 0.  0.
          2    1    1    2  501    0  0.14026366939E+03 -0.29596821302E+02 -0.36269256145E+04  0.36297574687E+04  0.00000000000E+00 0. -1.
          1    1    1    2  502    0 -0.11139797185E+02  0.56099901187E+02  0.47189595423E+03  0.47534943527E+03  0.00000000000E+00 0. -1.
<mgrwt>
<rscale>  0 0.90349674E+02</rscale>
<asrwt>0</asrwt>
<pdfrwt beam="1">  1        2 0.80550568E-01 0.57195227E+02</pdfrwt>
<pdfrwt beam="2">  1        1 0.58462045E+00 0.14272281E+03</pdfrwt>
<totfact> 0.17250110E+00</totfact>
</mgrwt>
</event>
<event>
 5    1  0.8459321E-003  0.5506758E+02  0.7546771E-02  0.1525779E+00
          1   -1    0    0  501    0 -0.00000000000E+00  0.00000000000E+00  0.55405885777E+03  0.55405885777E+03  0.00000000000E+00 0. -1.
          2   -1    0    0  502    0  0.00000000000E+00 -0.00000000000E+00 -0.36953293905E+03  0.36953293905E+03  0.00000000000E+00 0. -1.
         25    1    1    2    0    0  0.29471808141E+02  0.28698541252E+01 -0.65885477138E+02  0.14437007874E+03  0.12500000000E+03 0.  0.
          2    1    1    2  501    0 -0.55227906237E+02 -0.47212282278E+01  0.51268866568E+03  0.51567633215E+03  0.00000000000E+00 0. -1.
          1    1    1    2  502    0  0.25756098096E+02  0.18513741026E+01 -0.26227726983E+03  0.26354538593E+03  0.00000000000E+00 0. -1.
<mgrwt>
<rscale>  0 0.37709223E+02</rscale>
<asrwt>0</asrwt>
<pdfrwt beam="2">  1        2 0.56851222E-01 0.25822552E+02</pdfrwt>
<pdfrwt beam="1">  1        1 0.85239824E-01 0.55067583E+02</pdfrwt>
<totfact> 0.48803642E+02</totfact>
</mgrwt>
</event>
<event>
 5    1  0.8459321E-003  0.6702694E+02  0.7546771E-02  0.1398969E+00
          1   -1    0    0  501    0 -0.00000000000E+00  0.00000000000E+00  0.10301073633E+04  0.10301073633E+04  0.00000000000E+00 0. -1.
          2   -1    0    0  502    0  0.00000000000E+00 -0.00000000000E+00 -0.16731350554E+03  0.16731350554E+03  0.00000000000E+00 0. -1.
         25    1    1    2    0    0  0.24145344600E+02 -0.49099586679E+02  0.17030811890E+02  0.13750932925E+03  0.12500000000E+03 0.  0.
          2    1    1    2  501    0  0.27543315314E+02  0.61804976734E+02  0.94493702156E+03  0.94735656649E+03  0.00000000000E+00 0. -1.
          1    1    1    2  502    0 -0.51688659914E+02 -0.12705390055E+02 -0.99173975725E+02  0.11255497306E+03  0.00000000000E+00 0. -1.
<mgrwt>
<rscale>  0 0.59729914E+02</rscale>
<asrwt>0</asrwt>
<pdfrwt beam="2">  1        2 0.25740540E-01 0.53227291E+02</pdfrwt>
<pdfrwt beam="1">  1        1 0.15847805E+00 0.67026943E+02</pdfrwt>
<totfact> 0.45147813E+02</totfact>
</mgrwt>
</event>
<event>
 5    1  0.8459321E-003  0.1322498E+03  0.7546771E-02  0.1248614E+00
          1   -1    0    0  502    0  0.00000000000E+00  0.00000000000E+00  0.64441109831E+03  0.64441109831E+03  0.00000000000E+00 0. -1.
         -1   -1    0    0    0  501 -0.00000000000E+00 -0.00000000000E+00 -0.76405394883E+03  0.76405394883E+03  0.00000000000E+00 0.  1.
         25    1    1    2    0    0 -0.97491616867E+02  0.75819281884E+02  0.25464947362E+03  0.30939381584E+03  0.12500000000E+03 0.  0.
          2    1    1    2  502    0  0.14999781589E+03  0.12802298914E+02  0.34291474541E+03  0.37450469456E+03  0.00000000000E+00 0. -1.
         -2    1    1    2    0  501 -0.52506199022E+02 -0.88621580797E+02 -0.71720706956E+03  0.72456653673E+03  0.00000000000E+00 0.  1.
<mgrwt>
<rscale>  0 0.11671680E+03</rscale>
<asrwt>0</asrwt>
<pdfrwt beam="1">  1        1 0.99140169E-01 0.13224981E+03</pdfrwt>
<pdfrwt beam="2">  1       -1 0.11754676E+00 0.10300818E+03</pdfrwt>
<totfact> 0.24187727E+01</totfact>
</mgrwt>
</event>
<event>
 5    1  0.8459321E-003  0.9363480E+02  0.7546771E-02  0.1323957E+00
          2   -1    0    0  502    0  0.00000000000E+00  0.00000000000E+00  0.11378996254E+04  0.11378996254E+04  0.00000000000E+00 0. -1.
          1   -1    0    0  501    0 -0.00000000000E+00 -0.00000000000E+00 -0.65572265467E+02  0.65572265467E+02  0.00000000000E+00 0. -1.
         25    1    1    2    0    0  0.76956939973E+02 -0.12057450786E+03  0.18234981518E+03  0.26331926943E+03  0.12500000000E+03 0.  0.
          2    1    1    2  501    0 -0.61902641465E+02  0.50676766659E+02  0.44278920847E+02  0.91436833556E+02  0.00000000000E+00 0. -1.
          1    1    1    2  502    0 -0.15054298509E+02  0.69897741198E+02  0.84569862390E+03  0.84871578788E+03  0.00000000000E+00 0. -1.
<mgrwt>
<rscale>  0 0.81822600E+02</rscale>
<asrwt>0</asrwt>
<pdfrwt beam="1">  1        2 0.17506147E+00 0.71500532E+02</pdfrwt>
<pdfrwt beam="2">  1        1 0.10088042E-01 0.93634797E+02</pdfrwt>
<totfact> 0.18998407E+03</totfact>
</mgrwt>
</event>
<event>
 5    1  0.8459321E-003  0.6016227E+02  0.7546771E-02  0.1414837E+00
          1   -1    0    0  501    0 -0.00000000000E+00  0.00000000000E+00  0.76467149528E+02  0.76467149528E+02  0.00000000000E+00 0. -1.
          2   -1    0    0  502    0  0.00000000000E+00 -0.00000000000E+00 -0.95603459830E+03  0.95603459830E+03  0.00000000000E+00 0. -1.
         25    1    1    2    0    0  0.22309807395E+02  0.93893924194E+01 -0.13952293243E+03  0.18888498318E+03  0.12500000000E+03 0.  0.
          2    1    1    2  501    0  0.30789694013E+02 -0.42356781276E+02  0.36964918098E+02  0.64097639172E+02  0.00000000000E+00 0. -1.
          1    1    1    2  502    0 -0.53099501408E+02  0.32967388856E+02 -0.77700943444E+03  0.77951912548E+03  0.00000000000E+00 0. -1.
<mgrwt>
<rscale>  0 0.56128448E+02</rscale>
<asrwt>0</asrwt>
<pdfrwt beam="2">  1        2 0.14708224E+00 0.60162274E+02</pdfrwt>
<pdfrwt beam="1">  1        1 0.11764177E-01 0.52365085E+02</pdfrwt>
<totfact> 0.19192199E+03</totfact>
</mgrwt>
</event>
<event>
 5    1  0.8459321E-003  0.5289506E+02  0.7546771E-02  0.1516336E+00
         -1   -1    0    0    0  501 -0.00000000000E+00  0.00000000000E+00  0.14550316331E+03  0.14550316331E+03  0.00000000000E+00 0.  1.
          1   -1    0    0  502    0  0.00000000000E+00 -0.00000000000E+00 -0.34631523924E+03  0.34631523924E+03  0.00000000000E+00 0. -1.
         25    1    1    2    0    0  0.55226455234E+01 -0.75381573075E+02 -0.24624407233E+02  0.14813589236E+03  0.12500000000E+03 0.  0.
          2    1    1    2  502    0 -0.13848696757E+02  0.25060981489E+02 -0.25128005977E+03  0.25290612415E+03  0.00000000000E+00 0. -1.
         -2    1    1    2    0  501  0.83260512336E+01  0.50320591586E+02  0.75092391066E+02  0.90776386041E+02  0.00000000000E+00 0.  1.
<mgrwt>
<rscale>  0 0.38917034E+02</rscale>
<asrwt>0</asrwt>
<pdfrwt beam="2">  1        1 0.53279267E-01 0.28632834E+02</pdfrwt>
<pdfrwt beam="1">  1       -1 0.22385102E-01 0.52895063E+02</pdfrwt>
<totfact> 0.11785007E+03</totfact>
</mgrwt>
</event>
<event>
 5    1  0.8459321E-003  0.8551558E+02  0.7546771E-02  0.1376922E+00
          1   -1    0    0  501    0 -0.00000000000E+00  0.00000000000E+00  0.93735284502E+03  0.93735284502E+03  0.00000000000E+00 0. -1.
          2   -1    0    0  502    0  0.00000000000E+00 -0.00000000000E+00 -0.48478480143E+03  0.48478480143E+03  0.00000000000E+00 0. -1.
         25    1    1    2    0    0  0.12630748057E+03 -0.43553287253E+02  0.59760605996E+03  0.62498677697E+03  0.12500000000E+03 0.  0.
          2    1    1    2  501    0 -0.43152738791E+02  0.24922128952E+02  0.32026000955E+03  0.32411378418E+03  0.00000000000E+00 0. -1.
          1    1    1    2  502    0 -0.83154741783E+02  0.18631158301E+02 -0.46529802593E+03  0.47303708531E+03  0.00000000000E+00 0. -1.
<mgrwt>
<rscale>  0 0.65279777E+02</rscale>
<asrwt>0</asrwt>
<pdfrwt beam="2">  1        2 0.74582277E-01 0.85515577E+02</pdfrwt>
<pdfrwt beam="1">  1        1 0.14420813E+00 0.49832433E+02</pdfrwt>
<totfact> 0.17709329E+02</totfact>
</mgrwt>
</event>
<event>
 5    1  0.8459321E-003  0.5821657E+02  0.7546771E-02  0.1407164E+00
         -1   -1    0    0    0  501 -0.00000000000E+00  0.00000000000E+00  0.37145574881E+02  0.37145574881E+02  0.00000000000E+00 0.  1.
          1   -1    0    0  502    0  0.00000000000E+00 -0.00000000000E+00 -0.19271775895E+04  0.19271775895E+04  0.00000000000E+00 0. -1.
         25    1    1    2    0    0 -0.59126250263E+02 -0.35988983869E+02 -0.16722390467E+03  0.21995443784E+03  0.12500000000E+03 0.  0.
          2    1    1    2  502    0  0.26339862996E+01  0.58156956492E+02 -0.16433790364E+04  0.16444098719E+04  0.00000000000E+00 0. -1.
         -2    1    1    2    0  501  0.56492263963E+02 -0.22167972623E+02 -0.79429073478E+02  0.99958854593E+02  0.00000000000E+00 0.  1.
<mgrwt>
<rscale>  0 0.57831532E+02</rscale>
<asrwt>0</asrwt>
<pdfrwt beam="2">  1        1 0.29648886E+00 0.58216574E+02</pdfrwt>
<pdfrwt beam="1">  1       -1 0.57147038E-02 0.57449037E+02</pdfrwt>
<totfact> 0.56806477E+02</totfact>
</mgrwt>
</event>
<event>
 5    1  0.8459321E-003  0.1128848E+03  0.7546771E-02  0.1316690E+00
          2   -1    0    0  502    0  0.00000000000E+00  0.00000000000E+00  0.25567834366E+03  0.25567834366E+03  0.00000000000E+00 0. -1.
          1   -1    0    0  501    0 -0.00000000000E+00 -0.00000000000E+00 -0.76850227348E+03  0.76850227348E+03  0.00000000000E+00 0. -1.
         25    1    1    2    0    0 -0.10159137673E+03  0.71494099653E+02 -0.38240820552E+03  0.42106204977E+03  0.12500000000E+03 0.  0.
          2    1    1    2  501    0  0.46664596182E+02 -0.10292454669E+03 -0.35355617420E+03  0.37117787537E+03  0.00000000000E+00 0. -1.
          1    1    1    2  502    0  0.54926780548E+02  0.31430447040E+02  0.22314044990E+03  0.23194069200E+03  0.00000000000E+00 0. -1.
<mgrwt>
<rscale>  0 0.84520811E+02</rscale>
<asrwt>0</asrwt>
<pdfrwt beam="1">  1        2 0.39335131E-01 0.63283681E+02</pdfrwt>
<pdfrwt beam="2">  1        1 0.11823112E+00 0.11288483E+03</pdfrwt>
<totfact> 0.44555311E+02</totfact>
</mgrwt>
</event>
<event>
 5    1  0.8459321E-003  0.3873944E+02  0.7546771E-02  0.1601737E+00
          2   -1    0    0  502    0  0.00000000000E+00  0.00000000000E+00  0.12978281212E+04  0.12978281212E+04  0.00000000000E+00 0. -1.
          1   -1    0    0  501    0 -0.00000000000E+00 -0.00000000000E+00 -0.15979504131E+04  0.15979504131E+04  0.00000000000E+00 0. -1.
         25    1    1    2    0    0 -0.13184153214E+02  0.11629969879E+02 -0.49073221084E+03  0.50670719439E+03  0.12500000000E+03 0.  0.
          2    1    1    2  501    0  0.34346499943E+02 -0.19918556704E+02 -0.10987720014E+04  0.10994891278E+04  0.00000000000E+00 0. -1.
          1    1    1    2  502    0 -0.21162346729E+02  0.82885868245E+01  0.12893819203E+04  0.12895822122E+04  0.00000000000E+00 0. -1.
<mgrwt>
<rscale>  0 0.29672481E+02</rscale>
<asrwt>0</asrwt>
<pdfrwt beam="1">  1        2 0.19966586E+00 0.22727639E+02</pdfrwt>
<pdfrwt beam="2">  1        1 0.24583853E+00 0.38739444E+02</pdfrwt>
<totfact> 0.21768544E+01</totfact>
</mgrwt>
</event>
<event>
 5    1  0.8459321E-003  0.1138110E+03  0.7546771E-02  0.1314343E+00
          2   -1    0    0  502    0  0.00000000000E+00  0.00000000000E+00  0.23561381607E+03  0.23561381607E+03  0.00000000000E+00 0. -1.
          1   -1    0    0  501    0 -0.00000000000E+00 -0.00000000000E+00 -0.22577103654E+03  0.22577103654E+03  0.00000000000E+00 0. -1.
         25    1    1    2    0    0  0.12275214162E+03 -0.50794220659E+02 -0.11368664106E+03  0.21493671971E+03  0.12500000000E+03 0.  0.
          2    1    1    2  501    0 -0.10182755785E+03 -0.98030146959E+01 -0.54200042991E+01  0.10244182291E+03  0.00000000000E+00 0. -1.
          1    1    1    2  502    0 -0.20924583768E+02  0.60597235355E+02  0.12894942488E+03  0.14400630999E+03  0.00000000000E+00 0. -1.
<mgrwt>
<rscale>  0 0.85417932E+02</rscale>
<asrwt>0</asrwt>
<pdfrwt beam="1">  1        2 0.36248280E-01 0.64108214E+02</pdfrwt>
<pdfrwt beam="2">  1        1 0.34734005E-01 0.11381105E+03</pdfrwt>
<totfact> 0.23528933E+03</totfact>
</mgrwt>
</event>
<event>
 5    1  0.8459321E-003  0.6929034E+02  0.7546771E-02  0.1466052E+00
          2   -1    0    0  502    0  0.00000000000E+00  0.00000000000E+00  0.95286306087E+03  0.95286306087E+03  0.00000000000E+00 0. -1.
          1   -1    0    0  501    0 -0.00000000000E+00 -0.00000000000E+00 -0.91708919411E+03  0.91708919411E+03  0.00000000000E+00 0. -1.
         25    1    1    2    0    0 -0.25189660201E+00 -0.64326535383E+02  0.30775361225E+02  0.14391000474E+03  0.12500000000E+03 0.  0.
          2    1    1    2  501    0  0.31182948203E+02  0.62085656283E+02 -0.85884082392E+03  0.86164642737E+03  0.00000000000E+00 0. -1.
          1    1    1    2  502    0 -0.30931051601E+02  0.22408791007E+01  0.86383932945E+03  0.86439582287E+03  0.00000000000E+00 0. -1.
<mgrwt>
<rscale>  0 0.46355585E+02</rscale>
<asrwt>0</asrwt>
<pdfrwt beam="1">  1        2 0.14659432E+00 0.31012118E+02</pdfrwt>
<pdfrwt beam="2">  1        1 0.14109064E+00 0.69290340E+02</pdfrwt>
<totfact> 0.85851114E+01</totfact>
</mgrwt>
</event>
<event>
 5    1  0.8459321E-003  0.8492199E+02  0.7546771E-02  0.1351140E+00
         -2   -1    0    0    0  501 -0.00000000000E+00  0.00000000000E+00  0.98899025452E+02  0.98899025452E+02  0.00000000000E+00 0.  1.
          2   -1    0    0  502    0  0.00000000000E+00 -0.00000000000E+00 -0.53277028399E+03  0.53277028399E+03  0.00000000000E+00 0. -1.
         25    1    1    2    0    0 -0.30402361520E+02 -0.31166353976E+02 -0.68061599273E+02  0.14883892805E+03  0.12500000000E+03 0.  0.
          1    1    1    2  502    0 -0.57408850433E+02 -0.24041991510E+02 -0.37366105652E+03  0.37880915858E+03  0.00000000000E+00 0. -1.
         -1    1    1    2    0  501  0.87811211953E+02  0.55208345486E+02  0.78513972633E+01  0.10402122281E+03  0.00000000000E+00 0.  1.
<mgrwt>
<rscale>  0 0.72701638E+02</rscale>
<asrwt>0</asrwt>
<pdfrwt beam="2">  1        2 0.81964659E-01 0.62239806E+02</pdfrwt>
<pdfrwt beam="1">  1       -2 0.15215235E-01 0.84921989E+02</pdfrwt>
<totfact> 0.18856785E+03</totfact>
</mgrwt>
</event>
<event>
 5    1  0.8459321E-003  0.4300031E+02  0.7546771E-02  0.1533629E+00
          2   -1    0    0  502    0  0.00000000000E+00  0.00000000000E+00  0.64975124493E+02  0.64975124493E+02  0.00000000000E+00 0. -1.
          1   -1    0    0  501    0 -0.00000000000E+00 -0.00000000000E+00 -0.21211606650E+04  0.21211606650E+04  0.00000000000E+00 0. -1.
         25    1    1    2    0    0 -0.37302868530E+02 -0.44231387316E+02 -0.31617097284E+03  0.34487244554E+03  0.12500000000E+03 0.  0.
          2    1    1    2  501    0  0.59524029971E+01  0.42474441517E+02 -0.17854876430E+04  0.17860026967E+04  0.00000000000E+00 0. -1.
          1    1    1    2  502    0  0.31350465533E+02  0.17569457983E+01  0.45473075373E+02  0.55260647223E+02  0.00000000000E+00 0. -1.
<mgrwt>
<rscale>  0 0.36744998E+02</rscale>
<asrwt>0</asrwt>
<pdfrwt beam="1">  1        2 0.99961735E-02 0.31399658E+02</pdfrwt>
<pdfrwt beam="2">  1        1 0.32633239E+00 0.43000305E+02</pdfrwt>
<totfact> 0.26980313E+02</totfact>
</mgrwt>
</event>
<event>
 5    1  0.8459321E-003  0.7749817E+02  0.7546771E-02  0.1484495E+00
          2   -1    0    0  502    0  0.00000000000E+00  0.00000000000E+00  0.21804796570E+03  0.21804796570E+03  0.00000000000E+00 0. -1.
          1   -1    0    0  501    0 -0.00000000000E+00 -0.00000000000E+00 -0.15563220209E+04  0.15563220209E+04  0.00000000000E+00 0. -1.
         25    1    1    2    0    0  0.47770730180E+02 -0.60420702174E+02 -0.55098135181E+03  0.57020886871E+03  0.12500000000E+03 0.  0.
          2    1    1    2  501    0 -0.20952241261E+02 -0.12347407488E+02 -0.98835832513E+03  0.98865749061E+03  0.00000000000E+00 0. -1.
          1    1    1    2  502    0 -0.26818488920E+02  0.72768109663E+02  0.20106562173E+03  0.21550362729E+03  0.00000000000E+00 0. -1.
<mgrwt>
<rscale>  0 0.43413633E+02</rscale>
<asrwt>0</asrwt>
<pdfrwt beam="1">  1        2 0.33545840E-01 0.77498169E+02</pdfrwt>
<pdfrwt beam="2">  1        1 0.23943416E+00 0.24319846E+02</pdfrwt>
<totfact> 0.17436268E+02</totfact>
</mgrwt>
</event>
<event>
 5    1  0.8459321E-003  0.1121881E+03  0.7546771E-02  0.1346554E+00
          1   -1    0    0  501    0 -0.00000000000E+00  0.00000000000E+00  0.23709120976E+04  0.23709120976E+04  0.00000000000E+00 0. -1.
          2   -1    0    0  502    0  0.00000000000E+00 -0.00000000000E+00 -0.18502705589E+03  0.18502705589E+03  0.00000000000E+00 0. -1.
         25    1    1    2    0    0 -0.64536000841E+02  0.49873307606E+01  0.60686543479E+03  0.62297706605E+03  0.12500000000E+03 0.  0.
          2    1    1    2  501    0 -0.48988489597E+02 -0.86051577295E+00  0.17373796955E+04  0.17380704298E+04  0.00000000000E+00 0. -1.
          3    1    1    2  502    0  0.11352449044E+03 -0.41268149876E+01 -0.15836008863E+03  0.19489165760E+03  0.00000000000E+00 0. -1.
<mgrwt>
<rscale>  0 0.74140243E+02</rscale>
<asrwt>0</asrwt>
<pdfrwt beam="2">  1        2 0.28465703E-01 0.11218815E+03</pdfrwt>
<pdfrwt beam="1">  1        1 0.36475569E+00 0.48996047E+02</pdfrwt>
<totfact> 0.61141692E+01</totfact>
</mgrwt>
</event>
<event>
 5    1  0.8459321E-003  0.4293540E+02  0.7546771E-02  0.1556832E+00
         -2   -1    0    0    0  501 -0.00000000000E+00  0.00000000000E+00  0.16289527522E+03  0.16289527522E+03  0.00000000000E+00 0.  1.
          2   -1    0    0  502    0  0.00000000000E+00 -0.00000000000E+00 -0.14309675439E+03  0.14309675439E+03  0.00000000000E+00 0. -1.
         25    1    1    2    0    0 -0.21098497756E+02 -0.35486032919E+01  0.23692863546E+02  0.12901197997E+03  0.12500000000E+03 0.  0.
          1    1    1    2  502    0 -0.17703060730E+02 -0.20475072171E+02 -0.82092263068E+02  0.86439381044E+02  0.00000000000E+00 0. -1.
         -1    1    1    2    0  501  0.38801558487E+02  0.24023675463E+02  0.78197920347E+02  0.90540668599E+02  0.00000000000E+00 0.  1.
<mgrwt>
<rscale>  0 0.34090116E+02</rscale>
<asrwt>0</asrwt>
<pdfrwt beam="2">  1        2 0.22014885E-01 0.27067082E+02</pdfrwt>
<pdfrwt beam="1">  1       -2 0.25060812E-01 0.42935401E+02</pdfrwt>
<totfact> 0.30562627E+03</totfact>
</mgrwt>
</event>
<event>
 5    1  0.8459321E-003  0.1746239E+03  0.7546771E-02  0.1298739E+00
          1   -1    0    0  501    0 -0.00000000000E+00  0.00000000000E+00  0.29039846385E+03  0.29039846385E+03  0.00000000000E+00 0. -1.
          2   -1    0    0  502    0  0.00000000000E+00 -0.00000000000E+00 -0.69547952973E+03  0.69547952973E+03  0.00000000000E+00 0. -1.
         25    1    1    2    0    0  0.17881427693E+03 -0.24914807835E+02 -0.24359794911E+03  0.32796379997E+03  0.12500000000E+03 0.  0.
          2    1    1    2  501    0 -0.63170507336E+01  0.47759256676E+02  0.22709884590E+03  0.23215240153E+03  0.00000000000E+00 0. -1.
          1    1    1    2  502    0 -0.17249722620E+03 -0.22844448841E+02 -0.38858196267E+03  0.42576179208E+03  0.00000000000E+00 0. -1.
<mgrwt>
<rscale>  0 0.91719914E+02</rscale>
<asrwt>0</asrwt>
<pdfrwt beam="2">  1        2 0.10699685E+00 0.17462386E+03</pdfrwt>
<pdfrwt beam="1">  1        1 0.44676687E-01 0.48175219E+02</pdfrwt>
<totfact> 0.53208345E+02</totfact>
</mgrwt>
</event>
<event>
 5    1  0.8459321E-003  0.7199659E+02  0.7546771E-02  0.1426031E+00
          2   -1    0    0  502    0  0.00000000000E+00  0.00000000000E+00  0.35069630721E+03  0.35069630721E+03  0.00000000000E+00 0. -1.
          1   -1    0    0  501    0 -0.00000000000E+00 -0.00000000000E+00 -0.41392736008E+03  0.41392736008E+03  0.00000000000E+00 0. -1.
         25    1    1    2    0    0 -0.65778703338E+02  0.29856272070E+02  0.35334862973E+02  0.14863306273E+03  0.12500000000E+03 0.  0.
          2    1    1    2  501    0 -0.64670347500E+01 -0.39625966673E+02 -0.35097500203E+03  0.35326405396E+03  0.00000000000E+00 0. -1.
          1    1    1    2  502    0  0.72245738088E+02  0.97696946034E+01  0.25240908618E+03  0.26272655060E+03  0.00000000000E+00 0. -1.
<mgrwt>
<rscale>  0 0.53765030E+02</rscale>
<asrwt>0</asrwt>
<pdfrwt beam="1">  1        2 0.53953278E-01 0.71996587E+02</pdfrwt>
<pdfrwt beam="2">  1        1 0.63681132E-01 0.40150215E+02</pdfrwt>
<totfact> 0.74756401E+02</totfact>
</mgrwt>
</event>
<event>
 5    1  0.8459321E-003  0.4801455E+02  0.7546771E-02  0.1496683E+00
          1   -1    0    0  502    0  0.00000000000E+00  0.00000000000E+00  0.12650675601E+03  0.12650675601E+03  0.00000000000E+00 0. -1.
         -1   -1    0    0    0  501 -0.00000000000E+00 -0.00000000000E+00 -0.39418804928E+03  0.39418804928E+03  0.00000000000E+00 0.  1.
         25    1    1    2    0    0 -0.67769640488E+02 -0.43543502726E+02 -0.17513561496E+03  0.22975257219E+03  0.12500000000E+03 0.  0.
          2    1    1    2  502    0  0.33117984154E+02  0.33561466789E+02  0.91747519719E+02  0.10315415795E+03  0.00000000000E+00 0. -1.
         -2    1    1    2    0  501  0.34651656334E+02  0.99820359376E+01 -0.18429319803E+03  0.18778807515E+03  0.00000000000E+00 0.  1.
<mgrwt>
<rscale>  0 0.41610589E+02</rscale>
<asrwt>0</asrwt>
<pdfrwt beam="1">  1        1 0.19462578E-01 0.48014551E+02</pdfrwt>
<pdfrwt beam="2">  1       -1 0.60644314E-01 0.36060759E+02</pdfrwt>
<totfact> 0.73309897E+02</totfact>
</mgrwt>
</event>
<event>
 5    1  0.8459321E-003  0.1170668E+03  0.7546771E-02  0.1384557E+00
          1   -1    0    0  501    0 -0.00000000000E+00  0.00000000000E+00  0.71638836689E+03  0.71638836689E+03  0.00000000000E+00 0. -1.
          2   -1    0    0  502    0  0.00000000000E+00 -0.00000000000E+00 -0.85976939101E+03  0.85976939101E+03  0.00000000000E+00 0. -1.
         25    1    1    2    0    0  0.68605942610E+02  0.12470439469E+03  0.56602387779E+02  0.19770379794E+03  0.12500000000E+03 0.  0.
          2    1    1    2  501    0  0.41074011652E+01 -0.33959323360E+02  0.58444915135E+03  0.58544932907E+03  0.00000000000E+00 0. -1.
          1    1    1    2  502    0 -0.72713343775E+02 -0.90745071333E+02 -0.78443256325E+03  0.79300463090E+03  0.00000000000E+00 0. -1.
<mgrwt>
<rscale>  0 0.63280987E+02</rscale>
<asrwt>0</asrwt>
<pdfrwt beam="2">  1        2 0.13227221E+00 0.11706682E+03</pdfrwt>
<pdfrwt beam="1">  1        1 0.11021359E+00 0.34206818E+02</pdfrwt>
<totfact> 0.13657481E+02</totfact>
</mgrwt>
</event>
<event>
 5    1  0.8459321E-003  0.5510199E+02  0.7546771E-02  0.1424399E+00
          2   -1    0    0  502    0  0.00000000000E+00  0.00000000000E+00  0.32716788188E+04  0.32716788188E+04  0.00000000000E+00 0. -1.
          1   -1    0    0  501    0 -0.00000000000E+00 -0.00000000000E+00 -0.74629016919E+03  0.74629016919E+03  0.00000000000E+00 0. -1.
         25    1    1    2    0    0  0.82202202188E+02 -0.69008142221E+02  0.13680021963E+04  0.13778876350E+04  0.12500000000E+03 0.  0.
          2    1    1    2  501    0 -0.37491798807E+02  0.40328335410E+02 -0.73995276652E+03  0.74199872392E+03  0.00000000000E+00 0. -1.
          1    1    1    2  502    0 -0.44710403380E+02  0.28679806811E+02  0.18973392199E+04  0.18980826291E+04  0.00000000000E+00 0. -1.
<mgrwt>
<rscale>  0 0.54101044E+02</rscale>
<asrwt>0</asrwt>
<pdfrwt beam="1">  1        2 0.50333519E+00 0.53118278E+02</pdfrwt>
<pdfrwt beam="2">  1        1 0.11481387E+00 0.55101993E+02</pdfrwt>
<totfact> 0.71499222E+00</totfact>
</mgrwt>
</event>
<event>
 5    1  0.8459321E-003  0.7489456E+02  0.7546771E-02  0.1388392E+00
          1   -1    0    0  501    0 -0.00000000000E+00  0.00000000000E+00  0.34019016660E+04  0.34019016660E+04  0.00000000000E+00 0. -1.
          2   -1    0    0  502    0  0.00000000000E+00 -0.00000000000E+00 -0.18052495966E+03  0.18052495966E+03  0.00000000000E+00 0. -1.
         25    1    1    2    0    0 -0.10083603782E+03  0.31401309834E+02  0.13974409531E+04  0.14069897534E+04  0.12500000000E+03 0.  0.
          2    1    1    2  501    0  0.47419974004E+02  0.20939768250E+02  0.19913780423E+04  0.19920526186E+04  0.00000000000E+00 0. -1.
          1    1    1    2  502    0  0.53416063815E+02 -0.52341078084E+02 -0.16744228907E+03  0.18338425368E+03  0.00000000000E+00 0. -1.
<mgrwt>
<rscale>  0 0.62308489E+02</rscale>
<asrwt>0</asrwt>
<pdfrwt beam="2">  1        2 0.27773073E-01 0.74894559E+02</pdfrwt>
<pdfrwt beam="1">  1        1 0.52336944E+00 0.51837514E+02</pdfrwt>
<totfact> 0.12839187E+01</totfact>
</mgrwt>
</event>
<event>
 5    1  0.8459321E-003  0.6170177E+02  0.7546771E-02  0.1435948E+00
          2   -1    0    0  502    0  0.00000000000E+00  0.00000000000E+00  0.24479855074E+02  0.24479855074E+02  0.00000000000E+00 0. -1.
          1   -1    0    0  501    0 -0.00000000000E+00 -0.00000000000E+00 -0.30108442156E+04  0.30108442156E+04  0.00000000000E+00 0. -1.
         25    1    1    2    0    0 -0.80964950154E+02  0.62179829675E+02 -0.72523541917E+03  0.74297581898E+03  0.12500000000E+03 0.  0.
          2    1    1    2  501    0  0.34798447328E+02 -0.26037022713E+02 -0.22207092442E+04  0.22211344862E+04  0.00000000000E+00 0. -1.
          1    1    1    2  502    0  0.46166502825E+02 -0.36142806962E+02 -0.40419697154E+02  0.71213765496E+02  0.00000000000E+00 0. -1.
<mgrwt>
<rscale>  0 0.51784365E+02</rscale>
<asrwt>0</asrwt>
<pdfrwt beam="1">  1        2 0.37661313E-02 0.61701766E+02</pdfrwt>
<pdfrwt beam="2">  1        1 0.46320684E+00 0.43461000E+02</pdfrwt>
<totfact> 0.26335929E+02</totfact>
</mgrwt>
</event>
<event>
 5    1  0.8459321E-003  0.1152397E+03  0.7546771E-02  0.1415304E+00
          1   -1    0    0  501    0 -0.00000000000E+00  0.00000000000E+00  0.10585385844E+04  0.10585385844E+04  0.00000000000E+00 0. -1.
          2   -1    0    0  502    0  0.00000000000E+00 -0.00000000000E+00 -0.38209875280E+03  0.38209875280E+03  0.00000000000E+00 0. -1.
         25    1    1    2    0    0 -0.53384795527E+01 -0.10187767957E+03  0.47719835898E+02  0.16825499606E+03  0.12500000000E+03 0.  0.
          2    1    1    2  501    0  0.23710662254E+02 -0.13407746468E+02  0.93976083073E+03  0.94015550956E+03  0.00000000000E+00 0. -1.
          1    1    1    2  502    0 -0.18372182702E+02  0.11528542604E+03 -0.31104083505E+03  0.33222683158E+03  0.00000000000E+00 0. -1.
<mgrwt>
<rscale>  0 0.56026914E+02</rscale>
<asrwt>0</asrwt>
<pdfrwt beam="2">  1        2 0.58784424E-01 0.11523973E+03</pdfrwt>
<pdfrwt beam="1">  1        1 0.16285209E+00 0.27239001E+02</pdfrwt>
<totfact> 0.19580227E+02</totfact>
</mgrwt>
</event>
<event>
 5    1  0.8459321E-003  0.7141286E+02  0.7546771E-02  0.1478185E+00
         -2   -1    0    0    0  501 -0.00000000000E+00  0.00000000000E+00  0.15641502938E+03  0.15641502938E+03  0.00000000000E+00 0.  1.
          2   -1    0    0  502    0  0.00000000000E+00 -0.00000000000E+00 -0.61878436561E+03  0.61878436561E+03  0.00000000000E+00 0. -1.
         25    1    1    2    0    0 -0.60154235677E+02  0.18741561724E+02 -0.19083279876E+03  0.23666840788E+03  0.12500000000E+03 0.  0.
          1    1    1    2  502    0  0.56845257322E+02 -0.46135394159E+02 -0.40025131219E+03  0.40689184163E+03  0.00000000000E+00 0. -1.
         -1    1    1    2    0  501  0.33089783559E+01  0.27393832435E+02  0.12871477471E+03  0.13163914548E+03  0.00000000000E+00 0.  1.
<mgrwt>
<rscale>  0 0.44390227E+02</rscale>
<asrwt>0</asrwt>
<pdfrwt beam="2">  1        2 0.95197597E-01 0.71412864E+02</pdfrwt>
<pdfrwt beam="1">  1       -2 0.24063850E-01 0.27592959E+02</pdfrwt>
<totfact> 0.71000912E+02</totfact>
</mgrwt>
</event>
<event>
 5    1  0.8459321E-003  0.1210309E+03  0.7546771E-02  0.1301638E+00
          1   -1    0    0  501    0 -0.00000000000E+00  0.00000000000E+00  0.49724917603E+03  0.49724917603E+03  0.00000000000E+00 0. -1.
          2   -1    0    0  502    0  0.00000000000E+00 -0.00000000000E+00 -0.23667895193E+04  0.23667895193E+04  0.00000000000E+00 0. -1.
         25    1    1    2    0    0  0.10661234673E+02  0.96892504778E+02 -0.13697929522E+02  0.15910516233E+03  0.12500000000E+03 0.  0.
          2    1    1    2  501    0  0.67590110455E+02 -0.33979865486E+01  0.42020663275E+03  0.42562140870E+03  0.00000000000E+00 0. -1.
          1    1    1    2  502    0 -0.78251345127E+02 -0.93494518230E+02 -0.22760490465E+04  0.22793121243E+04  0.00000000000E+00 0. -1.
<mgrwt>
<rscale>  0 0.90503167E+02</rscale>
<asrwt>0</asrwt>
<pdfrwt beam="2">  1        2 0.36412147E+00 0.12103090E+03</pdfrwt>
<pdfrwt beam="1">  1        1 0.76499873E-01 0.67675471E+02</pdfrwt>
<totfact> 0.33705828E+01</totfact>
</mgrwt>
</event>
<event>
 5    1  0.8459321E-003  0.7568994E+02  0.7546771E-02  0.1408225E+00
          1   -1    0    0  501    0 -0.00000000000E+00  0.00000000000E+00  0.41403353954E+02  0.41403353954E+02  0.00000000000E+00 0. -1.
          2   -1    0    0  502    0  0.00000000000E+00 -0.00000000000E+00 -0.18392082503E+04  0.18392082503E+04  0.00000000000E+00 0. -1.
         25    1    1    2    0    0 -0.17395281332E+02 -0.49048562033E+02 -0.12391916931E+04  0.12465670497E+04  0.12500000000E+03 0.  0.
          2    1    1    2  501    0  0.61133302014E+02  0.46351832003E+02 -0.30746578009E+01  0.76780378130E+02  0.00000000000E+00 0. -1.
          1    1    1    2  502    0 -0.43738020682E+02  0.26967300305E+01 -0.55553854550E+03  0.55726417644E+03  0.00000000000E+00 0. -1.
<mgrwt>
<rscale>  0 0.57591793E+02</rscale>
<asrwt>0</asrwt>
<pdfrwt beam="2">  1        2 0.28295509E+00 0.43821077E+02</pdfrwt>
<pdfrwt beam="1">  1        1 0.63697474E-02 0.75689938E+02</pdfrwt>
<totfact> 0.15859099E+03</totfact>
</mgrwt>
</event>
<event>
 5    1  0.8459321E-003  0.5634865E+02  0.7546771E-02  0.1447800E+00
          1   -1    0    0  501    0 -0.00000000000E+00  0.00000000000E+00  0.37206631846E+03  0.37206631846E+03  0.00000000000E+00 0. -1.
          2   -1    0    0  502    0  0.00000000000E+00 -0.00000000000E+00 -0.83034659844E+03  0.83034659844E+03  0.00000000000E+00 0. -1.
         25    1    1    2    0    0 -0.17933281190E+02 -0.41543559051E+01  0.82969587399E+02  0.15115493270E+03  0.12500000000E+03 0.  0.
          2    1    1    2  501    0  0.60049762085E+02 -0.69921942492E+01  0.25081385415E+03  0.25799700413E+03  0.00000000000E+00 0. -1.
          1    1    1    2  502    0 -0.42116480894E+02  0.11146550154E+02 -0.79206372153E+03  0.79326098007E+03  0.00000000000E+00 0. -1.
<mgrwt>
<rscale>  0 0.49547105E+02</rscale>
<asrwt>0</asrwt>
<pdfrwt beam="2">  1        2 0.12774563E+00 0.43566542E+02</pdfrwt>
<pdfrwt beam="1">  1        1 0.57240972E-01 0.56348646E+02</pdfrwt>
<totfact> 0.33546216E+02</totfact>
</mgrwt>
</event>
<event>
 5    1  0.8459321E-003  0.1044273E+03  0.7546771E-02  0.1312246E+00
          2   -1    0    0  502    0  0.00000000000E+00  0.00000000000E+00  0.21105377441E+03  0.21105377441E+03  0.00000000000E+00 0. -1.
          1   -1    0    0  501    0 -0.00000000000E+00 -0.00000000000E+00 -0.20975284017E+03  0.20975284017E+03  0.00000000000E+00 0. -1.
         25    1    1    2    0    0  0.46815660133E+02 -0.41750427438E+01 -0.11702703709E+03  0.17756538071E+03  0.12500000000E+03 0.  0.
          2    1    1    2  501    0  0.55013488780E+02 -0.45206131674E+02 -0.10265268912E+02  0.71940628538E+02  0.00000000000E+00 0. -1.
          3    1    1    2  502    0 -0.10182914891E+03  0.49381174417E+02  0.12859324024E+03  0.17130060534E+03  0.00000000000E+00 0. -1.
<mgrwt>
<rscale>  0 0.86230471E+02</rscale>
<asrwt>0</asrwt>
<pdfrwt beam="1">  1        2 0.32469811E-01 0.10442733E+03</pdfrwt>
<pdfrwt beam="2">  1        1 0.32269668E-01 0.71204482E+02</pdfrwt>
<totfact> 0.28989952E+03</totfact>
</mgrwt>
</event>
<event>
 5    1  0.8459321E-003  0.7399305E+02  0.7546771E-02  0.1374336E+00
         -1   -1    0    0    0  501 -0.00000000000E+00  0.00000000000E+00  0.89491770673E+02  0.89491770673E+02  0.00000000000E+00 0.  1.
          1   -1    0    0  502    0  0.00000000000E+00 -0.00000000000E+00 -0.69792134768E+03  0.69792134768E+03  0.00000000000E+00 0. -1.
         25    1    1    2    0    0 -0.58558429017E+01 -0.11007856442E+03 -0.89752123636E+02  0.18929348890E+03  0.12500000000E+03 0.  0.
          2    1    1    2  502    0 -0.32293951565E+02  0.65297181888E+02 -0.53268797332E+03  0.53764588549E+03  0.00000000000E+00 0. -1.
         -2    1    1    2    0  501  0.38149794466E+02  0.44781382534E+02  0.14010519950E+02  0.60473743961E+02  0.00000000000E+00 0.  1.
<mgrwt>
<rscale>  0 0.65976450E+02</rscale>
<asrwt>0</asrwt>
<pdfrwt beam="2">  1        1 0.10737252E+00 0.73993054E+02</pdfrwt>
<pdfrwt beam="1">  1       -1 0.13767965E-01 0.58828386E+02</pdfrwt>
<totfact> 0.10226113E+03</totfact>
</mgrwt>
</event>
<event>
 5    1  0.8459321E-003  0.3454895E+02  0.7546771E-02  0.1608766E+00
         -1   -1    0    0    0  501 -0.00000000000E+00  0.00000000000E+00  0.13000416085E+03  0.13000416085E+03  0.00000000000E+00 0.  1.
          1   -1    0    0  502    0  0.00000000000E+00 -0.00000000000E+00 -0.15280326531E+04  0.15280326531E+04  0.00000000000E+00 0. -1.
         25    1    1    2    0    0  0.15366917110E+02 -0.52661712566E+02 -0.10337508508E+03  0.17123319283E+03  0.12500000000E+03 0.  0.
          2    1    1    2  502    0 -0.19272352302E+02  0.28539743491E+02 -0.13889578398E+04  0.13893846916E+04  0.00000000000E+00 0. -1.
         -2    1    1    2    0  501  0.39054351916E+01  0.24121969075E+02  0.94304432629E+02  0.97418929524E+02  0.00000000000E+00 0.  1.
<mgrwt>
<rscale>  0 0.29055820E+02</rscale>
<asrwt>0</asrwt>
<pdfrwt beam="2">  1        1 0.23508194E+00 0.34548947E+02</pdfrwt>
<pdfrwt beam="1">  1       -1 0.20000641E-01 0.24436076E+02</pdfrwt>
<totfact> 0.15480171E+02</totfact>
</mgrwt>
</event>
<event>
 5    1  0.8459321E-003  0.5537548E+02  0.7546771E-02  0.1470965E+00
          2   -1    0    0  502    0  0.00000000000E+00  0.00000000000E+00  0.11043642689E+02  0.11043642689E+02  0.00000000000E+00 0. -1.
          1   -1    0    0  501    0 -0.00000000000E+00 -0.00000000000E+00 -0.33589917642E+04  0.33589917642E+04  0.00000000000E+00 0. -1.
         25    1    1    2    0    0  0.68154365804E+02 -0.16895177584E+02 -0.14495298190E+04  0.14566029524E+04  0.12500000000E+03 0.  0.
          2    1    1    2  501    0 -0.38126412658E+02  0.39291573933E+02 -0.18561345376E+04  0.18569418065E+04  0.00000000000E+00 0. -1.
          1    1    1    2  502    0 -0.30027953145E+02 -0.22396396349E+02 -0.42283764910E+02  0.56490648027E+02  0.00000000000E+00 0. -1.
<mgrwt>
<rscale>  0 0.45545403E+02</rscale>
<asrwt>0</asrwt>
<pdfrwt beam="1">  1        2 0.16990203E-02 0.37460333E+02</pdfrwt>
<pdfrwt beam="2">  1        1 0.51676847E+00 0.55375476E+02</pdfrwt>
<totfact> 0.38262855E+02</totfact>
</mgrwt>
</event>
<event>
 5    1  0.8459321E-003  0.1641488E+03  0.7546771E-02  0.1203941E+00
         -2   -1    0    0    0  501 -0.00000000000E+00  0.00000000000E+00  0.15580611707E+03  0.15580611707E+03  0.00000000000E+00 0.  1.
          2   -1    0    0  502    0  0.00000000000E+00 -0.00000000000E+00 -0.36933228180E+04  0.36933228180E+04  0.00000000000E+00 0. -1.
         25    1    1    2    0    0  0.21844541215E+03  0.11438151118E+02 -0.14345527192E+03  0.28992006559E+03  0.12500000000E+03 0.  0.
          1    1    1    2  502    0 -0.12554903086E+03 -0.10524777369E+03 -0.34206203204E+04  0.34245412875E+04  0.00000000000E+00 0. -1.
         -1    1    1    2    0  501 -0.92896381293E+02  0.93809622570E+02  0.26558891386E+02  0.13466758205E+03  0.00000000000E+00 0.  1.
<mgrwt>
<rscale>  0 0.14721196E+03</rscale>
<asrwt>0</asrwt>
<pdfrwt beam="2">  1        2 0.56820354E+00 0.16414881E+03</pdfrwt>
<pdfrwt beam="1">  1       -2 0.23970171E-01 0.13202266E+03</pdfrwt>
<totfact> 0.12475867E+01</totfact>
</mgrwt>
</event>
<event>
 5    1  0.8459321E-003  0.8259807E+02  0.7546771E-02  0.1341238E+00
          1   -1    0    0  501    0 -0.00000000000E+00  0.00000000000E+00  0.23279363612E+03  0.23279363612E+03  0.00000000000E+00 0. -1.
          2   -1    0    0  502    0  0.00000000000E+00 -0.00000000000E+00 -0.81283188153E+03  0.81283188153E+03  0.00000000000E+00 0. -1.
         25    1    1    2    0    0 -0.33165613264E+02 -0.14530895538E+03  0.74671832903E+02  0.20836394373E+03  0.12500000000E+03 0.  0.
          2    1    1    2  501    0  0.28064996487E+01  0.69609359984E+02  0.75372733560E+02  0.10263716872E+03  0.00000000000E+00 0. -1.
          1    1    1    2  502    0  0.30359113615E+02  0.75699595393E+02 -0.73008281188E+03  0.73462440520E+03  0.00000000000E+00 0. -1.
<mgrwt>
<rscale>  0 0.75856904E+02</rscale>
<asrwt>0</asrwt>
<pdfrwt beam="2">  1        2 0.12505106E+00 0.82598070E+02</pdfrwt>
<pdfrwt beam="1">  1        1 0.35814405E-01 0.69665913E+02</pdfrwt>
<totfact> 0.59147226E+02</totfact>
</mgrwt>
</event>
<event>
 5    1  0.8459321E-003  0.8067075E+02  0.7546771E-02  0.1361715E+00
         -2   -1    0    0    0  501 -0.00000000000E+00  0.00000000000E+00  0.45872241396E+03  0.45872241396E+03  0.00000000000E+00 0.  1.
          2   -1    0    0  502    0  0.00000000000E+00 -0.00000000000E+00 -0.13586728300E+04  0.13586728300E+04  0.00000000000E+00 0. -1.
         25    1    1    2    0    0 -0.13130424245E+01  0.46901327659E+02  0.55316406853E+02  0.14452115237E+03  0.12500000000E+03 0.  0.
          1    1    1    2  502    0  0.56995189555E+02  0.18490314061E+02 -0.13082351732E+04  0.13096066630E+04  0.00000000000E+00 0. -1.
         -1    1    1    2    0  501 -0.55682147130E+02 -0.65391641720E+02  0.35296835033E+03  0.36326742856E+03  0.00000000000E+00 0.  1.
<mgrwt>
<rscale>  0 0.69525167E+02</rscale>
<asrwt>0</asrwt>
<pdfrwt beam="2">  1        2 0.20902659E+00 0.59919474E+02</pdfrwt>
<pdfrwt beam="1">  1       -2 0.70572679E-01 0.80670749E+02</pdfrwt>
<totfact> 0.35184678E+01</totfact>
</mgrwt>
</event>
<event>
 5    1  0.8459321E-003  0.5237507E+02  0.7546771E-02  0.1539610E+00
         -2   -1    0    0    0  501 -0.00000000000E+00  0.00000000000E+00  0.15827848785E+04  0.15827848785E+04  0.00000000000E+00 0.  1.
          2   -1    0    0  502    0  0.00000000000E+00 -0.00000000000E+00 -0.68166813534E+02  0.68166813534E+02  0.00000000000E+00 0. -1.
         25    1    1    2    0    0  0.22094914155E+02  0.62883137839E+02  0.65067882226E+02  0.15588875377E+03  0.12500000000E+03 0.  0.
          3    1    1    2  502    0 -0.22402572853E+02 -0.10615977659E+02 -0.15397463996E+02  0.29183148384E+02  0.00000000000E+00 0. -1.
         -1    1    1    2    0  501  0.30765869852E+00 -0.52267160181E+02  0.14649476467E+04  0.14658797899E+04  0.00000000000E+00 0.  1.
<mgrwt>
<rscale>  0 0.36033455E+02</rscale>
<asrwt>0</asrwt>
<pdfrwt beam="2">  1        2 0.10487203E-01 0.24790608E+02</pdfrwt>
<pdfrwt beam="1">  1       -2 0.24350534E+00 0.52375072E+02</pdfrwt>
<totfact> 0.46706091E+01</totfact>
</mgrwt>
</event>
<event>
 5    1  0.8459321E-003  0.7494300E+02  0.7546771E-02  0.1402211E+00
          2   -1    0    0  502    0  0.00000000000E+00  0.00000000000E+00  0.13096689687E+04  0.13096689687E+04  0.00000000000E+00 0. -1.
          1   -1    0    0  501    0 -0.00000000000E+00 -0.00000000000E+00 -0.16850593918E+03  0.16850593918E+03  0.00000000000E+00 0. -1.
         25    1    1    2    0    0  0.27972082903E+02  0.94012501946E+02  0.53889381092E+02  0.16777918029E+03  0.12500000000E+03 0.  0.
          2    1    1    2  501    0  0.23570700554E+02 -0.39966804373E+02 -0.10551757983E+03  0.11526874264E+03  0.00000000000E+00 0. -1.
          1    1    1    2  502    0 -0.51542783457E+02 -0.54045697573E+02  0.11927912283E+04  0.11951269850E+04  0.00000000000E+00 0. -1.
<mgrwt>
<rscale>  0 0.58968854E+02</rscale>
<asrwt>0</asrwt>
<pdfrwt beam="1">  1        2 0.20148753E+00 0.74943003E+02</pdfrwt>
<pdfrwt beam="2">  1        1 0.25923992E-01 0.46399605E+02</pdfrwt>
<totfact> 0.45174023E+02</totfact>
</mgrwt>
</event>
<event>
 5    1  0.8459321E-003  0.1769814E+03  0.7546771E-02  0.1274620E+00
          1   -1    0    0  501    0 -0.00000000000E+00  0.00000000000E+00  0.29644193245E+03  0.29644193245E+03  0.00000000000E+00 0. -1.
          2   -1    0    0  502    0  0.00000000000E+00 -0.00000000000E+00 -0.94711767904E+03  0.94711767904E+03  0.00000000000E+00 0. -1.
         25    1    1    2    0    0 -0.14653473003E+03  0.17670816498E+03 -0.48052875387E+02  0.26576734470E+03  0.12500000000E+03 0.  0.
          2    1    1    2  501    0  0.25320890442E+02 -0.54010889665E+02  0.17311911052E+03  0.18310802856E+03  0.00000000000E+00 0. -1.
          3    1    1    2  502    0  0.12121383959E+03 -0.12269727531E+03 -0.77574198172E+03  0.79468423823E+03  0.00000000000E+00 0. -1.
<mgrwt>
<rscale>  0 0.10274842E+03</rscale>
<asrwt>0</asrwt>
<pdfrwt beam="2">  1        2 0.14571041E+00 0.17698137E+03</pdfrwt>
<pdfrwt beam="1">  1        1 0.45606452E-01 0.59651686E+02</pdfrwt>
<totfact> 0.35113473E+02</totfact>
</mgrwt>
</event>
<event>
 5    1  0.8459321E-003  0.2326734E+03  0.7546771E-02  0.1225607E+00
          1   -1    0    0  501    0 -0.00000000000E+00  0.00000000000E+00  0.25789117698E+04  0.25789117698E+04  0.00000000000E+00 0. -1.
          2   -1    0    0  502    0  0.00000000000E+00 -0.00000000000E+00 -0.11594065212E+03  0.11594065212E+03  0.00000000000E+00 0. -1.
         25    1    1    2    0    0  0.93020365894E+02  0.25651576761E+03  0.40217525706E+03  0.50181975339E+03  0.12500000000E+03 0.  0.
          2    1    1    2  501    0 -0.12634523371E+03 -0.19039702348E+03  0.20978349328E+04  0.21102430073E+04  0.00000000000E+00 0. -1.
          1    1    1    2  502    0  0.33324867820E+02 -0.66118744131E+02 -0.37039072159E+02  0.82789661233E+02  0.00000000000E+00 0. -1.
<mgrwt>
<rscale>  0 0.13125407E+03</rscale>
<asrwt>0</asrwt>
<pdfrwt beam="2">  1        2 0.17837025E-01 0.74042117E+02</pdfrwt>
<pdfrwt beam="1">  1        1 0.39675562E+00 0.23267341E+03</pdfrwt>
<totfact> 0.59018718E+01</totfact>
</mgrwt>
</event>
<event>
 5    1  0.8459321E-003  0.6290409E+02  0.7546771E-02  0.1404745E+00
          2   -1    0    0  502    0  0.00000000000E+00  0.00000000000E+00  0.23185846330E+04  0.23185846330E+04  0.00000000000E+00 0. -1.
          1   -1    0    0  501    0 -0.00000000000E+00 -0.00000000000E+00 -0.12502286488E+04  0.12502286488E+04  0.00000000000E+00 0. -1.
         25    1    1    2    0    0 -0.36238616613E+02  0.51390171869E+02  0.25700248142E+03  0.29262512291E+03  0.12500000000E+03 0.  0.
          2    1    1    2  501    0 -0.27134019884E+02 -0.46903821433E+02 -0.12313276005E+04  0.12325193236E+04  0.00000000000E+00 0. -1.
          1    1    1    2  502    0  0.63372636498E+02 -0.44863504365E+01  0.20426811033E+04  0.20436688352E+04  0.00000000000E+00 0. -1.
<mgrwt>
<rscale>  0 0.58383042E+02</rscale>
<asrwt>0</asrwt>
<pdfrwt beam="1">  1        2 0.35670533E+00 0.62904089E+02</pdfrwt>
<pdfrwt beam="2">  1        1 0.19234287E+00 0.54186931E+02</pdfrwt>
<totfact> 0.99673533E+00</totfact>
</mgrwt>
</event>
<event>
 5    1  0.8459321E-003  0.1053527E+03  0.7546771E-02  0.1326297E+00
          2   -1    0    0  502    0  0.00000000000E+00  0.00000000000E+00  0.37170355278E+04  0.37170355278E+04  0.00000000000E+00 0. -1.
          1   -1    0    0  501    0 -0.00000000000E+00 -0.00000000000E+00 -0.46450890553E+03  0.46450890553E+03  0.00000000000E+00 0. -1.
         25    1    1    2    0    0  0.58615193811E+02  0.12424313714E+03 -0.30009893958E+03  0.35292558934E+03  0.12500000000E+03 0.  0.
          2    1    1    2  501    0 -0.66503144781E+01 -0.89980444684E+02 -0.12295691416E+03  0.15250937626E+03  0.00000000000E+00 0. -1.
          1    1    1    2  502    0 -0.51964879333E+02 -0.34262692461E+02  0.36755824760E+04  0.36761094677E+04  0.00000000000E+00 0. -1.
<mgrwt>
<rscale>  0 0.80978678E+02</rscale>
<asrwt>0</asrwt>
<pdfrwt beam="1">  1        2 0.57185160E+00 0.62243721E+02</pdfrwt>
<pdfrwt beam="2">  1        1 0.71462911E-01 0.10535274E+03</pdfrwt>
<totfact> 0.66994471E+00</totfact>
</mgrwt>
</event>
<event>
 5    1  0.8459321E-003  0.9175365E+02  0.7546771E-02  0.1434756E+00
         -1   -1    0    0    0  502 -0.00000000000E+00  0.00000000000E+00  0.60536190442E+03  0.60536190442E+03  0.00000000000E+00 0.  1.
         -2   -1    0    0    0  501  0.00000000000E+00 -0.00000000000E+00 -0.85532804358E+02  0.85532804358E+02  0.00000000000E+00 0.  1.
         25    1    1    2    0    0  0.10220504564E+03 -0.19640070775E+02  0.86807948665E+02  0.18436980145E+03  0.12500000000E+03 0.  0.
         -2    1    1    2    0  502 -0.81405680042E+02  0.40545051858E+02  0.45857380719E+03  0.46750478352E+03  0.00000000000E+00 0.  1.
         -1    1    1    2    0  501 -0.20799365594E+02 -0.20904981083E+02 -0.25552655802E+02  0.39020123805E+02  0.00000000000E+00 0.  1.
<mgrwt>
<rscale>  0 0.52017029E+02</rscale>
<asrwt>0</asrwt>
<pdfrwt beam="2">  1       -2 0.13158893E-01 0.29489521E+02</pdfrwt>
<pdfrwt beam="1">  1       -1 0.93132598E-01 0.91753653E+02</pdfrwt>
<totfact> 0.33972986E+02</totfact>
</mgrwt>
</event>
<event>
 5    1  0.8459321E-003  0.4251066E+02  0.7546771E-02  0.1542375E+00
          2   -1    0    0  502    0  0.00000000000E+00  0.00000000000E+00  0.14799459731E+04  0.14799459731E+04  0.00000000000E+00 0. -1.
         -2   -1    0    0    0  501 -0.00000000000E+00 -0.00000000000E+00 -0.97974805613E+01  0.97974805613E+01  0.00000000000E+00 0.  1.
         25    1    1    2    0    0 -0.34076676129E+01 -0.97791260205E+01  0.11392956095E+04  0.11461791872E+04  0.12500000000E+03 0.  0.
          1    1    1    2  502    0  0.44347747414E+02  0.21227540028E+02  0.20119323197E+03  0.20711361072E+03  0.00000000000E+00 0. -1.
         -1    1    1    2    0  501 -0.40940079801E+02 -0.11448414007E+02  0.12965965110E+03  0.13645065570E+03  0.00000000000E+00 0.  1.
<mgrwt>
<rscale>  0 0.35711075E+02</rscale>
<asrwt>0</asrwt>
<pdfrwt beam="1">  1        2 0.22768382E+00 0.29999084E+02</pdfrwt>
<pdfrwt beam="2">  1       -2 0.15073059E-02 0.42510661E+02</pdfrwt>
<totfact> 0.15065135E+04</totfact>
</mgrwt>
</event>
<event>
 5    1  0.8459321E-003  0.5418302E+02  0.7546771E-02  0.1460437E+00
         -1   -1    0    0    0  501 -0.00000000000E+00  0.00000000000E+00  0.16298081001E+03  0.16298081001E+03  0.00000000000E+00 0.  1.
          1   -1    0    0  502    0  0.00000000000E+00 -0.00000000000E+00 -0.24731501528E+03  0.24731501528E+03  0.00000000000E+00 0. -1.
         25    1    1    2    0    0 -0.43405483249E+02  0.70803742625E+02 -0.35418411439E+02  0.15419685410E+03  0.12500000000E+03 0.  0.
          2    1    1    2  502    0 -0.11236387235E+00 -0.41302231492E+02 -0.14271435887E+03  0.14857077498E+03  0.00000000000E+00 0. -1.
         -2    1    1    2    0  501  0.43517847121E+02 -0.29501511133E+02  0.93798565037E+02  0.10752819621E+03  0.00000000000E+00 0.  1.
<mgrwt>
<rscale>  0 0.47306319E+02</rscale>
<asrwt>0</asrwt>
<pdfrwt beam="2">  1        1 0.38048464E-01 0.41302384E+02</pdfrwt>
<pdfrwt beam="1">  1       -1 0.25073971E-01 0.54183017E+02</pdfrwt>
<totfact> 0.14677643E+03</totfact>
</mgrwt>
</event>
<event>
 5    1  0.8459321E-003  0.5391712E+02  0.7546771E-02  0.1477864E+00
          1   -1    0    0  501    0 -0.00000000000E+00  0.00000000000E+00  0.11885039717E+04  0.11885039717E+04  0.00000000000E+00 0. -1.
          2   -1    0    0  502    0  0.00000000000E+00 -0.00000000000E+00 -0.51413824011E+02  0.51413824011E+02  0.00000000000E+00 0. -1.
         25    1    1    2    0    0 -0.41040010738E+02 -0.42961157566E+02  0.75339153898E+03  0.76599853430E+03  0.12500000000E+03 0.  0.
          2    1    1    2  501    0  0.35014399235E+02 -0.10757863392E+02  0.41150413077E+03  0.41313120122E+03  0.00000000000E+00 0. -1.
          1    1    1    2  502    0  0.60256115027E+01  0.53719020958E+02 -0.27805522052E+02  0.60788060203E+02  0.00000000000E+00 0. -1.
<mgrwt>
<rscale>  0 0.44440650E+02</rscale>
<asrwt>0</asrwt>
<pdfrwt beam="2">  1        2 0.79098200E-02 0.53917116E+02</pdfrwt>
<pdfrwt beam="1">  1        1 0.18284674E+00 0.36629766E+02</pdfrwt>
<totfact> 0.14252505E+03</totfact>
</mgrwt>
</event>
<event>
 5    1  0.8459321E-003  0.6791483E+02  0.7546771E-02  0.1434223E+00
          2   -1    0    0  502    0  0.00000000000E+00  0.00000000000E+00  0.13910991477E+04  0.13910991477E+04  0.00000000000E+00 0. -1.
         -2   -1    0    0    0  501 -0.00000000000E+00 -0.00000000000E+00 -0.20286020069E+03  0.20286020069E+03  0.00000000000E+00 0.  1.
         25    1    1    2    0    0  0.22568167919E+02 -0.38932465477E+02 -0.83567684793E+02  0.15695100195E+03  0.12500000000E+03 0.  0.
          1    1    1    2  502    0  0.36165512131E+02 -0.17092182713E+02  0.13340945888E+04  0.13346941443E+04  0.00000000000E+00 0. -1.
         -1    1    1    2    0  501 -0.58733680050E+02  0.56024648190E+02 -0.62287956977E+02  0.10231420215E+03  0.00000000000E+00 0.  1.
<mgrwt>
<rscale>  0 0.52121658E+02</rscale>
<asrwt>0</asrwt>
<pdfrwt beam="1">  1        2 0.21401525E+00 0.40001087E+02</pdfrwt>
<pdfrwt beam="2">  1       -2 0.31209262E-01 0.67914834E+02</pdfrwt>
<totfact> 0.16925610E+02</totfact>
</mgrwt>
</event>
<event>
 5    1  0.8459321E-003  0.4156867E+02  0.7546771E-02  0.1498376E+00
          1   -1    0    0  501    0 -0.00000000000E+00  0.00000000000E+00  0.32530778556E+03  0.32530778556E+03  0.00000000000E+00 0. -1.
          2   -1    0    0  502    0  0.00000000000E+00 -0.00000000000E+00 -0.23157952533E+03  0.23157952533E+03  0.00000000000E+00 0. -1.
         25    1    1    2    0    0 -0.20306723576E+01  0.55219472836E+00 -0.27400691531E+02  0.12798525870E+03  0.12500000000E+03 0.  0.
          2    1    1    2  501    0 -0.10840487872E+01 -0.42004004731E+02  0.27055676756E+03  0.27380006583E+03  0.00000000000E+00 0. -1.
          1    1    1    2  502    0  0.31147211448E+01  0.41451810002E+02 -0.14942781580E+03  0.15510198636E+03  0.00000000000E+00 0. -1.
<mgrwt>
<rscale>  0 0.41368419E+02</rscale>
<asrwt>0</asrwt>
<pdfrwt beam="2">  1        2 0.35627619E-01 0.41568667E+02</pdfrwt>
<pdfrwt beam="1">  1        1 0.50047351E-01 0.41169137E+02</pdfrwt>
<totfact> 0.15159882E+03</totfact>
</mgrwt>
</event>
<event>
 5    1  0.8459321E-003  0.1299552E+03  0.7546771E-02  0.1399693E+00
          1   -1    0    0  501    0 -0.00000000000E+00  0.00000000000E+00  0.40190980935E+03  0.40190980935E+03  0.00000000000E+00 0. -1.
          2   -1    0    0  502    0  0.00000000000E+00 -0.00000000000E+00 -0.28714408863E+04  0.28714408863E+04  0.00000000000E+00 0. -1.
         25    1    1    2    0    0 -0.50548523371E+02  0.93941260906E+02 -0.20802018124E+03  0.26509905605E+03  0.12500000000E+03 0.  0.
          2    1    1    2  501    0 -0.22828188915E+02  0.14964519099E+02  0.37123280305E+03  0.37223494879E+03  0.00000000000E+00 0. -1.
          1    1    1    2  502    0  0.73376712286E+02 -0.10890578001E+03 -0.26327436988E+04  0.26360166908E+04  0.00000000000E+00 0. -1.
<mgrwt>
<rscale>  0 0.59558683E+02</rscale>
<asrwt>0</asrwt>
<pdfrwt beam="2">  1        2 0.44176013E+00 0.12995520E+03</pdfrwt>
<pdfrwt beam="1">  1        1 0.61832279E-01 0.27295843E+02</pdfrwt>
<totfact> 0.23384413E+01</totfact>
</mgrwt>
</event>
<event>
 5    1  0.8459321E-003  0.2111483E+03  0.7546771E-02  0.1221724E+00
          2   -1    0    0  502    0  0.00000000000E+00  0.00000000000E+00  0.38474345576E+04  0.38474345576E+04  0.00000000000E+00 0. -1.
         -2   -1    0    0    0  501 -0.00000000000E+00 -0.00000000000E+00 -0.32357092969E+03  0.32357092969E+03  0.00000000000E+00 0.  1.
         25    1    1    2    0    0  0.21088139236E+03  0.15349824098E+03  0.85126649221E+03  0.89906190687E+03  0.12500000000E+03 0.  0.
          1    1    1    2  502    0 -0.12629712235E+03 -0.16151805271E+03  0.29626328599E+04  0.29697192640E+04  0.00000000000E+00 0. -1.
         -1    1    1    2    0  501 -0.84584270009E+02  0.80198117252E+01 -0.29003572421E+03  0.30222431641E+03  0.00000000000E+00 0.  1.
<mgrwt>
<rscale>  0 0.13394001E+03</rscale>
<asrwt>0</asrwt>
<pdfrwt beam="1">  1        2 0.59191297E+00 0.21114835E+03</pdfrwt>
<pdfrwt beam="2">  1       -2 0.49780146E-01 0.84963616E+02</pdfrwt>
<totfact> 0.24045651E+00</totfact>
</mgrwt>
</event>
<event>
 5    1  0.8459321E-003  0.4849540E+02  0.7546771E-02  0.1500255E+00
          2   -1    0    0  502    0  0.00000000000E+00  0.00000000000E+00  0.12788920272E+04  0.12788920272E+04  0.00000000000E+00 0. -1.
          1   -1    0    0  501    0 -0.00000000000E+00 -0.00000000000E+00 -0.60379623842E+03  0.60379623842E+03  0.00000000000E+00 0. -1.
         25    1    1    2    0    0  0.49402045857E+02 -0.61308570649E+02 -0.10950606024E+03  0.18389094648E+03  0.12500000000E+03 0.  0.
          2    1    1    2  501    0 -0.30562323642E+02  0.16717314052E+02 -0.45596128885E+03  0.45729008424E+03  0.00000000000E+00 0. -1.
          1    1    1    2  502    0 -0.18839722215E+02  0.44591256597E+02  0.12405631379E+04  0.12415072349E+04  0.00000000000E+00 0. -1.
<mgrwt>
<rscale>  0 0.41101944E+02</rscale>
<asrwt>0</asrwt>
<pdfrwt beam="1">  1        2 0.19675262E+00 0.48495396E+02</pdfrwt>
<pdfrwt beam="2">  1        1 0.92891729E-01 0.34835674E+02</pdfrwt>
<totfact> 0.10385993E+02</totfact>
</mgrwt>
</event>
<event>
 5    1  0.8459321E-003  0.1828040E+03  0.7546771E-02  0.1341964E+00
          2   -1    0    0  502    0  0.00000000000E+00  0.00000000000E+00  0.60803606860E+03  0.60803606860E+03  0.00000000000E+00 0. -1.
         -2   -1    0    0    0  501 -0.00000000000E+00 -0.00000000000E+00 -0.17057094677E+03  0.17057094677E+03  0.00000000000E+00 0.  1.
         25    1    1    2    0    0 -0.14357891570E+02 -0.19889298786E+03  0.10660689740E+03  0.25836911627E+03  0.12500000000E+03 0.  0.
          1    1    1    2  502    0 -0.17273092764E+02  0.26079305756E+02  0.34272819669E+03  0.34415273750E+03  0.00000000000E+00 0. -1.
         -1    1    1    2    0  501  0.31630984334E+02  0.17281368210E+03 -0.11869972261E+02  0.17608516159E+03  0.00000000000E+00 0.  1.
<mgrwt>
<rscale>  0 0.75619175E+02</rscale>
<asrwt>0</asrwt>
<pdfrwt beam="1">  1        2 0.93544009E-01 0.31280824E+02</pdfrwt>
<pdfrwt beam="2">  1       -2 0.26241684E-01 0.18280400E+03</pdfrwt>
<totfact> 0.67793638E+02</totfact>
</mgrwt>
</event>
<event>
 5    1  0.8459321E-003  0.9189114E+02  0.7546771E-02  0.1353362E+00
          2   -1    0    0  502    0  0.00000000000E+00  0.00000000000E+00  0.49993315563E+03  0.49993315563E+03  0.00000000000E+00 0. -1.
          1   -1    0    0  501    0 -0.00000000000E+00 -0.00000000000E+00 -0.11626799114E+04  0.11626799114E+04  0.00000000000E+00 0. -1.
         25    1    1    2    0    0 -0.31776855146E+02 -0.13179276733E+03  0.10922594270E+03  0.21432314061E+03  0.12500000000E+03 0.  0.
          2    1    1    2  501    0  0.48130042379E+02  0.77770775233E+02 -0.11058750655E+04  0.11096506004E+04  0.00000000000E+00 0. -1.
          1    1    1    2  502    0 -0.16353187232E+02  0.54021992098E+02  0.33390236707E+03  0.33863932598E+03  0.00000000000E+00 0. -1.
<mgrwt>
<rscale>  0 0.72018079E+02</rscale>
<asrwt>0</asrwt>
<pdfrwt beam="1">  1        2 0.76912794E-01 0.56442912E+02</pdfrwt>
<pdfrwt beam="2">  1        1 0.17887383E+00 0.91891142E+02</pdfrwt>
<totfact> 0.11491838E+02</totfact>
</mgrwt>
</event>
<event>
 5    1  0.8459321E-003  0.1075741E+03  0.7546771E-02  0.1294069E+00
          2   -1    0    0  502    0  0.00000000000E+00  0.00000000000E+00  0.27277218769E+04  0.27277218769E+04  0.00000000000E+00 0. -1.
          1   -1    0    0  501    0 -0.00000000000E+00 -0.00000000000E+00 -0.11537020041E+04  0.11537020041E+04  0.00000000000E+00 0. -1.
         25    1    1    2    0    0 -0.60055464688E+01  0.10218390764E+03  0.68552833915E+03  0.70430939320E+03  0.12500000000E+03 0.  0.
          2    1    1    2  501    0  0.81321734582E+02 -0.70620182998E+02 -0.11409541145E+04  0.11460264946E+04  0.00000000000E+00 0. -1.
          1    1    1    2  502    0 -0.75316188113E+02 -0.31563724640E+02  0.20294456482E+04  0.20310879932E+04  0.00000000000E+00 0. -1.
<mgrwt>
<rscale>  0 0.93727225E+02</rscale>
<asrwt>0</asrwt>
<pdfrwt beam="1">  1        2 0.41964952E+00 0.81662702E+02</pdfrwt>
<pdfrwt beam="2">  1        1 0.17749262E+00 0.10757411E+03</pdfrwt>
<totfact> 0.64551815E+00</totfact>
</mgrwt>
</event>
<event>
 5    1  0.8459321E-003  0.1076012E+03  0.7546771E-02  0.1317630E+00
         -2   -1    0    0    0  501 -0.00000000000E+00  0.00000000000E+00  0.88020042942E+02  0.88020042942E+02  0.00000000000E+00 0.  1.
          2   -1    0    0  502    0  0.00000000000E+00 -0.00000000000E+00 -0.50971626501E+03  0.50971626501E+03  0.00000000000E+00 0. -1.
         25    1    1    2    0    0  0.42732394548E+02  0.59678728561E+02 -0.19051941793E+03  0.23939560730E+03  0.12500000000E+03 0.  0.
          1    1    1    2  502    0 -0.10594435081E+03 -0.78071806014E+02 -0.25610985806E+03  0.28794386911E+03  0.00000000000E+00 0. -1.
         -3    1    1    2    0  501  0.63211956263E+02  0.18393077453E+02  0.24933053923E+02  0.70396831539E+02  0.00000000000E+00 0.  1.
<mgrwt>
<rscale>  0 0.84165137E+02</rscale>
<asrwt>0</asrwt>
<pdfrwt beam="2">  1        2 0.78417888E-01 0.10760122E+03</pdfrwt>
<pdfrwt beam="1">  1       -2 0.13541545E-01 0.65833553E+02</pdfrwt>
<totfact> 0.23302693E+03</totfact>
</mgrwt>
</event>
<event>
 5    1  0.8459321E-003  0.7579568E+02  0.7546771E-02  0.1488904E+00
         -2   -1    0    0    0  501 -0.00000000000E+00  0.00000000000E+00  0.80880353016E+02  0.80880353016E+02  0.00000000000E+00 0.  1.
          2   -1    0    0  502    0  0.00000000000E+00 -0.00000000000E+00 -0.26434309083E+03  0.26434309083E+03  0.00000000000E+00 0. -1.
         25    1    1    2    0    0 -0.63599264261E+02  0.26828200339E+02 -0.43370099275E+02  0.14923332154E+03  0.12500000000E+03 0.  0.
          1    1    1    2  502    0  0.77189478897E+02 -0.69127087739E+01 -0.15084673080E+03  0.16958990945E+03  0.00000000000E+00 0. -1.
         -1    1    1    2    0  501 -0.13590214637E+02 -0.19915491565E+02  0.10754092262E+02  0.26400212850E+02  0.00000000000E+00 0.  1.
<mgrwt>
<rscale>  0 0.42749021E+02</rscale>
<asrwt>0</asrwt>
<pdfrwt beam="2">  1        2 0.40668168E-01 0.75795678E+02</pdfrwt>
<pdfrwt beam="1">  1       -2 0.12443131E-01 0.24110594E+02</pdfrwt>
<totfact> 0.49219038E+03</totfact>
</mgrwt>
</event>
<event>
 5    1  0.8459321E-003  0.1125972E+03  0.7546771E-02  0.1328127E+00
         -1   -1    0    0    0  501 -0.00000000000E+00  0.00000000000E+00  0.54444645905E+02  0.54444645905E+02  0.00000000000E+00 0.  1.
          1   -1    0    0  502    0  0.00000000000E+00 -0.00000000000E+00 -0.21555176691E+04  0.21555176691E+04  0.00000000000E+00 0. -1.
         25    1    1    2    0    0  0.38079232912E+02 -0.93543393244E+02 -0.25079117646E+03  0.29786172730E+03  0.12500000000E+03 0.  0.
          2    1    1    2  502    0 -0.90395312963E+02  0.70157421708E+02 -0.18512542441E+04  0.18547872258E+04  0.00000000000E+00 0. -1.
         -2    1    1    2    0  501  0.52316080051E+02  0.23385971535E+02  0.97239743469E+00  0.57313361909E+02  0.00000000000E+00 0.  1.
<mgrwt>
<rscale>  0 0.80326810E+02</rscale>
<asrwt>0</asrwt>
<pdfrwt beam="2">  1        1 0.33161816E+00 0.11259722E+03</pdfrwt>
<pdfrwt beam="1">  1       -1 0.83760979E-02 0.57305112E+02</pdfrwt>
<totfact> 0.21475233E+02</totfact>
</mgrwt>
</event>
<event>
 5    1  0.8459321E-003  0.9605591E+02  0.7546771E-02  0.1311157E+00
          2   -1    0    0  502    0  0.00000000000E+00  0.00000000000E+00  0.28447078384E+03  0.28447078384E+03  0.00000000000E+00 0. -1.
          1   -1    0    0  501    0 -0.00000000000E+00 -0.00000000000E+00 -0.12479674002E+04  0.12479674002E+04  0.00000000000E+00 0. -1.
         25    1    1    2    0    0  0.25207555801E+02  0.12014996933E+02 -0.32811043222E+03  0.35222327685E+03  0.12500000000E+03 0.  0.
          2    1    1    2  501    0  0.70184088328E+02 -0.34434511552E+02 -0.89723342635E+03  0.90063275712E+03  0.00000000000E+00 0. -1.
          1    1    1    2  502    0 -0.95391644128E+02  0.22419514618E+02  0.26184724219E+03  0.27958215009E+03  0.00000000000E+00 0. -1.
<mgrwt>
<rscale>  0 0.86656220E+02</rscale>
<asrwt>0</asrwt>
<pdfrwt beam="1">  1        2 0.43764736E-01 0.96055909E+02</pdfrwt>
<pdfrwt beam="2">  1        1 0.19199499E+00 0.78176351E+02</pdfrwt>
<totfact> 0.18383260E+02</totfact>
</mgrwt>
</event>
<event>
 5    1  0.8459321E-003  0.6952791E+02  0.7546771E-02  0.1483275E+00
         -2   -1    0    0    0  501 -0.00000000000E+00  0.00000000000E+00  0.10739723110E+03  0.10739723110E+03  0.00000000000E+00 0.  1.
          2   -1    0    0  502    0  0.00000000000E+00 -0.00000000000E+00 -0.51761767317E+03  0.51761767317E+03  0.00000000000E+00 0. -1.
         25    1    1    2    0    0  0.28154513308E+02 -0.43092481329E+02 -0.14060146529E+02  0.13591293642E+03  0.12500000000E+03 0.  0.
          1    1    1    2  502    0 -0.17517620754E+02  0.68279551196E+02 -0.43551453920E+03  0.44118236366E+03  0.00000000000E+00 0. -1.
         -1    1    1    2    0  501 -0.10636892554E+02 -0.25187069866E+02  0.39354243655E+02  0.47919604186E+02  0.00000000000E+00 0.  1.
<mgrwt>
<rscale>  0 0.43600054E+02</rscale>
<asrwt>0</asrwt>
<pdfrwt beam="2">  1        2 0.79633488E-01 0.69527910E+02</pdfrwt>
<pdfrwt beam="1">  1       -2 0.16522651E-01 0.27341031E+02</pdfrwt>
<totfact> 0.15868829E+03</totfact>
</mgrwt>
</event>
<event>
 5    1  0.8459321E-003  0.9759977E+02  0.7546771E-02  0.1328408E+00
          1   -1    0    0  501    0 -0.00000000000E+00  0.00000000000E+00  0.13685925039E+04  0.13685925039E+04  0.00000000000E+00 0. -1.
          2   -1    0    0  502    0  0.00000000000E+00 -0.00000000000E+00 -0.65053409310E+03  0.65053409310E+03  0.00000000000E+00 0. -1.
         25    1    1    2    0    0 -0.95563109274E+02 -0.76298640146E+02  0.64315355669E+03  0.66650227894E+03  0.12500000000E+03 0.  0.
          2    1    1    2  501    0  0.30968341986E+02  0.89583230643E+02  0.70889997355E+03  0.71520861706E+03  0.00000000000E+00 0. -1.
          1    1    1    2  502    0  0.64594767288E+02 -0.13284590496E+02 -0.63399511948E+03  0.63741570096E+03  0.00000000000E+00 0. -1.
<mgrwt>
<rscale>  0 0.80227058E+02</rscale>
<asrwt>0</asrwt>
<pdfrwt beam="2">  1        2 0.10008217E+00 0.65946678E+02</pdfrwt>
<pdfrwt beam="1">  1        1 0.21055269E+00 0.97599774E+02</pdfrwt>
<totfact> 0.62474554E+01</totfact>
</mgrwt>
</event>
<event>
 5    1  0.8459321E-003  0.1694225E+03  0.7546771E-02  0.1254450E+00
          2   -1    0    0  502    0  0.00000000000E+00  0.00000000000E+00  0.43111117233E+03  0.43111117233E+03  0.00000000000E+00 0. -1.
          1   -1    0    0  501    0 -0.00000000000E+00 -0.00000000000E+00 -0.27377465354E+04  0.27377465354E+04  0.00000000000E+00 0. -1.
         25    1    1    2    0    0  0.87675536577E+02 -0.19464903351E+03 -0.17550896002E+03  0.30332101973E+03  0.12500000000E+03 0.  0.
          2    1    1    2  501    0 -0.17001254072E+02  0.16707044238E+03 -0.24915562374E+04  0.24972092543E+04  0.00000000000E+00 0. -1.
          1    1    1    2  502    0 -0.70674282505E+02  0.27578591135E+02  0.36042983440E+03  0.36832743371E+03  0.00000000000E+00 0. -1.
<mgrwt>
<rscale>  0 0.11337182E+03</rscale>
<asrwt>0</asrwt>
<pdfrwt beam="1">  1        2 0.66324795E-01 0.75864569E+02</pdfrwt>
<pdfrwt beam="2">  1        1 0.42119178E+00 0.16942255E+03</pdfrwt>
<totfact> 0.11974184E+01</totfact>
</mgrwt>
</event>
<event>
 5    1  0.8459321E-003  0.5303919E+02  0.7546771E-02  0.1516260E+00
          1   -1    0    0  502    0  0.00000000000E+00  0.00000000000E+00  0.10448164638E+04  0.10448164638E+04  0.00000000000E+00 0. -1.
         -1   -1    0    0    0  501 -0.00000000000E+00 -0.00000000000E+00 -0.37537416069E+03  0.37537416069E+03  0.00000000000E+00 0.  1.
         25    1    1    2    0    0  0.36075736285E+02 -0.69075819855E+02 -0.45366330386E+02  0.15412991783E+03  0.12500000000E+03 0.  0.
          2    1    1    2  502    0 -0.21044713574E+02  0.19321856135E+02  0.98777606727E+03  0.98818913835E+03  0.00000000000E+00 0. -1.
         -2    1    1    2    0  501 -0.15031022712E+02  0.49753963720E+02 -0.27296743380E+03  0.27787156829E+03  0.00000000000E+00 0.  1.
<mgrwt>
<rscale>  0 0.38926869E+02</rscale>
<asrwt>0</asrwt>
<pdfrwt beam="1">  1        1 0.16074099E+00 0.28569461E+02</pdfrwt>
<pdfrwt beam="2">  1       -1 0.57749871E-01 0.53039194E+02</pdfrwt>
<totfact> 0.56092839E+01</totfact>
</mgrwt>
</event>
<event>
 5    1  0.8459321E-003  0.1331620E+03  0.7546771E-02  0.1431473E+00
          1   -1    0    0  501    0 -0.00000000000E+00  0.00000000000E+00  0.62519971627E+02  0.62519971627E+02  0.00000000000E+00 0. -1.
          2   -1    0    0  502    0  0.00000000000E+00 -0.00000000000E+00 -0.62526450051E+03  0.62526450051E+03  0.00000000000E+00 0. -1.
         25    1    1    2    0    0  0.12027698063E+03  0.33264296635E+02 -0.16958722099E+03  0.24486300461E+03  0.12500000000E+03 0.  0.
          2    1    1    2  501    0  0.46589324325E+01  0.20301460463E+02  0.56514813231E+01  0.21582265625E+02  0.00000000000E+00 0. -1.
          1    1    1    2  502    0 -0.12493591307E+03 -0.53565757098E+02 -0.39880878921E+03  0.42133920190E+03  0.00000000000E+00 0. -1.
<mgrwt>
<rscale>  0 0.52665508E+02</rscale>
<asrwt>0</asrwt>
<pdfrwt beam="2">  1        2 0.96194533E-01 0.13316199E+03</pdfrwt>
<pdfrwt beam="1">  1        1 0.96184577E-02 0.20829185E+02</pdfrwt>
<totfact> 0.37195673E+03</totfact>
</mgrwt>
</event>
<event>
 5    1  0.8459321E-003  0.4748013E+02  0.7546771E-02  0.1533403E+00
          2   -1    0    0  502    0  0.00000000000E+00  0.00000000000E+00  0.98702557552E+03  0.98702557552E+03  0.00000000000E+00 0. -1.
          1   -1    0    0  501    0 -0.00000000000E+00 -0.00000000000E+00 -0.21318806653E+03  0.21318806653E+03  0.00000000000E+00 0. -1.
         25    1    1    2    0    0 -0.37976938845E+01 -0.75342471758E+02  0.10549714462E+03  0.18012650569E+03  0.12500000000E+03 0.  0.
          2    1    1    2  501    0  0.38638932958E+00  0.28476596985E+02 -0.17406139171E+03  0.17637583156E+03  0.00000000000E+00 0. -1.
          1    1    1    2  502    0  0.34113045549E+01  0.46865874773E+02  0.84240175607E+03  0.84371130480E+03  0.00000000000E+00 0. -1.
<mgrwt>
<rscale>  0 0.36772232E+02</rscale>
<asrwt>0</asrwt>
<pdfrwt beam="1">  1        2 0.15185009E+00 0.47480132E+02</pdfrwt>
<pdfrwt beam="2">  1        1 0.32798165E-01 0.28479218E+02</pdfrwt>
<totfact> 0.51804189E+02</totfact>
</mgrwt>
</event>
<event>
 5    1  0.8459321E-003  0.3035038E+03  0.7546771E-02  0.1141372E+00
          2   -1    0    0  502    0  0.00000000000E+00  0.00000000000E+00  0.25993164930E+04  0.25993164930E+04  0.00000000000E+00 0. -1.
          1   -1    0    0  501    0 -0.00000000000E+00 -0.00000000000E+00 -0.42416356759E+03  0.42416356759E+03  0.00000000000E+00 0. -1.
         25    1    1    2    0    0 -0.54884211401E+02 -0.15847548349E+03  0.81979799354E+03  0.84606176237E+03  0.12500000000E+03 0.  0.
          2    1    1    2  501    0  0.10688825486E+03  0.29451676659E+03 -0.34776219300E+03  0.46808521416E+03  0.00000000000E+00 0. -1.
          1    1    1    2  502    0 -0.52004043462E+02 -0.13604128310E+03  0.17031171249E+04  0.17093330841E+04  0.00000000000E+00 0. -1.
<mgrwt>
<rscale>  0 0.21024502E+03</rscale>
<asrwt>0</asrwt>
<pdfrwt beam="1">  1        2 0.39989484E+00 0.14564220E+03</pdfrwt>
<pdfrwt beam="2">  1        1 0.65255935E-01 0.30350383E+03</pdfrwt>
<totfact> 0.29467157E+01</totfact>
</mgrwt>
</event>
<event>
 5    1  0.8459321E-003  0.1385651E+03  0.7546771E-02  0.1288553E+00
          2   -1    0    0  502    0  0.00000000000E+00  0.00000000000E+00  0.19669862803E+03  0.19669862803E+03  0.00000000000E+00 0. -1.
          1   -1    0    0  501    0 -0.00000000000E+00 -0.00000000000E+00 -0.87731876706E+03  0.87731876706E+03  0.00000000000E+00 0. -1.
         25    1    1    2    0    0  0.16881007305E+02 -0.13027112582E+03 -0.11931689390E+03  0.21706463508E+03  0.12500000000E+03 0.  0.
          2    1    1    2  501    0 -0.81971908824E+02  0.11547298947E+03 -0.69405980954E+03  0.70835896574E+03  0.00000000000E+00 0. -1.
          1    1    1    2  502    0  0.65090901519E+02  0.14798136352E+02  0.13275656441E+03  0.14859379427E+03  0.00000000000E+00 0. -1.
<mgrwt>
<rscale>  0 0.96174191E+02</rscale>
<asrwt>0</asrwt>
<pdfrwt beam="1">  1        2 0.30261327E-01 0.66751856E+02</pdfrwt>
<pdfrwt beam="2">  1        1 0.13497212E+00 0.13856506E+03</pdfrwt>
<totfact> 0.47491180E+02</totfact>
</mgrwt>
</event>
<event>
 5    1  0.8459321E-003  0.6813093E+02  0.7546771E-02  0.1464274E+00
          2   -1    0    0  502    0  0.00000000000E+00  0.00000000000E+00  0.97701435742E+03  0.97701435742E+03  0.00000000000E+00 0. -1.
          1   -1    0    0  501    0 -0.00000000000E+00 -0.00000000000E+00 -0.11441249530E+03  0.11441249530E+03  0.00000000000E+00 0. -1.
         25    1    1    2    0    0  0.21115810426E+02  0.65801032140E+02  0.30537008180E+03  0.33712244087E+03  0.12500000000E+03 0.  0.
          2    1    1    2  501    0 -0.31875572734E+02  0.21348409898E+01 -0.94087494833E+02  0.99363304933E+02  0.00000000000E+00 0. -1.
          1    1    1    2  502    0  0.10759762308E+02 -0.67935873130E+02  0.65131927516E+03  0.65494110692E+03  0.00000000000E+00 0. -1.
<mgrwt>
<rscale>  0 0.46653807E+02</rscale>
<asrwt>0</asrwt>
<pdfrwt beam="1">  1        2 0.15030990E+00 0.68130934E+02</pdfrwt>
<pdfrwt beam="2">  1        1 0.17601923E-01 0.31946982E+02</pdfrwt>
<totfact> 0.10878723E+03</totfact>
</mgrwt>
</event>
<event>
 5    1  0.8459321E-003  0.2113047E+03  0.7546771E-02  0.1217639E+00
          1   -1    0    0  501    0 -0.00000000000E+00  0.00000000000E+00  0.42390978474E+03  0.42390978474E+03  0.00000000000E+00 0. -1.
          2   -1    0    0  502    0  0.00000000000E+00 -0.00000000000E+00 -0.19302162546E+03  0.19302162546E+03  0.00000000000E+00 0. -1.
         25    1    1    2    0    0  0.88867099368E+02  0.16062933371E+03  0.55024869962E+02  0.22880533323E+03  0.12500000000E+03 0.  0.
          2    1    1    2  501    0 -0.35704487526E+02 -0.23153652985E+03  0.18571766388E+03  0.29895656166E+03  0.00000000000E+00 0. -1.
          1    1    1    2  502    0 -0.53162611843E+02  0.70907196135E+02 -0.98543745626E+01  0.89169515305E+02  0.00000000000E+00 0. -1.
<mgrwt>
<rscale>  0 0.13684490E+03</rscale>
<asrwt>0</asrwt>
<pdfrwt beam="2">  1        2 0.29695635E-01 0.88623325E+02</pdfrwt>
<pdfrwt beam="1">  1        1 0.65216890E-01 0.21130470E+03</pdfrwt>
<totfact> 0.13278926E+03</totfact>
</mgrwt>
</event>
<event>
 5    1  0.8459321E-003  0.3283284E+03  0.7546771E-02  0.1252550E+00
          1   -1    0    0  502    0  0.00000000000E+00  0.00000000000E+00  0.10238730545E+04  0.10238730545E+04  0.00000000000E+00 0. -1.
         -1   -1    0    0    0  501 -0.00000000000E+00 -0.00000000000E+00 -0.20685858416E+03  0.20685858416E+03  0.00000000000E+00 0.  1.
         25    1    1    2    0    0 -0.35391130063E+03 -0.39413091147E+02  0.40255701136E+03  0.55180046019E+03  0.12500000000E+03 0.  0.
          2    1    1    2  502    0  0.39694754056E+02 -0.39731189810E+01  0.35373024316E+03  0.35597267325E+03  0.00000000000E+00 0. -1.
         -2    1    1    2    0  501  0.31421654657E+03  0.43386210128E+02  0.60727215859E+02  0.32295850525E+03  0.00000000000E+00 0.  1.
<mgrwt>
<rscale>  0 0.11444666E+03</rscale>
<asrwt>0</asrwt>
<pdfrwt beam="1">  1        1 0.15751893E+00 0.39893097E+02</pdfrwt>
<pdfrwt beam="2">  1       -1 0.31824398E-01 0.32832843E+03</pdfrwt>
<totfact> 0.16257748E+02</totfact>
</mgrwt>
</event>
<event>
 5    1  0.8459321E-003  0.1148347E+03  0.7546771E-02  0.1360964E+00
          1   -1    0    0  501    0 -0.00000000000E+00  0.00000000000E+00  0.11263127812E+04  0.11263127812E+04  0.00000000000E+00 0. -1.
          2   -1    0    0  502    0  0.00000000000E+00 -0.00000000000E+00 -0.25796674800E+03  0.25796674800E+03  0.00000000000E+00 0. -1.
         25    1    1    2    0    0 -0.60472568509E+02 -0.90935397723E+02 -0.31799261090E+02  0.16900405648E+03  0.12500000000E+03 0.  0.
          2    1    1    2  501    0  0.34445678309E+02 -0.24653588195E+02  0.10349420477E+04  0.10358085471E+04  0.00000000000E+00 0. -1.
          1    1    1    2  502    0  0.26026890200E+02  0.11558898592E+03 -0.13479675338E+03  0.17946692564E+03  0.00000000000E+00 0. -1.
<mgrwt>
<rscale>  0 0.69744614E+02</rscale>
<asrwt>0</asrwt>
<pdfrwt beam="2">  1        2 0.39687193E-01 0.11483475E+03</pdfrwt>
<pdfrwt beam="1">  1        1 0.17327889E+00 0.42359228E+02</pdfrwt>
<totfact> 0.25815976E+02</totfact>
</mgrwt>
</event>
<event>
 5    1  0.8459321E-003  0.7355774E+02  0.7546771E-02  0.1472380E+00
          2   -1    0    0  502    0  0.00000000000E+00  0.00000000000E+00  0.19879752087E+03  0.19879752087E+03  0.00000000000E+00 0. -1.
          1   -1    0    0  501    0 -0.00000000000E+00 -0.00000000000E+00 -0.12452231134E+04  0.12452231134E+04  0.00000000000E+00 0. -1.
         25    1    1    2    0    0 -0.12189355923E+02  0.98350360312E+02 -0.16960416439E+03  0.23283459010E+03  0.12500000000E+03 0.  0.
          2    1    1    2  501    0 -0.40693837701E+01 -0.27618902616E+02 -0.10359302579E+04  0.10363063557E+04  0.00000000000E+00 0. -1.
          1    1    1    2  502    0  0.16258739693E+02 -0.70731457696E+02  0.15910882976E+03  0.17487968845E+03  0.00000000000E+00 0. -1.
<mgrwt>
<rscale>  0 0.45315754E+02</rscale>
<asrwt>0</asrwt>
<pdfrwt beam="1">  1        2 0.30584234E-01 0.73557736E+02</pdfrwt>
<pdfrwt beam="2">  1        1 0.19157279E+00 0.27917086E+02</pdfrwt>
<totfact> 0.29308399E+02</totfact>
</mgrwt>
</event>
<event>
 5    1  0.8459321E-003  0.7536240E+02  0.7546771E-02  0.1407128E+00
          2   -1    0    0  502    0  0.00000000000E+00  0.00000000000E+00  0.13808933634E+03  0.13808933634E+03  0.00000000000E+00 0. -1.
          1   -1    0    0  501    0 -0.00000000000E+00 -0.00000000000E+00 -0.15869989341E+04  0.15869989341E+04  0.00000000000E+00 0. -1.
         25    1    1    2    0    0  0.11226804228E+02  0.97506491371E+02 -0.32134804745E+03  0.35850121979E+03  0.12500000000E+03 0.  0.
          2    1    1    2  501    0  0.28508575185E+02 -0.34027201829E+02 -0.12349041584E+04  0.12357017722E+04  0.00000000000E+00 0. -1.
          1    1    1    2  502    0 -0.39735379414E+02 -0.63479289542E+02  0.10734260815E+03  0.13088527840E+03  0.00000000000E+00 0. -1.
<mgrwt>
<rscale>  0 0.57839747E+02</rscale>
<asrwt>0</asrwt>
<pdfrwt beam="1">  1        2 0.21244513E-01 0.75362397E+02</pdfrwt>
<pdfrwt beam="2">  1        1 0.24415369E+00 0.44391320E+02</pdfrwt>
<totfact> 0.25474429E+02</totfact>
</mgrwt>
</event>
<event>
 5    1  0.8459321E-003  0.6778977E+02  0.7546771E-02  0.1403284E+00
         -2   -1    0    0    0  501 -0.00000000000E+00  0.00000000000E+00  0.10089293337E+03  0.10089293337E+03  0.00000000000E+00 0.  1.
          2   -1    0    0  502    0  0.00000000000E+00 -0.00000000000E+00 -0.22623872265E+04  0.22623872265E+04  0.00000000000E+00 0. -1.
         25    1    1    2    0    0 -0.19747689841E+02 -0.36622477055E+02 -0.14045964033E+04  0.14107612248E+04  0.12500000000E+03 0.  0.
          1    1    1    2  502    0  0.42794354923E+02 -0.27490117383E+02 -0.84198345824E+03  0.84351835031E+03  0.00000000000E+00 0. -1.
         -1    1    1    2    0  501 -0.23046665083E+02  0.64112594439E+02  0.85085568414E+02  0.10900058481E+03  0.00000000000E+00 0.  1.
<mgrwt>
<rscale>  0 0.58719701E+02</rscale>
<asrwt>0</asrwt>
<pdfrwt beam="2">  1        2 0.34805956E+00 0.50863183E+02</pdfrwt>
<pdfrwt beam="1">  1       -2 0.15521990E-01 0.67789766E+02</pdfrwt>
<totfact> 0.20168088E+02</totfact>
</mgrwt>
</event>
<event>
 5    1  0.8459321E-003  0.1019131E+03  0.7546771E-02  0.1392753E+00
          2   -1    0    0  502    0  0.00000000000E+00  0.00000000000E+00  0.19858915543E+04  0.19858915543E+04  0.00000000000E+00 0. -1.
         -2   -1    0    0    0  501 -0.00000000000E+00 -0.00000000000E+00 -0.17146130664E+03  0.17146130664E+03  0.00000000000E+00 0.  1.
         25    1    1    2    0    0 -0.33532238928E+02  0.10981677471E+03  0.13702867834E+04  0.13807588507E+04  0.12500000000E+03 0.  0.
          1    1    1    2  502    0  0.35900715212E+02 -0.80127299447E+01  0.59415059268E+03  0.59528815877E+03  0.00000000000E+00 0. -1.
         -1    1    1    2    0  501 -0.23684762841E+01 -0.10180404477E+03 -0.15000712839E+03  0.18130585148E+03  0.00000000000E+00 0.  1.
<mgrwt>
<rscale>  0 0.61227246E+02</rscale>
<asrwt>0</asrwt>
<pdfrwt beam="1">  1        2 0.30552176E+00 0.36784034E+02</pdfrwt>
<pdfrwt beam="2">  1       -2 0.26378664E-01 0.10191312E+03</pdfrwt>
<totfact> 0.11983250E+02</totfact>
</mgrwt>
</event>
<event>
 5    1  0.8459321E-003  0.3431276E+02  0.7546771E-02  0.1592793E+00
          2   -1    0    0  502    0  0.00000000000E+00  0.00000000000E+00  0.67459814673E+03  0.67459814673E+03  0.00000000000E+00 0. -1.
          1   -1    0    0  501    0 -0.00000000000E+00 -0.00000000000E+00 -0.13381582828E+04  0.13381582828E+04  0.00000000000E+00 0. -1.
         25    1    1    2    0    0 -0.64106302330E+01  0.32082141750E+02  0.48416095725E+02  0.13798361615E+03  0.12500000000E+03 0.  0.
          2    1    1    2  501    0  0.26744500155E+02 -0.42723249836E+01 -0.12927222139E+04  0.12930058946E+04  0.00000000000E+00 0. -1.
          1    1    1    2  502    0 -0.20333869922E+02 -0.27809816766E+02  0.58074598208E+03  0.58176691885E+03  0.00000000000E+00 0. -1.
<mgrwt>
<rscale>  0 0.30484634E+02</rscale>
<asrwt>0</asrwt>
<pdfrwt beam="1">  1        2 0.10378433E+00 0.34312762E+02</pdfrwt>
<pdfrwt beam="2">  1        1 0.20587050E+00 0.27083594E+02</pdfrwt>
<totfact> 0.71976835E+01</totfact>
</mgrwt>
</event>
<event>
 5    1  0.8459321E-003  0.2015831E+03  0.7546771E-02  0.1328530E+00
          1   -1    0    0  501    0 -0.00000000000E+00  0.00000000000E+00  0.11691534827E+04  0.11691534827E+04  0.00000000000E+00 0. -1.
          2   -1    0    0  502    0  0.00000000000E+00 -0.00000000000E+00 -0.12632100602E+04  0.12632100602E+04  0.00000000000E+00 0. -1.
         25    1    1    2    0    0  0.16299035242E+03 -0.13990147553E+03  0.20122424011E+03  0.31977253266E+03  0.12500000000E+03 0.  0.
          2    1    1    2  501    0 -0.16746491852E+03  0.10832188721E+03  0.89749511428E+03  0.91938871558E+03  0.00000000000E+00 0. -1.
          1    1    1    2  502    0  0.44745660972E+01  0.31579588320E+02 -0.11927759320E+04  0.11932022947E+04  0.00000000000E+00 0. -1.
<mgrwt>
<rscale>  0 0.80184145E+02</rscale>
<asrwt>0</asrwt>
<pdfrwt beam="2">  1        2 0.19434001E+00 0.31895017E+02</pdfrwt>
<pdfrwt beam="1">  1        1 0.17986977E+00 0.20158312E+03</pdfrwt>
<totfact> 0.36088178E+01</totfact>
</mgrwt>
</event>
<event>
 5    1  0.8459321E-003  0.8618430E+02  0.7546771E-02  0.1373020E+00
         -1   -1    0    0    0  502 -0.00000000000E+00  0.00000000000E+00  0.24480066255E+04  0.24480066255E+04  0.00000000000E+00 0.  1.
         -2   -1    0    0    0  501  0.00000000000E+00 -0.00000000000E+00 -0.24830401731E+02  0.24830401731E+02  0.00000000000E+00 0.  1.
         25    1    1    2    0    0  0.40729226294E+02  0.19815698261E+02  0.10555774845E+04  0.10639174580E+04  0.12500000000E+03 0.  0.
         -2    1    1    2    0  502  0.49392439288E+02 -0.12929396464E+02  0.12864164328E+04  0.12874292295E+04  0.00000000000E+00 0.  1.
         -1    1    1    2    0  501 -0.90121665583E+02 -0.68863017967E+01  0.81182306533E+02  0.12149033976E+03  0.00000000000E+00 0.  1.
<mgrwt>
<rscale>  0 0.66334624E+02</rscale>
<asrwt>0</asrwt>
<pdfrwt beam="2">  1       -2 0.38200637E-02 0.86184301E+02</pdfrwt>
<pdfrwt beam="1">  1       -1 0.37661622E+00 0.51056658E+02</pdfrwt>
<totfact> 0.31640495E+01</totfact>
</mgrwt>
</event>
<event>
 5    1  0.8459321E-003  0.1589248E+03  0.7546771E-02  0.1286621E+00
          1   -1    0    0  501    0 -0.00000000000E+00  0.00000000000E+00  0.56104673728E+03  0.56104673728E+03  0.00000000000E+00 0. -1.
          2   -1    0    0  502    0  0.00000000000E+00 -0.00000000000E+00 -0.37398196753E+04  0.37398196753E+04  0.00000000000E+00 0. -1.
         25    1    1    2    0    0  0.19667108469E+03 -0.70482505442E+02  0.10434329349E+03  0.26487699414E+03  0.12500000000E+03 0.  0.
          2    1    1    2  501    0 -0.14102802970E+03  0.50076094369E+02  0.36131209583E+03  0.39107921318E+03  0.00000000000E+00 0. -1.
          3    1    1    2  502    0 -0.55643054989E+02  0.20406411073E+02 -0.36444283274E+04  0.36449102053E+04  0.00000000000E+00 0. -1.
<mgrwt>
<rscale>  0 0.97051478E+02</rscale>
<asrwt>0</asrwt>
<pdfrwt beam="2">  1        2 0.57535686E+00 0.59266948E+02</pdfrwt>
<pdfrwt beam="1">  1        1 0.86314885E-01 0.15892482E+03</pdfrwt>
<totfact> 0.50563924E+00</totfact>
</mgrwt>
</event>
<event>
 5    1  0.8459321E-003  0.1198778E+03  0.7546771E-02  0.1272508E+00
          3   -1    0    0  501    0 -0.00000000000E+00  0.00000000000E+00  0.34538108691E+03  0.34538108691E+03  0.00000000000E+00 0. -1.
          2   -1    0    0  502    0  0.00000000000E+00 -0.00000000000E+00 -0.38689846379E+03  0.38689846379E+03  0.00000000000E+00 0. -1.
         25    1    1    2    0    0  0.42982073154E+02  0.83622891642E+02  0.64577311182E+02  0.16922019897E+03  0.12500000000E+03 0.  0.
          2    1    1    2  501    0 -0.12731271771E+03 -0.52548552446E+02  0.20067624857E+03  0.24339440256E+03  0.00000000000E+00 0. -1.
          1    1    1    2  502    0  0.84330644557E+02 -0.31074339196E+02 -0.30677093663E+03  0.31966494917E+03  0.00000000000E+00 0. -1.
<mgrwt>
<rscale>  0 0.10379719E+03</rscale>
<asrwt>0</asrwt>
<pdfrwt beam="2">  1        2 0.59522841E-01 0.89873646E+02</pdfrwt>
<pdfrwt beam="1">  1        3 0.53135552E-01 0.11987783E+03</pdfrwt>
<totfact> 0.17743868E+02</totfact>
</mgrwt>
</event>
<event>
 5    1  0.8459321E-003  0.3314554E+02  0.7546771E-02  0.1578446E+00
          1   -1    0    0  501    0 -0.00000000000E+00  0.00000000000E+00  0.14250984751E+02  0.14250984751E+02  0.00000000000E+00 0. -1.
          2   -1    0    0  502    0  0.00000000000E+00 -0.00000000000E+00 -0.12808086525E+04  0.12808086525E+04  0.00000000000E+00 0. -1.
         25    1    1    2    0    0 -0.12098377096E+02  0.53509696187E+02 -0.45304087179E+03  0.47316032149E+03  0.12500000000E+03 0.  0.
          2    1    1    2  501    0 -0.74853181517E+01 -0.29978354203E+02 -0.57612425494E+02  0.65375249750E+02  0.00000000000E+00 0. -1.
          1    1    1    2  502    0  0.19583695248E+02 -0.23531341984E+02 -0.75590437049E+03  0.75652406605E+03  0.00000000000E+00 0. -1.
<mgrwt>
<rscale>  0 0.31854871E+02</rscale>
<asrwt>0</asrwt>
<pdfrwt beam="2">  1        2 0.19704749E+00 0.30614460E+02</pdfrwt>
<pdfrwt beam="1">  1        1 0.21924591E-02 0.33145540E+02</pdfrwt>
<totfact> 0.11467103E+04</totfact>
</mgrwt>
</event>
<event>
 5    1  0.8459321E-003  0.9626350E+02  0.7546771E-02  0.1289879E+00
         -1   -1    0    0    0  501 -0.00000000000E+00  0.00000000000E+00  0.27679283567E+03  0.27679283567E+03  0.00000000000E+00 0.  1.
          1   -1    0    0  502    0  0.00000000000E+00 -0.00000000000E+00 -0.17714293515E+04  0.17714293515E+04  0.00000000000E+00 0. -1.
         25    1    1    2    0    0  0.72042296755E+02  0.65959901341E+02 -0.33134427050E+02  0.16206076441E+03  0.12500000000E+03 0.  0.
          2    1    1    2  502    0  0.18130866133E+02 -0.95530905013E+02 -0.16617357047E+04  0.16645781551E+04  0.00000000000E+00 0. -1.
         -2    1    1    2    0  501 -0.90173162888E+02  0.29571003672E+02  0.20023361593E+03  0.22158326767E+03  0.00000000000E+00 0.  1.
<mgrwt>
<rscale>  0 0.95578345E+02</rscale>
<asrwt>0</asrwt>
<pdfrwt beam="2">  1        1 0.27252758E+00 0.96263497E+02</pdfrwt>
<pdfrwt beam="1">  1       -1 0.42583515E-01 0.94898069E+02</pdfrwt>
<totfact> 0.29668464E+01</totfact>
</mgrwt>
</event>
<event>
 5    1  0.8459321E-003  0.3678666E+02  0.7546771E-02  0.1605612E+00
          2   -1    0    0  502    0  0.00000000000E+00  0.00000000000E+00  0.81289947123E+01  0.81289947123E+01  0.00000000000E+00 0. -1.
          1   -1    0    0  501    0 -0.00000000000E+00 -0.00000000000E+00 -0.16202166046E+04  0.16202166046E+04  0.00000000000E+00 0. -1.
         25    1    1    2    0    0  0.46087731368E+02 -0.34633388714E+02 -0.12531913023E+04  0.12607287538E+04  0.12500000000E+03 0.  0.
          2    1    1    2  501    0 -0.21605932982E+02  0.89473081496E+01 -0.28154813189E+03  0.28251764765E+03  0.00000000000E+00 0. -1.
          1    1    1    2  502    0 -0.24481798386E+02  0.25686080565E+02 -0.77348175740E+02  0.85099197865E+02  0.00000000000E+00 0. -1.
<mgrwt>
<rscale>  0 0.29330289E+02</rscale>
<asrwt>0</asrwt>
<pdfrwt beam="1">  1        2 0.12506151E-02 0.36786661E+02</pdfrwt>
<pdfrwt beam="2">  1        1 0.24926398E+00 0.23385266E+02</pdfrwt>
<totfact> 0.82413142E+03</totfact>
</mgrwt>
</event>
<event>
 5    1  0.8459321E-003  0.5837292E+02  0.7546771E-02  0.1440083E+00
          2   -1    0    0  502    0  0.00000000000E+00  0.00000000000E+00  0.13401102520E+03  0.13401102520E+03  0.00000000000E+00 0. -1.
          1   -1    0    0  501    0 -0.00000000000E+00 -0.00000000000E+00 -0.39491658142E+03  0.39491658142E+03  0.00000000000E+00 0. -1.
         25    1    1    2    0    0 -0.88468549541E+02  0.38245111551E+02 -0.83841966119E+02  0.17872841995E+03  0.12500000000E+03 0.  0.
          2    1    1    2  501    0  0.44069294707E+02 -0.34735709794E+02 -0.25463870128E+03  0.26074804019E+03  0.00000000000E+00 0. -1.
          1    1    1    2  502    0  0.44399254834E+02 -0.35094017576E+01  0.77575111189E+02  0.89451146480E+02  0.00000000000E+00 0. -1.
<mgrwt>
<rscale>  0 0.50988208E+02</rscale>
<asrwt>0</asrwt>
<pdfrwt beam="1">  1        2 0.20617081E-01 0.44537734E+02</pdfrwt>
<pdfrwt beam="2">  1        1 0.60756397E-01 0.58372916E+02</pdfrwt>
<totfact> 0.21372238E+03</totfact>
</mgrwt>
</event>
<event>
 5    1  0.8459321E-003  0.7143413E+02  0.7546771E-02  0.1384589E+00
          2   -1    0    0  502    0  0.00000000000E+00  0.00000000000E+00  0.54849769121E+02  0.54849769121E+02  0.00000000000E+00 0. -1.
          1   -1    0    0  501    0 -0.00000000000E+00 -0.00000000000E+00 -0.80770577964E+03  0.80770577964E+03  0.00000000000E+00 0. -1.
         25    1    1    2    0    0 -0.11010768354E+02  0.91076008737E+02 -0.35160372357E+03  0.38427367177E+03  0.12500000000E+03 0.  0.
          2    1    1    2  501    0 -0.36071882281E+02 -0.60676558340E+02 -0.41468561032E+03  0.42065066365E+03  0.00000000000E+00 0. -1.
          1    1    1    2  502    0  0.47082650635E+02 -0.30399450397E+02  0.13433323365E+02  0.57631213348E+02  0.00000000000E+00 0. -1.
<mgrwt>
<rscale>  0 0.63272719E+02</rscale>
<asrwt>0</asrwt>
<pdfrwt beam="1">  1        2 0.84384268E-02 0.56043756E+02</pdfrwt>
<pdfrwt beam="2">  1        1 0.12426242E+00 0.71434130E+02</pdfrwt>
<totfact> 0.23492634E+03</totfact>
</mgrwt>
</event>
<event>
 5    1  0.8459321E-003  0.3067192E+03  0.7546771E-02  0.1260250E+00
          1   -1    0    0  501    0 -0.00000000000E+00  0.00000000000E+00  0.14361148397E+04  0.14361148397E+04  0.00000000000E+00 0. -1.
          2   -1    0    0  502    0  0.00000000000E+00 -0.00000000000E+00 -0.22167086637E+04  0.22167086637E+04  0.00000000000E+00 0. -1.
         25    1    1    2    0    0 -0.10345862653E+03 -0.32369642021E+03 -0.18301820378E+03  0.40571384346E+03  0.12500000000E+03 0.  0.
          2    1    1    2  501    0 -0.22231393714E+01  0.39511395422E+02  0.13125114976E+04  0.13131079636E+04  0.00000000000E+00 0. -1.
          1    1    1    2  502    0  0.10568176591E+03  0.28418502479E+03 -0.19100871178E+04  0.19340016963E+04  0.00000000000E+00 0. -1.
<mgrwt>
<rscale>  0 0.11017292E+03</rscale>
<asrwt>0</asrwt>
<pdfrwt beam="2">  1        2 0.34103210E+00 0.30671919E+03</pdfrwt>
<pdfrwt beam="1">  1        1 0.22094075E+00 0.39573889E+02</pdfrwt>
<totfact> 0.73296368E+00</totfact>
</mgrwt>
</event>
<event>
 5    1  0.8459321E-003  0.3469879E+02  0.7546771E-02  0.1553922E+00
          2   -1    0    0  502    0  0.00000000000E+00  0.00000000000E+00  0.12099160029E+03  0.12099160029E+03  0.00000000000E+00 0. -1.
          1   -1    0    0  501    0 -0.00000000000E+00 -0.00000000000E+00 -0.19219395660E+04  0.19219395660E+04  0.00000000000E+00 0. -1.
         25    1    1    2    0    0  0.41897843504E+02  0.45228648220E+02 -0.19644652639E+03  0.24086780117E+03  0.12500000000E+03 0.  0.
          2    1    1    2  501    0 -0.32184561046E+02 -0.12520990372E+02 -0.17001555487E+04  0.17005062513E+04  0.00000000000E+00 0. -1.
          1    1    1    2  502    0 -0.97132824581E+01 -0.32707657847E+02  0.95654109313E+02  0.10155711382E+03  0.00000000000E+00 0. -1.
<mgrwt>
<rscale>  0 0.34407914E+02</rscale>
<asrwt>0</asrwt>
<pdfrwt beam="1">  1        2 0.18614094E-01 0.34119477E+02</pdfrwt>
<pdfrwt beam="2">  1        1 0.29568298E+00 0.34698788E+02</pdfrwt>
<totfact> 0.18334065E+02</totfact>
</mgrwt>
</event>
<event>
 5    1  0.8459321E-003  0.2799619E+02  0.7546771E-02  0.1653842E+00
          2   -1    0    0  502    0  0.00000000000E+00  0.00000000000E+00  0.44166872908E+03  0.44166872908E+03  0.00000000000E+00 0. -1.
          1   -1    0    0  501    0 -0.00000000000E+00 -0.00000000000E+00 -0.41811529719E+03  0.41811529719E+03  0.00000000000E+00 0. -1.
         25    1    1    2    0    0  0.28259804840E+02  0.41812689854E+02 -0.20485804917E+02  0.13635096555E+03  0.12500000000E+03 0.  0.
          2    1    1    2  501    0 -0.18498080036E+02 -0.20725640298E+02 -0.33877606983E+03  0.33991316041E+03  0.00000000000E+00 0. -1.
          1    1    1    2  502    0 -0.97617248043E+01 -0.21087049556E+02  0.38281530664E+03  0.38351990030E+03  0.00000000000E+00 0. -1.
<mgrwt>
<rscale>  0 0.25505795E+02</rscale>
<asrwt>0</asrwt>
<pdfrwt beam="1">  1        2 0.67949035E-01 0.23236930E+02</pdfrwt>
<pdfrwt beam="2">  1        1 0.64325430E-01 0.27996192E+02</pdfrwt>
<totfact> 0.58558847E+02</totfact>
</mgrwt>
</event>
<event>
 5    1  0.8459321E-003  0.7866332E+02  0.7546771E-02  0.1399583E+00
         -2   -1    0    0    0  501 -0.00000000000E+00  0.00000000000E+00  0.45692343623E+03  0.45692343623E+03  0.00000000000E+00 0.  1.
          2   -1    0    0  502    0  0.00000000000E+00 -0.00000000000E+00 -0.42728838753E+02  0.42728838753E+02  0.00000000000E+00 0. -1.
         25    1    1    2    0    0  0.10345938886E+02 -0.85813896249E+02  0.19271715466E+03  0.24543016306E+03  0.12500000000E+03 0.  0.
          1    1    1    2  502    0 -0.48546040429E+02  0.61777473319E+02  0.12389344226E+03  0.14670637098E+03  0.00000000000E+00 0. -1.
         -1    1    1    2    0  501  0.38200101543E+02  0.24036422930E+02  0.97584000558E+02  0.10751574094E+03  0.00000000000E+00 0.  1.
<mgrwt>
<rscale>  0 0.59584564E+02</rscale>
<asrwt>0</asrwt>
<pdfrwt beam="2">  1        2 0.65736678E-02 0.78663324E+02</pdfrwt>
<pdfrwt beam="1">  1       -2 0.70295910E-01 0.45133107E+02</pdfrwt>
<totfact> 0.19358404E+03</totfact>
</mgrwt>
</event>
<event>
 5    1  0.8459321E-003  0.8306003E+02  0.7546771E-02  0.1371330E+00
          2   -1    0    0  502    0  0.00000000000E+00  0.00000000000E+00  0.13399995829E+04  0.13399995829E+04  0.00000000000E+00 0. -1.
          1   -1    0    0  501    0 -0.00000000000E+00 -0.00000000000E+00 -0.84232691034E+02  0.84232691034E+02  0.00000000000E+00 0. -1.
         25    1    1    2    0    0  0.32169834068E+02 -0.49384354615E+01  0.71442325997E+03  0.72600611620E+03  0.12500000000E+03 0.  0.
          2    1    1    2  501    0 -0.84361603778E+02 -0.77887116785E+01 -0.53998063022E+02  0.10046559128E+03  0.00000000000E+00 0. -1.
          1    1    1    2  502    0  0.52191769710E+02  0.12727147140E+02  0.59534169491E+03  0.59776056645E+03  0.00000000000E+00 0. -1.
<mgrwt>
<rscale>  0 0.66798800E+02</rscale>
<asrwt>0</asrwt>
<pdfrwt beam="1">  1        2 0.20615377E+00 0.53721142E+02</pdfrwt>
<pdfrwt beam="2">  1        1 0.12958876E-01 0.83060031E+02</pdfrwt>
<totfact> 0.10873862E+03</totfact>
</mgrwt>
</event>
<event>
 5    1  0.8459321E-003  0.7405717E+02  0.7546771E-02  0.1405226E+00
          1   -1    0    0  502    0  0.00000000000E+00  0.00000000000E+00  0.73093422432E+03  0.73093422432E+03  0.00000000000E+00 0. -1.
         -1   -1    0    0    0  501 -0.00000000000E+00 -0.00000000000E+00 -0.10566206750E+04  0.10566206750E+04  0.00000000000E+00 0.  1.
         25    1    1    2    0    0  0.28626188167E+02 -0.10386443961E+03 -0.13107689211E+03  0.21074494563E+03  0.12500000000E+03 0.  0.
          2    1    1    2  502    0  0.13081307626E+02  0.43947036945E+02  0.68883235898E+03  0.69035677838E+03  0.00000000000E+00 0. -1.
         -2    1    1    2    0  501 -0.41707495793E+02  0.59917402662E+02 -0.88344191756E+03  0.88645317533E+03  0.00000000000E+00 0.  1.
<mgrwt>
<rscale>  0 0.58272765E+02</rscale>
<asrwt>0</asrwt>
<pdfrwt beam="1">  1        1 0.11245142E+00 0.45852619E+02</pdfrwt>
<pdfrwt beam="2">  1       -1 0.16255703E+00 0.74057168E+02</pdfrwt>
<totfact> 0.97057615E+00</totfact>
</mgrwt>
</event>
<event>
 5    1  0.8459321E-003  0.1557713E+03  0.7546771E-02  0.1323614E+00
          1   -1    0    0  501    0 -0.00000000000E+00  0.00000000000E+00  0.49263557831E+03  0.49263557831E+03  0.00000000000E+00 0. -1.
          2   -1    0    0  502    0  0.00000000000E+00 -0.00000000000E+00 -0.13280899811E+03  0.13280899811E+03  0.00000000000E+00 0. -1.
         25    1    1    2    0    0 -0.10234262873E+03 -0.71916700074E+02  0.97075931633E+02  0.20172942747E+03  0.12500000000E+03 0.  0.
          2    1    1    2  501    0  0.13600973859E+03  0.98843193765E+02  0.31434244680E+03  0.35648253786E+03  0.00000000000E+00 0. -1.
          3    1    1    2  502    0 -0.33667109856E+02 -0.26926493692E+02 -0.51591798235E+02  0.67232611088E+02  0.00000000000E+00 0. -1.
<mgrwt>
<rscale>  0 0.81947351E+02</rscale>
<asrwt>0</asrwt>
<pdfrwt beam="2">  1        2 0.20432154E-01 0.43110444E+02</pdfrwt>
<pdfrwt beam="1">  1        1 0.75790088E-01 0.15577126E+03</pdfrwt>
<totfact> 0.16037411E+03</totfact>
</mgrwt>
</event>
<event>
 5    1  0.8459321E-003  0.7693667E+02  0.7546771E-02  0.1373403E+00
          1   -1    0    0  501    0 -0.00000000000E+00  0.00000000000E+00  0.16030707325E+04  0.16030707325E+04  0.00000000000E+00 0. -1.
          2   -1    0    0  502    0  0.00000000000E+00 -0.00000000000E+00 -0.11762465355E+03  0.11762465355E+03  0.00000000000E+00 0. -1.
         25    1    1    2    0    0  0.75354541027E+01 -0.12809159126E+03  0.34836724967E+02  0.18249064696E+03  0.12500000000E+03 0.  0.
          2    1    1    2  501    0 -0.22199381869E+02  0.72995947703E+02  0.14744387877E+04  0.14764115143E+04  0.00000000000E+00 0. -1.
          1    1    1    2  502    0  0.14663927766E+02  0.55095643561E+02 -0.23829433720E+02  0.61793224777E+02  0.00000000000E+00 0. -1.
<mgrwt>
<rscale>  0 0.66230228E+02</rscale>
<asrwt>0</asrwt>
<pdfrwt beam="2">  1        2 0.18096102E-01 0.57013689E+02</pdfrwt>
<pdfrwt beam="1">  1        1 0.24662625E+00 0.76936666E+02</pdfrwt>
<totfact> 0.27688871E+02</totfact>
</mgrwt>
</event>
<event>
 5    1  0.8459321E-003  0.5052296E+02  0.7546771E-02  0.1514649E+00
          1   -1    0    0  501    0 -0.00000000000E+00  0.00000000000E+00  0.55655337763E+03  0.55655337763E+03  0.00000000000E+00 0. -1.
          2   -1    0    0  502    0  0.00000000000E+00 -0.00000000000E+00 -0.10704562545E+03  0.10704562545E+03  0.00000000000E+00 0. -1.
         25    1    1    2    0    0  0.47763784190E+02  0.30259812957E+02  0.45096992389E+03  0.47137660911E+03  0.12500000000E+03 0.  0.
          2    1    1    2  501    0 -0.49933003491E+02 -0.18198537413E-01  0.86115532716E+02  0.99544915208E+02  0.00000000000E+00 0. -1.
          1    1    1    2  502    0  0.21692193011E+01 -0.30241614420E+02 -0.87577704437E+02  0.92677478761E+02  0.00000000000E+00 0. -1.
<mgrwt>
<rscale>  0 0.39138491E+02</rscale>
<asrwt>0</asrwt>
<pdfrwt beam="2">  1        2 0.16468558E-01 0.30319313E+02</pdfrwt>
<pdfrwt beam="1">  1        1 0.85623595E-01 0.50522961E+02</pdfrwt>
<totfact> 0.17488882E+03</totfact>
</mgrwt>
</event>
<event>
 5    1  0.8459321E-003  0.5442719E+02  0.7546771E-02  0.1462443E+00
          1   -1    0    0  501    0 -0.00000000000E+00  0.00000000000E+00  0.45678042998E+03  0.45678042998E+03  0.00000000000E+00 0. -1.
          2   -1    0    0  502    0  0.00000000000E+00 -0.00000000000E+00 -0.10873184699E+04  0.10873184699E+04  0.00000000000E+00 0. -1.
         25    1    1    2    0    0 -0.14528728440E+02 -0.84712704313E+01  0.29591437028E+02  0.12955114634E+03  0.12500000000E+03 0.  0.
          2    1    1    2  501    0  0.54986255822E+02  0.10780030204E+02  0.37472952059E+03  0.37889564656E+03  0.00000000000E+00 0. -1.
          1    1    1    2  502    0 -0.40457527382E+02 -0.23087597725E+01 -0.10348589976E+04  0.10356521070E+04  0.00000000000E+00 0. -1.
<mgrwt>
<rscale>  0 0.46963519E+02</rscale>
<asrwt>0</asrwt>
<pdfrwt beam="2">  1        2 0.16727976E+00 0.40523350E+02</pdfrwt>
<pdfrwt beam="1">  1        1 0.70273913E-01 0.54427192E+02</pdfrwt>
<totfact> 0.18624975E+02</totfact>
</mgrwt>
</event>
<event>
 5    1  0.8459321E-003  0.1357557E+03  0.7546771E-02  0.1301013E+00
          1   -1    0    0  501    0 -0.00000000000E+00  0.00000000000E+00  0.71791380184E+03  0.71791380184E+03  0.00000000000E+00 0. -1.
          2   -1    0    0  502    0  0.00000000000E+00 -0.00000000000E+00 -0.15208882696E+04  0.15208882696E+04  0.00000000000E+00 0. -1.
         25    1    1    2    0    0 -0.10029814077E+03 -0.15027448818E+03 -0.53090785867E+03  0.57456965917E+03  0.12500000000E+03 0.  0.
          2    1    1    2  501    0  0.10136709358E+03  0.89601268581E+02  0.68854264331E+03  0.70170837722E+03  0.00000000000E+00 0. -1.
          1    1    1    2  502    0 -0.10689528174E+01  0.60673219602E+02 -0.96060925245E+03  0.96252403510E+03  0.00000000000E+00 0. -1.
<mgrwt>
<rscale>  0 0.90763492E+02</rscale>
<asrwt>0</asrwt>
<pdfrwt beam="2">  1        2 0.23398281E+00 0.60682635E+02</pdfrwt>
<pdfrwt beam="1">  1        1 0.11044828E+00 0.13575566E+03</pdfrwt>
<totfact> 0.57747336E+01</totfact>
</mgrwt>
</event>
<event>
 5    1  0.8459321E-003  0.4933433E+02  0.7546771E-02  0.1455170E+00
          2   -1    0    0  502    0  0.00000000000E+00  0.00000000000E+00  0.84913151390E+03  0.84913151390E+03  0.00000000000E+00 0. -1.
          1   -1    0    0  501    0 -0.00000000000E+00 -0.00000000000E+00 -0.11077465058E+03  0.11077465058E+03  0.00000000000E+00 0. -1.
         25    1    1    2    0    0 -0.61619410327E+02  0.61567214634E+02  0.46250254302E+03  0.48695079417E+03  0.12500000000E+03 0.  0.
          2    1    1    2  501    0  0.45839339671E+02 -0.17150809676E+02 -0.90871068038E+02  0.10321311128E+03  0.00000000000E+00 0. -1.
          1    1    1    2  502    0  0.15780070657E+02 -0.44416404957E+02  0.36672538834E+03  0.36974225903E+03  0.00000000000E+00 0. -1.
<mgrwt>
<rscale>  0 0.48222777E+02</rscale>
<asrwt>0</asrwt>
<pdfrwt beam="1">  1        2 0.13063561E+00 0.47136267E+02</pdfrwt>
<pdfrwt beam="2">  1        1 0.17042255E-01 0.49334332E+02</pdfrwt>
<totfact> 0.14070293E+03</totfact>
</mgrwt>
</event>
<event>
 5    1  0.8459321E-003  0.5809178E+02  0.7546771E-02  0.1437384E+00
          2   -1    0    0  502    0  0.00000000000E+00  0.00000000000E+00  0.18631082544E+04  0.18631082544E+04  0.00000000000E+00 0. -1.
         -2   -1    0    0    0  501 -0.00000000000E+00 -0.00000000000E+00 -0.76336526743E+02  0.76336526743E+02  0.00000000000E+00 0.  1.
         25    1    1    2    0    0 -0.90194791032E+02 -0.42035585008E+02  0.69272872158E+03  0.71091502477E+03  0.12500000000E+03 0.  0.
          1    1    1    2  502    0  0.52867626210E+02  0.15726843238E+02  0.11527967759E+04  0.11541155601E+04  0.00000000000E+00 0. -1.
         -1    1    1    2    0  501  0.37327164822E+02  0.26308741771E+02 -0.58753769878E+02  0.74414196240E+02  0.00000000000E+00 0.  1.
<mgrwt>
<rscale>  0 0.51506042E+02</rscale>
<asrwt>0</asrwt>
<pdfrwt beam="1">  1        2 0.28663200E+00 0.58091779E+02</pdfrwt>
<pdfrwt beam="2">  1       -2 0.11744082E-01 0.45666915E+02</pdfrwt>
<totfact> 0.47223672E+02</totfact>
</mgrwt>
</event>
<event>
 5    1  0.8459321E-003  0.3190052E+02  0.7546771E-02  0.1604597E+00
         -1   -1    0    0    0  501 -0.00000000000E+00  0.00000000000E+00  0.82214509626E+03  0.82214509626E+03  0.00000000000E+00 0.  1.
          1   -1    0    0  502    0  0.00000000000E+00 -0.00000000000E+00 -0.75831459061E+03  0.75831459061E+03  0.00000000000E+00 0. -1.
         25    1    1    2    0    0 -0.26291812197E+02 -0.18035755157E+02  0.34965116732E+03  0.37268953119E+03  0.12500000000E+03 0.  0.
          2    1    1    2  502    0  0.28993402868E+01  0.31779434929E+02 -0.74605482127E+03  0.74673699185E+03  0.00000000000E+00 0. -1.
         -2    1    1    2    0  501  0.23392471910E+02 -0.13743679772E+02  0.46023415961E+03  0.46103316382E+03  0.00000000000E+00 0.  1.
<mgrwt>
<rscale>  0 0.29419315E+02</rscale>
<asrwt>0</asrwt>
<pdfrwt beam="2">  1        1 0.11666378E+00 0.31900519E+02</pdfrwt>
<pdfrwt beam="1">  1       -1 0.12648386E+00 0.27131098E+02</pdfrwt>
<totfact> 0.18595935E+01</totfact>
</mgrwt>
</event>
<event>
 5    1  0.8459321E-003  0.6898750E+02  0.7546771E-02  0.1402351E+00
          2   -1    0    0  502    0  0.00000000000E+00  0.00000000000E+00  0.72037838861E+03  0.72037838861E+03  0.00000000000E+00 0. -1.
         -2   -1    0    0    0  501 -0.00000000000E+00 -0.00000000000E+00 -0.42211947608E+03  0.42211947608E+03  0.00000000000E+00 0.  1.
         25    1    1    2    0    0  0.59776965853E+02 -0.10146343712E+03  0.17501019386E+03  0.24519723219E+03  0.12500000000E+03 0.  0.
          1    1    1    2  502    0 -0.31444739817E+02  0.39322700143E+02  0.50600267820E+03  0.50850148156E+03  0.00000000000E+00 0. -1.
         -1    1    1    2    0  501 -0.28332226036E+02  0.62140736981E+02 -0.38275395954E+03  0.38879915093E+03  0.00000000000E+00 0.  1.
<mgrwt>
<rscale>  0 0.58936140E+02</rscale>
<asrwt>0</asrwt>
<pdfrwt beam="1">  1        2 0.11082744E+00 0.50349244E+02</pdfrwt>
<pdfrwt beam="2">  1       -2 0.64941458E-01 0.68987502E+02</pdfrwt>
<totfact> 0.98284941E+01</totfact>
</mgrwt>
</event>
<event>
 5    1  0.8459321E-003  0.7848336E+02  0.7546771E-02  0.1429542E+00
          1   -1    0    0  501    0 -0.00000000000E+00  0.00000000000E+00  0.11388643508E+04  0.11388643508E+04  0.00000000000E+00 0. -1.
          2   -1    0    0  502    0  0.00000000000E+00 -0.00000000000E+00 -0.24266327058E+03  0.24266327058E+03  0.00000000000E+00 0. -1.
         25    1    1    2    0    0  0.70908774114E+02 -0.43335986389E+02  0.16790287483E+03  0.22521642333E+03  0.12500000000E+03 0.  0.
          2    1    1    2  501    0 -0.78223306276E+02  0.82284036263E+01  0.93914674101E+03  0.94243471574E+03  0.00000000000E+00 0. -1.
          1    1    1    2  502    0  0.73145321618E+01  0.35107582763E+02 -0.21084853558E+03  0.21387648236E+03  0.00000000000E+00 0. -1.
<mgrwt>
<rscale>  0 0.53052129E+02</rscale>
<asrwt>0</asrwt>
<pdfrwt beam="2">  1        2 0.37332811E-01 0.35861466E+02</pdfrwt>
<pdfrwt beam="1">  1        1 0.17520990E+00 0.78483362E+02</pdfrwt>
<totfact> 0.25222351E+02</totfact>
</mgrwt>
</event>
<event>
 5    1  0.8459321E-003  0.1150287E+03  0.7546771E-02  0.1396895E+00
         -1   -1    0    0    0  501 -0.00000000000E+00  0.00000000000E+00  0.43269956390E+03  0.43269956390E+03  0.00000000000E+00 0.  1.
          1   -1    0    0  502    0  0.00000000000E+00 -0.00000000000E+00 -0.38560025892E+03  0.38560025892E+03  0.00000000000E+00 0. -1.
         25    1    1    2    0    0  0.16516289740E+02  0.10417776914E+03 -0.24709215874E+03  0.29631964214E+03  0.12500000000E+03 0.  0.
          2    1    1    2  502    0 -0.29732669972E+02  0.10494471520E+02 -0.10333256997E+03  0.10803603849E+03  0.00000000000E+00 0. -1.
         -2    1    1    2    0  501  0.13216380232E+02 -0.11467224066E+03  0.39752403369E+03  0.41394414218E+03  0.00000000000E+00 0.  1.
<mgrwt>
<rscale>  0 0.60223753E+02</rscale>
<asrwt>0</asrwt>
<pdfrwt beam="2">  1        1 0.59323117E-01 0.31530392E+02</pdfrwt>
<pdfrwt beam="1">  1       -1 0.66569164E-01 0.11502872E+03</pdfrwt>
<totfact> 0.15848184E+02</totfact>
</mgrwt>
</event>
<event>
 5    1  0.8459321E-003  0.6747066E+02  0.7546771E-02  0.1391853E+00
          2   -1    0    0  502    0  0.00000000000E+00  0.00000000000E+00  0.10513076702E+03  0.10513076702E+03  0.00000000000E+00 0. -1.
         -2   -1    0    0    0  501 -0.00000000000E+00 -0.00000000000E+00 -0.53417989520E+03  0.53417989520E+03  0.00000000000E+00 0.  1.
         25    1    1    2    0    0 -0.53642300748E+02  0.62552098126E+02 -0.11110858641E+03  0.18644135642E+03  0.12500000000E+03 0.  0.
          1    1    1    2  502    0  0.67451957501E+02 -0.83193969416E+01  0.47661015098E+02  0.83009344633E+02  0.00000000000E+00 0. -1.
         -1    1    1    2    0  501 -0.13809656753E+02 -0.54232701184E+02 -0.36560155686E+03  0.36985996117E+03  0.00000000000E+00 0.  1.
<mgrwt>
<rscale>  0 0.61448203E+02</rscale>
<asrwt>0</asrwt>
<pdfrwt beam="1">  1        2 0.16173965E-01 0.67470659E+02</pdfrwt>
<pdfrwt beam="2">  1       -2 0.82181519E-01 0.55963314E+02</pdfrwt>
<totfact> 0.46673970E+02</totfact>
</mgrwt>
</event>
<event>
 5    1  0.8459321E-003  0.6100265E+02  0.7546771E-02  0.1396558E+00
          1   -1    0    0  502    0  0.00000000000E+00  0.00000000000E+00  0.18077943589E+04  0.18077943589E+04  0.00000000000E+00 0. -1.
         -1   -1    0    0    0  501 -0.00000000000E+00 -0.00000000000E+00 -0.16907532694E+03  0.16907532694E+03  0.00000000000E+00 0.  1.
         25    1    1    2    0    0 -0.94848094169E+01  0.20576892529E+02  0.21833385679E+03  0.25260253985E+03  0.12500000000E+03 0.  0.
          2    1    1    2  502    0  0.60031273383E+02  0.13575389822E+02  0.15655740577E+04  0.15667833849E+04  0.00000000000E+00 0. -1.
         -2    1    1    2    0  501 -0.50546463966E+02 -0.34152282351E+02 -0.14518888252E+03  0.15748376112E+03  0.00000000000E+00 0.  1.
<mgrwt>
<rscale>  0 0.60304623E+02</rscale>
<asrwt>0</asrwt>
<pdfrwt beam="1">  1        1 0.27812220E+00 0.59614583E+02</pdfrwt>
<pdfrwt beam="2">  1       -1 0.26011590E-01 0.61002651E+02</pdfrwt>
<totfact> 0.67647339E+01</totfact>
</mgrwt>
</event>
<event>
 5    1  0.8459321E-003  0.1403015E+03  0.7546771E-02  0.1372756E+00
          2   -1    0    0  502    0  0.00000000000E+00  0.00000000000E+00  0.44059808695E+03  0.44059808695E+03  0.00000000000E+00 0. -1.
         -2   -1    0    0    0  501 -0.00000000000E+00 -0.00000000000E+00 -0.73709107865E+03  0.73709107865E+03  0.00000000000E+00 0.  1.
         25    1    1    2    0    0 -0.31028152520E+02  0.12209947412E+03  0.12982409892E+03  0.21988707213E+03  0.12500000000E+03 0.  0.
          1    1    1    2  502    0 -0.31112385179E+02  0.44663940289E+01  0.25759572473E+03  0.25950623612E+03  0.00000000000E+00 0. -1.
         -1    1    1    2    0  501  0.62140537700E+02 -0.12656586815E+03 -0.68391281534E+03  0.69829585735E+03  0.00000000000E+00 0.  1.
<mgrwt>
<rscale>  0 0.66406797E+02</rscale>
<asrwt>0</asrwt>
<pdfrwt beam="1">  1        2 0.67784321E-01 0.31431341E+02</pdfrwt>
<pdfrwt beam="2">  1       -2 0.11339863E+00 0.14030145E+03</pdfrwt>
<totfact> 0.48096772E+01</totfact>
</mgrwt>
</event>
<event>
 5    1  0.8459321E-003  0.5198790E+02  0.7546771E-02  0.1448389E+00
          1   -1    0    0  501    0 -0.00000000000E+00  0.00000000000E+00  0.10907312568E+04  0.10907312568E+04  0.00000000000E+00 0. -1.
          2   -1    0    0  502    0  0.00000000000E+00 -0.00000000000E+00 -0.10664225933E+03  0.10664225933E+03  0.00000000000E+00 0. -1.
         25    1    1    2    0    0  0.43927160863E+02  0.54692749721E+02  0.11346963416E+03  0.18281479757E+03  0.12500000000E+03 0.  0.
          2    1    1    2  501    0 -0.51316579036E+02 -0.82613686748E+01  0.93411018269E+03  0.93555516935E+03  0.00000000000E+00 0. -1.
          1    1    1    2  502    0  0.73894181735E+01 -0.46431381046E+02 -0.63490819358E+02  0.79003549221E+02  0.00000000000E+00 0. -1.
<mgrwt>
<rscale>  0 0.49439334E+02</rscale>
<asrwt>0</asrwt>
<pdfrwt beam="2">  1        2 0.16406502E-01 0.47015706E+02</pdfrwt>
<pdfrwt beam="1">  1        1 0.16780480E+00 0.51987899E+02</pdfrwt>
<totfact> 0.67866207E+02</totfact>
</mgrwt>
</event>
<event>
 5    1  0.8459321E-003  0.4920642E+02  0.7546771E-02  0.1505155E+00
          1   -1    0    0  501    0 -0.00000000000E+00  0.00000000000E+00  0.17013451014E+04  0.17013451014E+04  0.00000000000E+00 0. -1.
          2   -1    0    0  502    0  0.00000000000E+00 -0.00000000000E+00 -0.15638550470E+02  0.15638550470E+02  0.00000000000E+00 0. -1.
         25    1    1    2    0    0 -0.48959540535E+02  0.54484862092E+02  0.69924900422E+03  0.71410069788E+03  0.12500000000E+03 0.  0.
          2    1    1    2  501    0  0.31443680564E+02 -0.10654732734E+02  0.92399927272E+03  0.92459552474E+03  0.00000000000E+00 0. -1.
          1    1    1    2  502    0  0.17515859970E+02 -0.43830129359E+02  0.62458274010E+02  0.78287429274E+02  0.00000000000E+00 0. -1.
<mgrwt>
<rscale>  0 0.40418369E+02</rscale>
<asrwt>0</asrwt>
<pdfrwt beam="2">  1        2 0.24059322E-02 0.49206421E+02</pdfrwt>
<pdfrwt beam="1">  1        1 0.26174525E+00 0.33199825E+02</pdfrwt>
<totfact> 0.31244744E+03</totfact>
</mgrwt>
</event>
<event>
 5    1  0.8459321E-003  0.5864069E+02  0.7546771E-02  0.1409135E+00
          1   -1    0    0  501    0 -0.00000000000E+00  0.00000000000E+00  0.43755641372E+03  0.43755641372E+03  0.00000000000E+00 0. -1.
          2   -1    0    0  502    0  0.00000000000E+00 -0.00000000000E+00 -0.36135677214E+03  0.36135677214E+03  0.00000000000E+00 0. -1.
         25    1    1    2    0    0  0.72275439060E+02 -0.45862039034E+01  0.19101372956E+02  0.14572108566E+03  0.12500000000E+03 0.  0.
          2    1    1    2  501    0 -0.41265192844E+02 -0.42236693157E+02  0.35000444309E+03  0.35495051003E+03  0.00000000000E+00 0. -1.
          1    1    1    2  502    0 -0.31010246216E+02  0.46822897061E+02 -0.29290617447E+03  0.29824159017E+03  0.00000000000E+00 0. -1.
<mgrwt>
<rscale>  0 0.57387278E+02</rscale>
<asrwt>0</asrwt>
<pdfrwt beam="2">  1        2 0.55593349E-01 0.56160654E+02</pdfrwt>
<pdfrwt beam="1">  1        1 0.67316372E-01 0.58640693E+02</pdfrwt>
<totfact> 0.67356040E+02</totfact>
</mgrwt>
</event>
<event>
 5    1  0.8459321E-003  0.1376033E+03  0.7546771E-02  0.1371363E+00
          2   -1    0    0  502    0  0.00000000000E+00  0.00000000000E+00  0.13325829394E+04  0.13325829394E+04  0.00000000000E+00 0. -1.
          1   -1    0    0  501    0 -0.00000000000E+00 -0.00000000000E+00 -0.31041318274E+03  0.31041318274E+03  0.00000000000E+00 0. -1.
         25    1    1    2    0    0 -0.31987746735E+02 -0.13809535200E+03  0.73478320874E+03  0.75869948334E+03  0.12500000000E+03 0.  0.
          2    1    1    2  501    0 -0.28294294003E+02  0.15823398415E+02 -0.28960776912E+03  0.29141655229E+03  0.00000000000E+00 0. -1.
          1    1    1    2  502    0  0.60282040738E+02  0.12227195358E+03  0.57699431706E+03  0.59288008652E+03  0.00000000000E+00 0. -1.
<mgrwt>
<rscale>  0 0.66789713E+02</rscale>
<asrwt>0</asrwt>
<pdfrwt beam="1">  1        2 0.20501276E+00 0.13760327E+03</pdfrwt>
<pdfrwt beam="2">  1        1 0.47755875E-01 0.32418313E+02</pdfrwt>
<totfact> 0.20252874E+02</totfact>
</mgrwt>
</event>
<event>
 5    1  0.8459321E-003  0.8574477E+02  0.7546771E-02  0.1471347E+00
         -1   -1    0    0    0  501 -0.00000000000E+00  0.00000000000E+00  0.16276897775E+03  0.16276897775E+03  0.00000000000E+00 0.  1.
          1   -1    0    0  502    0  0.00000000000E+00 -0.00000000000E+00 -0.18994986908E+03  0.18994986908E+03  0.00000000000E+00 0. -1.
         25    1    1    2    0    0  0.65009209824E+02  0.43395185747E+02  0.73204816477E+02  0.16460037869E+03  0.12500000000E+03 0.  0.
          2    1    1    2  502    0 -0.56553696950E+02 -0.65991601589E+02 -0.12591264805E+03  0.15299414060E+03  0.00000000000E+00 0. -1.
         -2    1    1    2    0  501 -0.84555128737E+01  0.22596415842E+02  0.25526940252E+02  0.35124327545E+02  0.00000000000E+00 0.  1.
<mgrwt>
<rscale>  0 0.45483308E+02</rscale>
<asrwt>0</asrwt>
<pdfrwt beam="2">  1        1 0.29223057E-01 0.85744771E+02</pdfrwt>
<pdfrwt beam="1">  1       -1 0.25041381E-01 0.24126618E+02</pdfrwt>
<totfact> 0.19812912E+03</totfact>
</mgrwt>
</event>
<event>
 5    1  0.8459321E-003  0.1532674E+03  0.7546771E-02  0.1331889E+00
          1   -1    0    0  501    0 -0.00000000000E+00  0.00000000000E+00  0.11364745373E+03  0.11364745373E+03  0.00000000000E+00 0. -1.
          2   -1    0    0  502    0  0.00000000000E+00 -0.00000000000E+00 -0.20052291549E+04  0.20052291549E+04  0.00000000000E+00 0. -1.
         25    1    1    2    0    0  0.10337230408E+03  0.58816373569E+02 -0.32846561046E+03  0.37102541194E+03  0.12500000000E+03 0.  0.
          2    1    1    2  501    0  0.33054907776E+02  0.23794656322E+02  0.83830231861E+02  0.93200431176E+02  0.00000000000E+00 0. -1.
          1    1    1    2  502    0 -0.13642721185E+03 -0.82611029891E+02 -0.16469463226E+04  0.16546507656E+04  0.00000000000E+00 0. -1.
<mgrwt>
<rscale>  0 0.79008569E+02</rscale>
<asrwt>0</asrwt>
<pdfrwt beam="2">  1        2 0.30849676E+00 0.15326738E+03</pdfrwt>
<pdfrwt beam="1">  1        1 0.17484225E-01 0.40728523E+02</pdfrwt>
<totfact> 0.30039739E+02</totfact>
</mgrwt>
</event>
<event>
 5    1  0.8459321E-003  0.1009406E+03  0.7546771E-02  0.1424475E+00
          2   -1    0    0  502    0  0.00000000000E+00  0.00000000000E+00  0.25313560304E+04  0.25313560304E+04  0.00000000000E+00 0. -1.
          1   -1    0    0  501    0 -0.00000000000E+00 -0.00000000000E+00 -0.45194156675E+02  0.45194156675E+02  0.00000000000E+00 0. -1.
         25    1    1    2    0    0 -0.72937798175E+02 -0.38053997699E+02  0.12433542612E+04  0.12523269733E+04  0.12500000000E+03 0.  0.
          2    1    1    2  501    0 -0.23346003213E+02 -0.17169030475E+02 -0.32815707332E+02  0.43779928291E+02  0.00000000000E+00 0. -1.
          1    1    1    2  502    0  0.96283801388E+02  0.55223028174E+02  0.12756233199E+04  0.12804432855E+04  0.00000000000E+00 0. -1.
<mgrwt>
<rscale>  0 0.54085184E+02</rscale>
<asrwt>0</asrwt>
<pdfrwt beam="1">  1        2 0.38943928E+00 0.10094056E+03</pdfrwt>
<pdfrwt beam="2">  1        1 0.69529491E-02 0.28979501E+02</pdfrwt>
<totfact> 0.52171003E+02</totfact>
</mgrwt>
</event>
<event>
 5    1  0.8459321E-003  0.9655867E+02  0.7546771E-02  0.1356313E+00
          2   -1    0    0  502    0  0.00000000000E+00  0.00000000000E+00  0.28023203664E+02  0.28023203664E+02  0.00000000000E+00 0. -1.
          1   -1    0    0  501    0 -0.00000000000E+00 -0.00000000000E+00 -0.23782271562E+04  0.23782271562E+04  0.00000000000E+00 0. -1.
         25    1    1    2    0    0  0.35566901616E+02 -0.13086842354E+03 -0.70180297788E+03  0.72563349463E+03  0.12500000000E+03 0.  0.
          2    1    1    2  501    0 -0.32731609192E+02  0.40904845283E+02 -0.15347362029E+04  0.15356300912E+04  0.00000000000E+00 0. -1.
          1    1    1    2  502    0 -0.28352924239E+01  0.89963578260E+02 -0.11366477176E+03  0.14498677401E+03  0.00000000000E+00 0. -1.
<mgrwt>
<rscale>  0 0.71123643E+02</rscale>
<asrwt>0</asrwt>
<pdfrwt beam="1">  1        2 0.43112608E-02 0.96558666E+02</pdfrwt>
<pdfrwt beam="2">  1        1 0.36588121E+00 0.52388592E+02</pdfrwt>
<totfact> 0.57094142E+02</totfact>
</mgrwt>
</event>
<event>
 5    1  0.8459321E-003  0.1426735E+03  0.7546771E-02  0.1309802E+00
          1   -1    0    0  501    0 -0.00000000000E+00  0.00000000000E+00  0.88410253829E+03  0.88410253829E+03  0.00000000000E+00 0. -1.
          2   -1    0    0  502    0  0.00000000000E+00 -0.00000000000E+00 -0.13346781446E+04  0.13346781446E+04  0.00000000000E+00 0. -1.
         25    1    1    2    0    0 -0.13058886636E+03  0.12519507315E+03 -0.49839710349E+03  0.54474942050E+03  0.12500000000E+03 0.  0.
          2    1    1    2  501    0  0.50132584427E+02 -0.18052281426E+02  0.85457113975E+03  0.85623068958E+03  0.00000000000E+00 0. -1.
          1    1    1    2  502    0  0.80456281937E+02 -0.10714279172E+03 -0.80674964255E+03  0.81780057280E+03  0.00000000000E+00 0. -1.
<mgrwt>
<rscale>  0 0.87190500E+02</rscale>
<asrwt>0</asrwt>
<pdfrwt beam="2">  1        2 0.20533510E+00 0.14267350E+03</pdfrwt>
<pdfrwt beam="1">  1        1 0.13601578E+00 0.53283777E+02</pdfrwt>
<totfact> 0.51968663E+01</totfact>
</mgrwt>
</event>
<event>
 5    1  0.8459321E-003  0.1452631E+03  0.7546771E-02  0.1250433E+00
          2   -1    0    0  502    0  0.00000000000E+00  0.00000000000E+00  0.29523149324E+04  0.29523149324E+04  0.00000000000E+00 0. -1.
          1   -1    0    0  501    0 -0.00000000000E+00 -0.00000000000E+00 -0.65161140377E+03  0.65161140377E+03  0.00000000000E+00 0. -1.
         25    1    1    2    0    0 -0.83988816842E+02  0.17473836183E+03  0.11848348656E+04  0.12070817185E+04  0.12500000000E+03 0.  0.
          2    1    1    2  501    0 -0.31801485101E+01 -0.14503713030E+03 -0.63104479646E+03  0.64750553484E+03  0.00000000000E+00 0. -1.
          1    1    1    2  502    0  0.87168965352E+02 -0.29701231525E+02  0.17469134596E+04  0.17493390829E+04  0.00000000000E+00 0. -1.
<mgrwt>
<rscale>  0 0.11566028E+03</rscale>
<asrwt>0</asrwt>
<pdfrwt beam="1">  1        2 0.45420229E+00 0.92090128E+02</pdfrwt>
<pdfrwt beam="2">  1        1 0.10024791E+00 0.14526312E+03</pdfrwt>
<totfact> 0.11525729E+01</totfact>
</mgrwt>
</event>
<event>
 5    1  0.8459321E-003  0.7518764E+02  0.7546771E-02  0.1426598E+00
          1   -1    0    0  501    0 -0.00000000000E+00  0.00000000000E+00  0.21388977998E+04  0.21388977998E+04  0.00000000000E+00 0. -1.
          2   -1    0    0  502    0  0.00000000000E+00 -0.00000000000E+00 -0.85895548334E+03  0.85895548334E+03  0.00000000000E+00 0. -1.
         25    1    1    2    0    0  0.28995738492E+02 -0.10428394993E+03  0.25257268027E+03  0.30188384171E+03  0.12500000000E+03 0.  0.
          2    1    1    2  501    0 -0.33499171056E+02  0.66269202460E+02  0.18604894248E+04  0.18619706500E+04  0.00000000000E+00 0. -1.
          1    1    1    2  502    0  0.45034325638E+01  0.38014747467E+02 -0.83311978862E+03  0.83399879144E+03  0.00000000000E+00 0. -1.
<mgrwt>
<rscale>  0 0.53649096E+02</rscale>
<asrwt>0</asrwt>
<pdfrwt beam="2">  1        2 0.13214700E+00 0.38280569E+02</pdfrwt>
<pdfrwt beam="1">  1        1 0.32906120E+00 0.75187638E+02</pdfrwt>
<totfact> 0.15526774E+01</totfact>
</mgrwt>
</event>
<event>
 5    1  0.8459321E-003  0.1589237E+03  0.7546771E-02  0.1256026E+00
          1   -1    0    0  502    0  0.00000000000E+00  0.00000000000E+00  0.51983460616E+03  0.51983460616E+03  0.00000000000E+00 0. -1.
         -1   -1    0    0    0  501 -0.00000000000E+00 -0.00000000000E+00 -0.28753388547E+03  0.28753388547E+03  0.00000000000E+00 0.  1.
         25    1    1    2    0    0 -0.31809521217E+02  0.17265402914E+03  0.25822426618E+03  0.33634213394E+03  0.12500000000E+03 0.  0.
          2    1    1    2  502    0  0.93971278099E+02 -0.12289566703E+03  0.18758706874E+03  0.24315191638E+03  0.00000000000E+00 0. -1.
         -2    1    1    2    0  501 -0.62161756882E+02 -0.49758362117E+02 -0.21351061422E+03  0.22787444132E+03  0.00000000000E+00 0.  1.
<mgrwt>
<rscale>  0 0.11249063E+03</rscale>
<asrwt>0</asrwt>
<pdfrwt beam="1">  1        1 0.79974555E-01 0.15892374E+03</pdfrwt>
<pdfrwt beam="2">  1       -1 0.44235982E-01 0.79623983E+02</pdfrwt>
<totfact> 0.22644219E+02</totfact>
</mgrwt>
</event>
<event>
 5    1  0.8459321E-003  0.1478461E+03  0.7546771E-02  0.1361649E+00
          2   -1    0    0  502    0  0.00000000000E+00  0.00000000000E+00  0.42297896862E+03  0.42297896862E+03  0.00000000000E+00 0. -1.
          1   -1    0    0  501    0 -0.00000000000E+00 -0.00000000000E+00 -0.84276817930E+03  0.84276817930E+03  0.00000000000E+00 0. -1.
         25    1    1    2    0    0  0.79793202411E+02 -0.11227211596E+03 -0.99084329746E+02  0.21074792425E+03  0.12500000000E+03 0.  0.
          2    1    1    2  501    0 -0.11050865327E+03  0.10101679700E+03 -0.67895068475E+03  0.69526296324E+03  0.00000000000E+00 0. -1.
          1    1    1    2  502    0  0.30715450854E+02  0.11255318963E+02  0.35824580381E+03  0.35973626044E+03  0.00000000000E+00 0. -1.
<mgrwt>
<rscale>  0 0.69544572E+02</rscale>
<asrwt>0</asrwt>
<pdfrwt beam="1">  1        2 0.65073687E-01 0.32712706E+02</pdfrwt>
<pdfrwt beam="2">  1        1 0.12965664E+00 0.14784614E+03</pdfrwt>
<totfact> 0.22788933E+02</totfact>
</mgrwt>
</event>
<event>
 5    1  0.8459321E-003  0.1484018E+03  0.7546771E-02  0.1297668E+00
          1   -1    0    0  501    0 -0.00000000000E+00  0.00000000000E+00  0.30179099173E+04  0.30179099173E+04  0.00000000000E+00 0. -1.
          2   -1    0    0  502    0  0.00000000000E+00 -0.00000000000E+00 -0.20464377040E+02  0.20464377040E+02  0.00000000000E+00 0. -1.
         25    1    1    2    0    0  0.31307674303E+02 -0.10848475173E+03  0.14036322740E+04  0.14137035306E+04  0.12500000000E+03 0.  0.
          2    1    1    2  501    0 -0.24830834243E+02 -0.51586627109E+02  0.11729733941E+04  0.11743697602E+04  0.00000000000E+00 0. -1.
          1    1    1    2  502    0 -0.64768400599E+01  0.16007137884E+03  0.42083987217E+03  0.45030100354E+03  0.00000000000E+00 0. -1.
<mgrwt>
<rscale>  0 0.92175073E+02</rscale>
<asrwt>0</asrwt>
<pdfrwt beam="2">  1        2 0.31483681E-02 0.14840175E+03</pdfrwt>
<pdfrwt beam="1">  1        1 0.46429348E+00 0.57251641E+02</pdfrwt>
<totfact> 0.34351750E+02</totfact>
</mgrwt>
</event>
<event>
 5    1  0.8459321E-003  0.8903815E+02  0.7546771E-02  0.1481859E+00
         -2   -1    0    0    0  501 -0.00000000000E+00  0.00000000000E+00  0.30617477313E+02  0.30617477313E+02  0.00000000000E+00 0.  1.
          2   -1    0    0  502    0  0.00000000000E+00 -0.00000000000E+00 -0.14573264722E+04  0.14573264722E+04  0.00000000000E+00 0. -1.
         25    1    1    2    0    0  0.96015538666E+02  0.30862454409E+02 -0.11147821254E+04  0.11262928846E+04  0.12500000000E+03 0.  0.
          1    1    1    2  502    0 -0.75453104714E+02 -0.24367003271E+02 -0.32626099945E+03  0.33575759354E+03  0.00000000000E+00 0. -1.
         -1    1    1    2    0  501 -0.20562433952E+02 -0.64954511382E+01  0.14334130001E+02  0.25893471347E+02  0.00000000000E+00 0.  1.
<mgrwt>
<rscale>  0 0.43817982E+02</rscale>
<asrwt>0</asrwt>
<pdfrwt beam="2">  1        2 0.22420403E+00 0.89038150E+02</pdfrwt>
<pdfrwt beam="1">  1       -2 0.47103820E-02 0.21563965E+02</pdfrwt>
<totfact> 0.25586445E+03</totfact>
</mgrwt>
</event>
<event>
 5    1  0.8459321E-003  0.2717861E+02  0.7546771E-02  0.1670370E+00
          2   -1    0    0  502    0  0.00000000000E+00  0.00000000000E+00  0.49238222041E+03  0.49238222041E+03  0.00000000000E+00 0. -1.
         -2   -1    0    0    0  501 -0.00000000000E+00 -0.00000000000E+00 -0.17965214442E+03  0.17965214442E+03  0.00000000000E+00 0.  1.
         25    1    1    2    0    0 -0.21783958578E+01  0.29598522301E+02  0.29179736382E+02  0.13174701115E+03  0.12500000000E+03 0.  0.
          1    1    1    2  502    0  0.20574917968E+02 -0.17839724979E+02  0.41053608956E+03  0.41143828682E+03  0.00000000000E+00 0. -1.
         -1    1    1    2    0  501 -0.18396522110E+02 -0.11758797322E+02 -0.12698574995E+03  0.12884906686E+03  0.00000000000E+00 0.  1.
<mgrwt>
<rscale>  0 0.24359883E+02</rscale>
<asrwt>0</asrwt>
<pdfrwt beam="1">  1        2 0.75751110E-01 0.27178608E+02</pdfrwt>
<pdfrwt beam="2">  1       -2 0.27638792E-01 0.21833491E+02</pdfrwt>
<totfact> 0.72009256E+02</totfact>
</mgrwt>
</event>
<event>
 5    1  0.8459321E-003  0.1813842E+03  0.7546771E-02  0.1212025E+00
          2   -1    0    0  502    0  0.00000000000E+00  0.00000000000E+00  0.81656010496E+03  0.81656010496E+03  0.00000000000E+00 0. -1.
         -2   -1    0    0    0  501 -0.00000000000E+00 -0.00000000000E+00 -0.58075549870E+03  0.58075549870E+03  0.00000000000E+00 0.  1.
         25    1    1    2    0    0  0.10790033625E+03 -0.18396620816E+03 -0.10315458933E+03  0.26786548417E+03  0.12500000000E+03 0.  0.
          1    1    1    2  502    0  0.16299131269E+01  0.18116347982E+03  0.71509143569E+03  0.73768463753E+03  0.00000000000E+00 0. -1.
         -1    1    1    2    0  501 -0.10953024937E+03  0.28027283403E+01 -0.37613224011E+03  0.39176548197E+03  0.00000000000E+00 0.  1.
<mgrwt>
<rscale>  0 0.14097359E+03</rscale>
<asrwt>0</asrwt>
<pdfrwt beam="1">  1        2 0.12562463E+00 0.18138415E+03</pdfrwt>
<pdfrwt beam="2">  1       -2 0.89347000E-01 0.10956610E+03</pdfrwt>
<totfact> 0.40463266E+01</totfact>
</mgrwt>
</event>
<event>
 5    1  0.8459321E-003  0.8348025E+02  0.7546771E-02  0.1484744E+00
          1   -1    0    0  502    0  0.00000000000E+00  0.00000000000E+00  0.20355230144E+03  0.20355230144E+03  0.00000000000E+00 0. -1.
         -1   -1    0    0    0  501 -0.00000000000E+00 -0.00000000000E+00 -0.50564815459E+03  0.50564815459E+03  0.00000000000E+00 0.  1.
         25    1    1    2    0    0  0.87339920784E+02  0.14323778599E+02 -0.21068145285E+03  0.26047093306E+03  0.12500000000E+03 0.  0.
          2    1    1    2  502    0 -0.11689531696E+02  0.19269166083E+02  0.17156092854E+03  0.17303496212E+03  0.00000000000E+00 0. -1.
         -2    1    1    2    0  501 -0.75650389088E+02 -0.33592944681E+02 -0.26297532884E+03  0.27569456084E+03  0.00000000000E+00 0.  1.
<mgrwt>
<rscale>  0 0.43375673E+02</rscale>
<asrwt>0</asrwt>
<pdfrwt beam="1">  1        1 0.31315739E-01 0.22537655E+02</pdfrwt>
<pdfrwt beam="2">  1       -1 0.77792023E-01 0.83480245E+02</pdfrwt>
<totfact> 0.24601190E+02</totfact>
</mgrwt>
</event>
<event>
 5    1  0.8459321E-003  0.1805022E+03  0.7546771E-02  0.1218466E+00
          2   -1    0    0  502    0  0.00000000000E+00  0.00000000000E+00  0.48354948700E+03  0.48354948700E+03  0.00000000000E+00 0. -1.
          1   -1    0    0  501    0 -0.00000000000E+00 -0.00000000000E+00 -0.13129566622E+04  0.13129566622E+04  0.00000000000E+00 0. -1.
         25    1    1    2    0    0 -0.25867574731E+03 -0.81691803947E+02  0.26286145346E+03  0.39787917361E+03  0.12500000000E+03 0.  0.
          2    1    1    2  501    0  0.17791153075E+03  0.18016909913E+02 -0.12209050693E+04  0.12339312420E+04  0.00000000000E+00 0. -1.
          1    1    1    2  502    0  0.80764216562E+02  0.63674894034E+02  0.12863644062E+03  0.16469573359E+03  0.00000000000E+00 0. -1.
<mgrwt>
<rscale>  0 0.13624966E+03</rscale>
<asrwt>0</asrwt>
<pdfrwt beam="1">  1        2 0.74392230E-01 0.10284625E+03</pdfrwt>
<pdfrwt beam="2">  1        1 0.20199333E+00 0.18050217E+03</pdfrwt>
<totfact> 0.88773272E+01</totfact>
</mgrwt>
</event>
<event>
 5    1  0.8459321E-003  0.3692316E+02  0.7546771E-02  0.1565141E+00
          1   -1    0    0  501    0 -0.00000000000E+00  0.00000000000E+00  0.20245978072E+04  0.20245978072E+04  0.00000000000E+00 0. -1.
          2   -1    0    0  502    0  0.00000000000E+00 -0.00000000000E+00 -0.51007060141E+02  0.51007060141E+02  0.00000000000E+00 0. -1.
         25    1    1    2    0    0 -0.52832825828E+02 -0.16196852821E+02  0.18253286194E+03  0.22802826845E+03  0.12500000000E+03 0.  0.
          2    1    1    2  501    0  0.25009629118E+02  0.27040800010E+02  0.18111886501E+04  0.18115631407E+04  0.00000000000E+00 0. -1.
          1    1    1    2  502    0  0.27823196710E+02 -0.10843947189E+02 -0.20130765049E+02  0.36013458141E+02  0.00000000000E+00 0. -1.
<mgrwt>
<rscale>  0 0.33205250E+02</rscale>
<asrwt>0</asrwt>
<pdfrwt beam="2">  1        2 0.78472416E-02 0.29861706E+02</pdfrwt>
<pdfrwt beam="1">  1        1 0.31147652E+00 0.36923163E+02</pdfrwt>
<totfact> 0.41806096E+02</totfact>
</mgrwt>
</event>
<event>
 5    1  0.8459321E-003  0.6195453E+02  0.7546771E-02  0.1495343E+00
          2   -1    0    0  502    0  0.00000000000E+00  0.00000000000E+00  0.45562599627E+03  0.45562599627E+03  0.00000000000E+00 0. -1.
         -2   -1    0    0    0  501 -0.00000000000E+00 -0.00000000000E+00 -0.16248561289E+03  0.16248561289E+03  0.00000000000E+00 0.  1.
         25    1    1    2    0    0  0.32328472303E+02 -0.82926644791E+02 -0.71882391298E+02  0.16945216646E+03  0.12500000000E+03 0.  0.
          3    1    1    2  502    0 -0.17638529045E+02  0.58846965150E+02  0.39945346643E+03  0.40414991632E+03  0.00000000000E+00 0. -1.
         -3    1    1    2    0  501 -0.14689943259E+02  0.24079679641E+02 -0.34430691757E+02  0.44509526390E+02  0.00000000000E+00 0.  1.
<mgrwt>
<rscale>  0 0.41803600E+02</rscale>
<asrwt>0</asrwt>
<pdfrwt beam="1">  1        2 0.70096306E-01 0.61954528E+02</pdfrwt>
<pdfrwt beam="2">  1       -2 0.24997787E-01 0.28206833E+02</pdfrwt>
<totfact> 0.93002700E+02</totfact>
</mgrwt>
</event>
<event>
 5    1  0.8459321E-003  0.8842836E+02  0.7546771E-02  0.1414523E+00
          2   -1    0    0  502    0  0.00000000000E+00  0.00000000000E+00  0.32754678929E+04  0.32754678929E+04  0.00000000000E+00 0. -1.
          1   -1    0    0  501    0 -0.00000000000E+00 -0.00000000000E+00 -0.20778677227E+02  0.20778677227E+02  0.00000000000E+00 0. -1.
         25    1    1    2    0    0 -0.64900292735E+02 -0.36024528523E+02  0.17740312858E+04  0.17799780385E+04  0.12500000000E+03 0.  0.
          2    1    1    2  501    0  0.89158227647E+02  0.98140208375E+01  0.96870946226E+02  0.13202077407E+03  0.00000000000E+00 0. -1.
          1    1    1    2  502    0 -0.24257934912E+02  0.26210507686E+02  0.13837869837E+04  0.13842477576E+04  0.00000000000E+00 0. -1.
<mgrwt>
<rscale>  0 0.56196676E+02</rscale>
<asrwt>0</asrwt>
<pdfrwt beam="1">  1        2 0.50391773E+00 0.35713277E+02</pdfrwt>
<pdfrwt beam="2">  1        1 0.31967222E-02 0.88428357E+02</pdfrwt>
<totfact> 0.76618438E+02</totfact>
</mgrwt>
</event>
<event>
 5    1  0.8459321E-003  0.5433477E+02  0.7546771E-02  0.1467162E+00
         -2   -1    0    0    0  501 -0.00000000000E+00  0.00000000000E+00  0.92600388996E+02  0.92600388996E+02  0.00000000000E+00 0.  1.
          2   -1    0    0  502    0  0.00000000000E+00 -0.00000000000E+00 -0.55450378712E+03  0.55450378712E+03  0.00000000000E+00 0. -1.
         25    1    1    2    0    0  0.77091423772E+01  0.19466288002E+02 -0.32223259721E+01  0.12678229620E+03  0.12500000000E+03 0.  0.
          1    1    1    2  502    0 -0.44705148000E+02 -0.32526154147E+02 -0.47472596138E+03  0.47793434630E+03  0.00000000000E+00 0. -1.
         -1    1    1    2    0  501  0.36996005623E+02  0.13059866145E+02  0.16044889232E+02  0.42387533618E+02  0.00000000000E+00 0.  1.
<mgrwt>
<rscale>  0 0.46170782E+02</rscale>
<asrwt>0</asrwt>
<pdfrwt beam="2">  1        2 0.85308276E-01 0.54334770E+02</pdfrwt>
<pdfrwt beam="1">  1       -2 0.14246213E-01 0.39233462E+02</pdfrwt>
<totfact> 0.19179942E+03</totfact>
</mgrwt>
</event>
<event>
 5    1  0.8459321E-003  0.3237473E+02  0.7546771E-02  0.1611775E+00
          1   -1    0    0  501    0 -0.00000000000E+00  0.00000000000E+00  0.24141307292E+03  0.24141307292E+03  0.00000000000E+00 0. -1.
          2   -1    0    0  502    0  0.00000000000E+00 -0.00000000000E+00 -0.10332537357E+04  0.10332537357E+04  0.00000000000E+00 0. -1.
         25    1    1    2    0    0  0.19718717012E+01  0.93622480521E+01  0.46399697641E+02  0.13367674408E+03  0.12500000000E+03 0.  0.
          2    1    1    2  501    0 -0.16326373382E+02  0.19738189200E+02  0.15002302115E+03  0.15219413082E+03  0.00000000000E+00 0. -1.
          1    1    1    2  502    0  0.14354501680E+02 -0.29100437252E+02 -0.98826338161E+03  0.98879593375E+03  0.00000000000E+00 0. -1.
<mgrwt>
<rscale>  0 0.28797403E+02</rscale>
<asrwt>0</asrwt>
<pdfrwt beam="2">  1        2 0.15896211E+00 0.32374735E+02</pdfrwt>
<pdfrwt beam="1">  1        1 0.37140473E-01 0.25615358E+02</pdfrwt>
<totfact> 0.43007849E+02</totfact>
</mgrwt>
</event>
<event>
 5    1  0.8459321E-003  0.8100092E+02  0.7546771E-02  0.1383815E+00
          1   -1    0    0  502    0  0.00000000000E+00  0.00000000000E+00  0.39168852890E+03  0.39168852890E+03  0.00000000000E+00 0. -1.
         -1   -1    0    0    0  501 -0.00000000000E+00 -0.00000000000E+00 -0.12410815356E+04  0.12410815356E+04  0.00000000000E+00 0.  1.
         25    1    1    2    0    0 -0.53509590672E+02 -0.64106358321E+02 -0.25101856157E+02  0.15240736417E+03  0.12500000000E+03 0.  0.
          2    1    1    2  502    0  0.78851656934E+02  0.21311447642E+02  0.32240373527E+03  0.33258973243E+03  0.00000000000E+00 0. -1.
         -2    1    1    2    0  501 -0.25342066262E+02  0.42794910679E+02 -0.11466948858E+04  0.11477729679E+04  0.00000000000E+00 0.  1.
<mgrwt>
<rscale>  0 0.63471450E+02</rscale>
<asrwt>0</asrwt>
<pdfrwt beam="1">  1        1 0.60259773E-01 0.81000917E+02</pdfrwt>
<pdfrwt beam="2">  1       -1 0.19093562E+00 0.49735548E+02</pdfrwt>
<totfact> 0.14166949E+01</totfact>
</mgrwt>
</event>
<event>
 5    1  0.8459321E-003  0.7351504E+02  0.7546771E-02  0.1349434E+00
         -2   -1    0    0    0  501  0.00000000000E+00  0.00000000000E+00  0.32026128946E+03  0.32026128946E+03  0.00000000000E+00 0.  1.
         -1   -1    0    0    0  502 -0.00000000000E+00 -0.00000000000E+00 -0.14624628143E+03  0.14624628143E+03  0.00000000000E+00 0.  1.
         25    1    1    2    0    0  0.21209881656E+02 -0.43184234030E+02  0.95948319742E+02  0.16475987743E+03  0.12500000000E+03 0.  0.
         -2    1    1    2    0  502  0.49145343609E+02  0.62471107196E+02 -0.89072953453E+02  0.11938130117E+03  0.00000000000E+00 0.  1.
         -1    1    1    2    0  501 -0.70355225265E+02 -0.19286873166E+02  0.16713964174E+03  0.18236639230E+03  0.00000000000E+00 0.  1.
<mgrwt>
<rscale>  0 0.73232450E+02</rscale>
<asrwt>0</asrwt>
<pdfrwt beam="1">  1       -2 0.49270967E-01 0.72950951E+02</pdfrwt>
<pdfrwt beam="2">  1       -1 0.22499428E-01 0.73515036E+02</pdfrwt>
<totfact> 0.47042929E+02</totfact>
</mgrwt>
</event>
<event>
 5    1  0.8459321E-003  0.5150534E+02  0.7546771E-02  0.1501891E+00
          2   -1    0    0  502    0  0.00000000000E+00  0.00000000000E+00  0.10379322900E+03  0.10379322900E+03  0.00000000000E+00 0. -1.
          1   -1    0    0  501    0 -0.00000000000E+00 -0.00000000000E+00 -0.19490966788E+04  0.19490966788E+04  0.00000000000E+00 0. -1.
         25    1    1    2    0    0  0.72665129685E+02 -0.34506999849E+02 -0.78108959453E+02  0.16791951542E+03  0.12500000000E+03 0.  0.
          2    1    1    2  501    0 -0.25836854057E+02  0.19606372209E+02 -0.18156601659E+04  0.18159498316E+04  0.00000000000E+00 0. -1.
          1    1    1    2  502    0 -0.46828275628E+02  0.14900627641E+02  0.48465675562E+02  0.69020560777E+02  0.00000000000E+00 0. -1.
<mgrwt>
<rscale>  0 0.40871934E+02</rscale>
<asrwt>0</asrwt>
<pdfrwt beam="1">  1        2 0.15968191E-01 0.51505338E+02</pdfrwt>
<pdfrwt beam="2">  1        1 0.29986099E+00 0.32433823E+02</pdfrwt>
<totfact> 0.21608688E+02</totfact>
</mgrwt>
</event>
<event>
 5    1  0.8459321E-003  0.1027980E+03  0.7546771E-02  0.1416076E+00
          1   -1    0    0  501    0 -0.00000000000E+00  0.00000000000E+00  0.32140621900E+03  0.32140621900E+03  0.00000000000E+00 0. -1.
          2   -1    0    0  502    0  0.00000000000E+00 -0.00000000000E+00 -0.12590309984E+04  0.12590309984E+04  0.00000000000E+00 0. -1.
         25    1    1    2    0    0  0.16931739825E+01  0.12445195557E+03 -0.14016094107E+03  0.22530256431E+03  0.12500000000E+03 0.  0.
          2    1    1    2  501    0 -0.18385856892E+02 -0.24152101619E+02  0.27559883476E+03  0.27726536290E+03  0.00000000000E+00 0. -1.
          1    1    1    2  502    0  0.16692682910E+02 -0.10029985395E+03 -0.10730626731E+04  0.10778692902E+04  0.00000000000E+00 0. -1.
<mgrwt>
<rscale>  0 0.55859905E+02</rscale>
<asrwt>0</asrwt>
<pdfrwt beam="2">  1        2 0.19369707E+00 0.10279804E+03</pdfrwt>
<pdfrwt beam="1">  1        1 0.49447112E-01 0.30353974E+02</pdfrwt>
<totfact> 0.21711020E+02</totfact>
</mgrwt>
</event>
<event>
 5    1  0.8459321E-003  0.7226414E+02  0.7546771E-02  0.1469907E+00
          1   -1    0    0  501    0 -0.00000000000E+00  0.00000000000E+00  0.35893527306E+02  0.35893527306E+02  0.00000000000E+00 0. -1.
          2   -1    0    0  502    0  0.00000000000E+00 -0.00000000000E+00 -0.16590188678E+04  0.16590188678E+04  0.00000000000E+00 0. -1.
         25    1    1    2    0    0  0.62658530108E+02 -0.51654502359E+02 -0.86764531095E+03  0.88035655539E+03  0.12500000000E+03 0.  0.
          2    1    1    2  501    0 -0.27190991977E+02 -0.98611224901E+01  0.20424841657E+02  0.35408557414E+02  0.00000000000E+00 0. -1.
          1    1    1    2  502    0 -0.35467538131E+02  0.61515624850E+02 -0.77590487116E+03  0.77914728226E+03  0.00000000000E+00 0. -1.
<mgrwt>
<rscale>  0 0.45718275E+02</rscale>
<asrwt>0</asrwt>
<pdfrwt beam="2">  1        2 0.25523370E+00 0.72264145E+02</pdfrwt>
<pdfrwt beam="1">  1        1 0.55220805E-02 0.28923896E+02</pdfrwt>
<totfact> 0.20178028E+03</totfact>
</mgrwt>
</event>
<event>
 5    1  0.8459321E-003  0.8065656E+02  0.7546771E-02  0.1491154E+00
          1   -1    0    0  501    0 -0.00000000000E+00  0.00000000000E+00  0.55303964609E+03  0.55303964609E+03  0.00000000000E+00 0. -1.
          2   -1    0    0  502    0  0.00000000000E+00 -0.00000000000E+00 -0.16675324127E+03  0.16675324127E+03  0.00000000000E+00 0. -1.
         25    1    1    2    0    0 -0.89782124971E+02  0.33080157584E+02 -0.13463668087E+02  0.15799176291E+03  0.12500000000E+03 0.  0.
          2    1    1    2  501    0  0.68897286576E+02 -0.40912313781E+02  0.47582447526E+03  0.48252418051E+03  0.00000000000E+00 0. -1.
          1    1    1    2  502    0  0.20884838395E+02  0.78321561966E+01 -0.76074402359E+02  0.79276943935E+02  0.00000000000E+00 0. -1.
<mgrwt>
<rscale>  0 0.42415275E+02</rscale>
<asrwt>0</asrwt>
<pdfrwt beam="2">  1        2 0.25654345E-01 0.22305137E+02</pdfrwt>
<pdfrwt beam="1">  1        1 0.85083022E-01 0.80656556E+02</pdfrwt>
<totfact> 0.10679101E+03</totfact>
</mgrwt>
</event>
<event>
 5    1  0.8459321E-003  0.3972916E+02  0.7546771E-02  0.1597746E+00
          1   -1    0    0  501    0 -0.00000000000E+00  0.00000000000E+00  0.14798124328E+04  0.14798124328E+04  0.00000000000E+00 0. -1.
          2   -1    0    0  502    0  0.00000000000E+00 -0.00000000000E+00 -0.19343809326E+04  0.19343809326E+04  0.00000000000E+00 0. -1.
         25    1    1    2    0    0 -0.44194799179E+02 -0.14478345391E+02 -0.13861678856E+04  0.13925692837E+04  0.12500000000E+03 0.  0.
          2    1    1    2  501    0  0.38991854216E+02 -0.76176120267E+01  0.14761079711E+04  0.14766425211E+04  0.00000000000E+00 0. -1.
          1    1    1    2  502    0  0.52029449631E+01  0.22095957418E+02 -0.54450858526E+03  0.54498156059E+03  0.00000000000E+00 0. -1.
<mgrwt>
<rscale>  0 0.30031023E+02</rscale>
<asrwt>0</asrwt>
<pdfrwt beam="2">  1        2 0.29759707E+00 0.22700264E+02</pdfrwt>
<pdfrwt beam="1">  1        1 0.22766345E+00 0.39729158E+02</pdfrwt>
<totfact> 0.12889878E+01</totfact>
</mgrwt>
</event>
<event>
 5    1  0.8459321E-003  0.4595625E+02  0.7546771E-02  0.1510618E+00
          1   -1    0    0  501    0 -0.00000000000E+00  0.00000000000E+00  0.20401095848E+03  0.20401095848E+03  0.00000000000E+00 0. -1.
          2   -1    0    0  502    0  0.00000000000E+00 -0.00000000000E+00 -0.20720455653E+03  0.20720455653E+03  0.00000000000E+00 0. -1.
         25    1    1    2    0    0  0.22051558501E+01 -0.27984751455E+02 -0.14120595593E+02  0.12888910057E+03  0.12500000000E+03 0.  0.
          2    1    1    2  501    0  0.34099157333E+02 -0.32322781300E+01  0.14027750551E+03  0.14439867972E+03  0.00000000000E+00 0. -1.
          1    1    1    2  502    0 -0.36304313184E+02  0.31217029585E+02 -0.12935050797E+03  0.13792773472E+03  0.00000000000E+00 0. -1.
<mgrwt>
<rscale>  0 0.39674854E+02</rscale>
<asrwt>0</asrwt>
<pdfrwt beam="2">  1        2 0.31877624E-01 0.45956253E+02</pdfrwt>
<pdfrwt beam="1">  1        1 0.31386301E-01 0.34252009E+02</pdfrwt>
<totfact> 0.29495287E+03</totfact>
</mgrwt>
</event>
<event>
 5    1  0.8459321E-003  0.7990499E+02  0.7546771E-02  0.1435877E+00
          2   -1    0    0  502    0  0.00000000000E+00  0.00000000000E+00  0.91471286163E+03  0.91471286163E+03  0.00000000000E+00 0. -1.
          1   -1    0    0  501    0 -0.00000000000E+00 -0.00000000000E+00 -0.25785459318E+04  0.25785459318E+04  0.00000000000E+00 0. -1.
         25    1    1    2    0    0 -0.18381552167E+02 -0.64435562650E+02 -0.26558891457E+03  0.30108519515E+03  0.12500000000E+03 0.  0.
          2    1    1    2  501    0 -0.11461198147E+02  0.79827170927E+02 -0.22941858760E+04  0.22956028772E+04  0.00000000000E+00 0. -1.
          1    1    1    2  502    0  0.29842750314E+02 -0.15391608277E+02  0.89594172044E+03  0.89657072101E+03  0.00000000000E+00 0. -1.
<mgrwt>
<rscale>  0 0.51798271E+02</rscale>
<asrwt>0</asrwt>
<pdfrwt beam="1">  1        2 0.14072506E+00 0.33578138E+02</pdfrwt>
<pdfrwt beam="2">  1        1 0.39669936E+00 0.79904992E+02</pdfrwt>
<totfact> 0.75500918E+00</totfact>
</mgrwt>
</event>
<event>
 5    1  0.8459321E-003  0.1237329E+03  0.7546771E-02  0.1336478E+00
          1   -1    0    0  501    0 -0.00000000000E+00  0.00000000000E+00  0.26314059994E+03  0.26314059994E+03  0.00000000000E+00 0. -1.
          2   -1    0    0  502    0  0.00000000000E+00 -0.00000000000E+00 -0.74616088185E+03  0.74616088185E+03  0.00000000000E+00 0. -1.
         25    1    1    2    0    0 -0.34040288725E+02  0.15098234476E+03  0.10448448164E+03  0.22471407742E+03  0.12500000000E+03 0.  0.
          2    1    1    2  501    0  0.12063476087E+02 -0.10778464621E+03  0.67529435342E+02  0.12776260037E+03  0.00000000000E+00 0. -1.
          1    1    1    2  502    0  0.21976812638E+02 -0.43197698551E+02 -0.65503419889E+03  0.65682480401E+03  0.00000000000E+00 0. -1.
<mgrwt>
<rscale>  0 0.77439815E+02</rscale>
<asrwt>0</asrwt>
<pdfrwt beam="2">  1        2 0.11479398E+00 0.48466705E+02</pdfrwt>
<pdfrwt beam="1">  1        1 0.40483169E-01 0.12373288E+03</pdfrwt>
<totfact> 0.57760189E+02</totfact>
</mgrwt>
</event>
<event>
 5    1  0.8459321E-003  0.5740194E+02  0.7546771E-02  0.1467496E+00
          2   -1    0    0  502    0  0.00000000000E+00  0.00000000000E+00  0.88271373660E+03  0.88271373660E+03  0.00000000000E+00 0. -1.
          1   -1    0    0  501    0 -0.00000000000E+00 -0.00000000000E+00 -0.16926795503E+02  0.16926795503E+02  0.00000000000E+00 0. -1.
         25    1    1    2    0    0 -0.57330526255E+02  0.34022120675E+02  0.50400782405E+03  0.52353909179E+03  0.12500000000E+03 0.  0.
          2    1    1    2  501    0  0.32624708233E+02  0.17555435646E+02  0.74714313545E+02  0.83395404889E+02  0.00000000000E+00 0. -1.
          1    1    1    2  502    0  0.24705818022E+02 -0.51577556321E+02  0.28706480350E+03  0.29270603542E+03  0.00000000000E+00 0. -1.
<mgrwt>
<rscale>  0 0.46115455E+02</rscale>
<asrwt>0</asrwt>
<pdfrwt beam="1">  1        2 0.13580208E+00 0.57401938E+02</pdfrwt>
<pdfrwt beam="2">  1        1 0.26041231E-02 0.37048143E+02</pdfrwt>
<totfact> 0.14760581E+04</totfact>
</mgrwt>
</event>
<event>
 5    1  0.8459321E-003  0.5116114E+02  0.7546771E-02  0.1463889E+00
          1   -1    0    0  501    0 -0.00000000000E+00  0.00000000000E+00  0.28764547342E+03  0.28764547342E+03  0.00000000000E+00 0. -1.
          2   -1    0    0  502    0  0.00000000000E+00 -0.00000000000E+00 -0.12470717350E+03  0.12470717350E+03  0.00000000000E+00 0. -1.
         25    1    1    2    0    0  0.79228686981E+01 -0.90119475223E+02  0.10672036801E+03  0.18761270909E+03  0.12500000000E+03 0.  0.
          2    1    1    2  501    0 -0.11638945659E+02  0.41043512606E+02  0.12956656228E+03  0.13640941699E+03  0.00000000000E+00 0. -1.
          1    1    1    2  502    0  0.37160769607E+01  0.49075962618E+02 -0.73348630365E+02  0.88330520837E+02  0.00000000000E+00 0. -1.
<mgrwt>
<rscale>  0 0.46718625E+02</rscale>
<asrwt>0</asrwt>
<pdfrwt beam="2">  1        2 0.19185719E-01 0.51161144E+02</pdfrwt>
<pdfrwt beam="1">  1        1 0.44253150E-01 0.42661868E+02</pdfrwt>
<totfact> 0.34054304E+03</totfact>
</mgrwt>
</event>
<event>
 5    1  0.8459321E-003  0.1348434E+03  0.7546771E-02  0.1308005E+00
          1   -1    0    0  502    0  0.00000000000E+00  0.00000000000E+00  0.74367886537E+03  0.74367886537E+03  0.00000000000E+00 0. -1.
         -1   -1    0    0    0  501 -0.00000000000E+00 -0.00000000000E+00 -0.27622914562E+03  0.27622914562E+03  0.00000000000E+00 0.  1.
         25    1    1    2    0    0 -0.90521410541E+02 -0.12084099688E+03 -0.15571342862E+02  0.19663198878E+03  0.12500000000E+03 0.  0.
          2    1    1    2  502    0  0.11531207964E+03  0.69174569723E+02  0.64114162435E+03  0.65509127553E+03  0.00000000000E+00 0. -1.
         -2    1    1    2    0  501 -0.24790669094E+02  0.51666427155E+02 -0.15812056174E+03  0.16818474667E+03  0.00000000000E+00 0.  1.
<mgrwt>
<rscale>  0 0.87905392E+02</rscale>
<asrwt>0</asrwt>
<pdfrwt beam="1">  1        1 0.11441213E+00 0.13484339E+03</pdfrwt>
<pdfrwt beam="2">  1       -1 0.42496792E-01 0.57306169E+02</pdfrwt>
<totfact> 0.14862740E+02</totfact>
</mgrwt>
</event>
<event>
 5    1  0.8459321E-003  0.4636355E+02  0.7546771E-02  0.1472836E+00
          1   -1    0    0  501    0 -0.00000000000E+00  0.00000000000E+00  0.82274437273E+03  0.82274437273E+03  0.00000000000E+00 0. -1.
          2   -1    0    0  502    0  0.00000000000E+00 -0.00000000000E+00 -0.75764841162E+02  0.75764841162E+02  0.00000000000E+00 0. -1.
         25    1    1    2    0    0 -0.13291626253E+01 -0.45946983898E+01  0.20790538909E+03  0.24263661871E+03  0.12500000000E+03 0.  0.
          2    1    1    2  501    0  0.12310911072E+02 -0.42396676709E+02  0.58653087883E+03  0.58819002758E+03  0.00000000000E+00 0. -1.
          1    1    1    2  502    0 -0.10981748446E+02  0.46991375099E+02 -0.47456736347E+02  0.67682567603E+02  0.00000000000E+00 0. -1.
<mgrwt>
<rscale>  0 0.45242160E+02</rscale>
<asrwt>0</asrwt>
<pdfrwt beam="2">  1        2 0.11656130E-01 0.46363546E+02</pdfrwt>
<pdfrwt beam="1">  1        1 0.12657605E+00 0.44147896E+02</pdfrwt>
<totfact> 0.15745847E+03</totfact>
</mgrwt>
</event>
<event>
 5    1  0.8459321E-003  0.7383933E+02  0.7546771E-02  0.1462040E+00
          2   -1    0    0  502    0  0.00000000000E+00  0.00000000000E+00  0.10253265581E+04  0.10253265581E+04  0.00000000000E+00 0. -1.
          1   -1    0    0  501    0 -0.00000000000E+00 -0.00000000000E+00 -0.43670114147E+03  0.43670114147E+03  0.00000000000E+00 0. -1.
         25    1    1    2    0    0 -0.88982169028E+01 -0.99402832653E+02  0.73696576077E+02  0.17611441375E+03  0.12500000000E+03 0.  0.
          2    1    1    2  501    0  0.18071452767E+02  0.70884542098E+02 -0.38176946646E+03  0.38871470416E+03  0.00000000000E+00 0. -1.
          1    1    1    2  502    0 -0.91732358642E+01  0.28518290555E+02  0.89669830703E+03  0.89719858169E+03  0.00000000000E+00 0. -1.
<mgrwt>
<rscale>  0 0.47032209E+02</rscale>
<asrwt>0</asrwt>
<pdfrwt beam="1">  1        2 0.15774255E+00 0.29957322E+02</pdfrwt>
<pdfrwt beam="2">  1        1 0.67184791E-01 0.73839334E+02</pdfrwt>
<totfact> 0.21550649E+02</totfact>
</mgrwt>
</event>
<event>
 5    1  0.8459321E-003  0.1969049E+03  0.7546771E-02  0.1273130E+00
          1   -1    0    0  501    0 -0.00000000000E+00  0.00000000000E+00  0.11343344897E+03  0.11343344897E+03  0.00000000000E+00 0. -1.
          2   -1    0    0  502    0  0.00000000000E+00 -0.00000000000E+00 -0.25997284882E+04  0.25997284882E+04  0.00000000000E+00 0. -1.
         25    1    1    2    0    0 -0.18241412022E+03  0.11038589865E+03 -0.36049368407E+03  0.43708197644E+03  0.12500000000E+03 0.  0.
          2    1    1    2  501    0  0.18503703575E+03 -0.56060100628E+02 -0.50183197210E+02  0.19974932482E+03  0.00000000000E+00 0. -1.
          1    1    1    2  502    0 -0.26229155356E+01 -0.54325798021E+02 -0.20756181579E+04  0.20763306359E+04  0.00000000000E+00 0. -1.
<mgrwt>
<rscale>  0 0.10348660E+03</rscale>
<asrwt>0</asrwt>
<pdfrwt beam="2">  1        2 0.39995820E+00 0.54389080E+02</pdfrwt>
<pdfrwt beam="1">  1        1 0.17451301E-01 0.19690491E+03</pdfrwt>
<totfact> 0.18111337E+02</totfact>
</mgrwt>
</event>
<event>
 5    1  0.8459321E-003  0.8059179E+02  0.7546771E-02  0.1460273E+00
          2   -1    0    0  502    0  0.00000000000E+00  0.00000000000E+00  0.28930498602E+04  0.28930498602E+04  0.00000000000E+00 0. -1.
         -2   -1    0    0    0  501 -0.00000000000E+00 -0.00000000000E+00 -0.25441919347E+02  0.25441919347E+02  0.00000000000E+00 0.  1.
         25    1    1    2    0    0  0.91231389724E+02 -0.51367738752E+02  0.15059578695E+04  0.15147593590E+04  0.12500000000E+03 0.  0.
          1    1    1    2  502    0 -0.17638961326E+02  0.21489004987E+02  0.13070579029E+04  0.13073535374E+04  0.00000000000E+00 0. -1.
         -1    1    1    2    0  501 -0.73592428398E+02  0.29878733765E+02  0.54592168446E+02  0.96378883084E+02  0.00000000000E+00 0.  1.
<mgrwt>
<rscale>  0 0.47334487E+02</rscale>
<asrwt>0</asrwt>
<pdfrwt beam="1">  1        2 0.44508433E+00 0.27801264E+02</pdfrwt>
<pdfrwt beam="2">  1       -2 0.39141437E-02 0.80591792E+02</pdfrwt>
<totfact> 0.87700214E+02</totfact>
</mgrwt>
</event>
<event>
 5    1  0.8459321E-003  0.6700310E+02  0.7546771E-02  0.1433745E+00
          2   -1    0    0  502    0  0.00000000000E+00  0.00000000000E+00  0.63642119094E+03  0.63642119094E+03  0.00000000000E+00 0. -1.
          1   -1    0    0  501    0 -0.00000000000E+00 -0.00000000000E+00 -0.43820230769E+03  0.43820230769E+03  0.00000000000E+00 0. -1.
         25    1    1    2    0    0 -0.74891820406E+02  0.49915128208E+02  0.34293017314E+03  0.37593404799E+03  0.12500000000E+03 0.  0.
          2    1    1    2  501    0  0.12692979616E+02 -0.38661409889E+02 -0.41709125935E+03  0.41907151535E+03  0.00000000000E+00 0. -1.
          1    1    1    2  502    0  0.62198840790E+02 -0.11253718319E+02  0.27237996946E+03  0.27961793529E+03  0.00000000000E+00 0. -1.
<mgrwt>
<rscale>  0 0.52215627E+02</rscale>
<asrwt>0</asrwt>
<pdfrwt beam="1">  1        2 0.97910953E-01 0.67003102E+02</pdfrwt>
<pdfrwt beam="2">  1        1 0.67415739E-01 0.40691723E+02</pdfrwt>
<totfact> 0.36993312E+02</totfact>
</mgrwt>
</event>
<event>
 5    1  0.8459321E-003  0.6843632E+02  0.7546771E-02  0.1368151E+00
          2   -1    0    0  502    0  0.00000000000E+00  0.00000000000E+00  0.10251312721E+04  0.10251312721E+04  0.00000000000E+00 0. -1.
          1   -1    0    0  501    0 -0.00000000000E+00 -0.00000000000E+00 -0.43853594159E+03  0.43853594159E+03  0.00000000000E+00 0. -1.
         25    1    1    2    0    0 -0.15476704739E+02  0.28941584392E+02  0.56120458400E+03  0.57589298380E+03  0.12500000000E+03 0.  0.
          2    1    1    2  501    0 -0.62555661805E+02  0.23826210254E+02 -0.42367721676E+03  0.42893272564E+03  0.00000000000E+00 0. -1.
          1    1    1    2  502    0  0.78032366543E+02 -0.52767794645E+02  0.44906796331E+03  0.45884150429E+03  0.00000000000E+00 0. -1.
<mgrwt>
<rscale>  0 0.67683780E+02</rscale>
<asrwt>0</asrwt>
<pdfrwt beam="1">  1        2 0.15771250E+00 0.68436316E+02</pdfrwt>
<pdfrwt beam="2">  1        1 0.67467068E-01 0.66939518E+02</pdfrwt>
<totfact> 0.20518881E+02</totfact>
</mgrwt>
</event>
<event>
 5    1  0.8459321E-003  0.4339174E+02  0.7546771E-02  0.1516256E+00
          2   -1    0    0  502    0  0.00000000000E+00  0.00000000000E+00  0.26797854120E+03  0.26797854120E+03  0.00000000000E+00 0. -1.
          1   -1    0    0  501    0 -0.00000000000E+00 -0.00000000000E+00 -0.87806085503E+03  0.87806085503E+03  0.00000000000E+00 0. -1.
         25    1    1    2    0    0 -0.70453304969E+01  0.65141121857E+02 -0.80161149298E+02  0.16230777029E+03  0.12500000000E+03 0.  0.
          2    1    1    2  501    0  0.23935880327E+02 -0.25429392469E+02 -0.75436691750E+03  0.75517483180E+03  0.00000000000E+00 0. -1.
          1    1    1    2  502    0 -0.16890549830E+02 -0.39711729389E+02  0.22444575297E+03  0.22855679415E+03  0.00000000000E+00 0. -1.
<mgrwt>
<rscale>  0 0.38927466E+02</rscale>
<asrwt>0</asrwt>
<pdfrwt beam="1">  1        2 0.41227468E-01 0.43391739E+02</pdfrwt>
<pdfrwt beam="2">  1        1 0.13508628E+00 0.34922491E+02</pdfrwt>
<totfact> 0.36868810E+02</totfact>
</mgrwt>
</event>
<event>
 5    1  0.8459321E-003  0.1162033E+03  0.7546771E-02  0.1368842E+00
          1   -1    0    0  501    0 -0.00000000000E+00  0.00000000000E+00  0.70264856983E+03  0.70264856983E+03  0.00000000000E+00 0. -1.
          2   -1    0    0  502    0  0.00000000000E+00 -0.00000000000E+00 -0.46600053778E+03  0.46600053778E+03  0.00000000000E+00 0. -1.
         25    1    1    2    0    0  0.57873452019E+02 -0.57713795702E+02  0.11563320867E+03  0.18888159680E+03  0.12500000000E+03 0.  0.
          2    1    1    2  501    0  0.12419194287E+02 -0.37178401192E+02  0.54154970810E+03  0.54296644118E+03  0.00000000000E+00 0. -1.
          3    1    1    2  502    0 -0.70292646305E+02  0.94892196894E+02 -0.42053488472E+03  0.43680106962E+03  0.00000000000E+00 0. -1.
<mgrwt>
<rscale>  0 0.67490133E+02</rscale>
<asrwt>0</asrwt>
<pdfrwt beam="2">  1        2 0.71692390E-01 0.11620332E+03</pdfrwt>
<pdfrwt beam="1">  1        1 0.10809978E+00 0.39197830E+02</pdfrwt>
<totfact> 0.28298840E+02</totfact>
</mgrwt>
</event>
<event>
 5    1  0.8459321E-003  0.1115801E+03  0.7546771E-02  0.1413487E+00
          2   -1    0    0  502    0  0.00000000000E+00  0.00000000000E+00  0.33343739890E+03  0.33343739890E+03  0.00000000000E+00 0. -1.
          1   -1    0    0  501    0 -0.00000000000E+00 -0.00000000000E+00 -0.17560534046E+04  0.17560534046E+04  0.00000000000E+00 0. -1.
         25    1    1    2    0    0  0.80609109697E+02  0.24986040228E+02 -0.10385248576E+04  0.10494193683E+04  0.12500000000E+03 0.  0.
          2    1    1    2  501    0  0.23198115239E+02  0.16610256657E+02 -0.70225073831E+03  0.70283010226E+03  0.00000000000E+00 0. -1.
          1    1    1    2  502    0 -0.10380722494E+03 -0.41596296885E+02  0.31815959015E+03  0.33724133297E+03  0.00000000000E+00 0. -1.
<mgrwt>
<rscale>  0 0.56423060E+02</rscale>
<asrwt>0</asrwt>
<pdfrwt beam="1">  1        2 0.51298061E-01 0.11158014E+03</pdfrwt>
<pdfrwt beam="2">  1        1 0.27016206E+00 0.28531617E+02</pdfrwt>
<totfact> 0.83534383E+01</totfact>
</mgrwt>
</event>
<event>
 5    1  0.8459321E-003  0.1166187E+03  0.7546771E-02  0.1395636E+00
          2   -1    0    0  502    0  0.00000000000E+00  0.00000000000E+00  0.18273297038E+04  0.18273297038E+04  0.00000000000E+00 0. -1.
         -2   -1    0    0    0  501 -0.00000000000E+00 -0.00000000000E+00 -0.14428644968E+03  0.14428644968E+03  0.00000000000E+00 0.  1.
         25    1    1    2    0    0  0.10318241333E+03 -0.37258215198E+02  0.13349046187E+03  0.21325920479E+03  0.12500000000E+03 0.  0.
          1    1    1    2  502    0 -0.11683317591E+03  0.89653031285E+01  0.16494654007E+04  0.16536222289E+04  0.00000000000E+00 0. -1.
         -3    1    1    2    0  501  0.13650762589E+02  0.28292912070E+02 -0.99912608498E+02  0.10473471979E+03  0.00000000000E+00 0.  1.
<mgrwt>
<rscale>  0 0.60526420E+02</rscale>
<asrwt>0</asrwt>
<pdfrwt beam="1">  1        2 0.28112763E+00 0.11661873E+03</pdfrwt>
<pdfrwt beam="2">  1       -2 0.22197917E-01 0.31413885E+02</pdfrwt>
<totfact> 0.16198296E+02</totfact>
</mgrwt>
</event>
<event>
 5    1  0.8459321E-003  0.2145045E+03  0.7546771E-02  0.1164911E+00
         -2   -1    0    0    0  501 -0.00000000000E+00  0.00000000000E+00  0.18009923749E+03  0.18009923749E+03  0.00000000000E+00 0.  1.
          2   -1    0    0  502    0  0.00000000000E+00 -0.00000000000E+00 -0.25299637958E+04  0.25299637958E+04  0.00000000000E+00 0. -1.
         25    1    1    2    0    0  0.13127805344E+03 -0.29752501675E+03 -0.20082265039E+03  0.40213157028E+03  0.12500000000E+03 0.  0.
          1    1    1    2  502    0 -0.96383140896E+02  0.12286569734E+03 -0.21220485632E+04  0.21277865951E+04  0.00000000000E+00 0. -1.
         -1    1    1    2    0  501 -0.34894912547E+02  0.17465931941E+03 -0.26993344657E+02  0.18014486791E+03  0.00000000000E+00 0.  1.
<mgrwt>
<rscale>  0 0.18302144E+03</rscale>
<asrwt>0</asrwt>
<pdfrwt beam="2">  1        2 0.38922518E+00 0.15615918E+03</pdfrwt>
<pdfrwt beam="1">  1       -2 0.27707576E-01 0.21450451E+03</pdfrwt>
<totfact> 0.49227025E+01</totfact>
</mgrwt>
</event>
<event>
 5    1  0.8459321E-003  0.1269599E+03  0.7546771E-02  0.1397864E+00
          2   -1    0    0  502    0  0.00000000000E+00  0.00000000000E+00  0.33150791893E+04  0.33150791893E+04  0.00000000000E+00 0. -1.
          1   -1    0    0  501    0 -0.00000000000E+00 -0.00000000000E+00 -0.21845239833E+02  0.21845239833E+02  0.00000000000E+00 0. -1.
         25    1    1    2    0    0 -0.78676292799E+02  0.84886404115E+02  0.75060304816E+03  0.76969188417E+03  0.12500000000E+03 0.  0.
          2    1    1    2  501    0 -0.26577386539E+02 -0.98621367950E+01  0.82035262559E+01  0.29511303944E+02  0.00000000000E+00 0. -1.
          1    1    1    2  502    0  0.10525367934E+03 -0.75024267320E+02  0.25344273751E+04  0.25377212410E+04  0.00000000000E+00 0. -1.
<mgrwt>
<rscale>  0 0.59992354E+02</rscale>
<asrwt>0</asrwt>
<pdfrwt beam="1">  1        2 0.51001178E+00 0.12695992E+03</pdfrwt>
<pdfrwt beam="2">  1        1 0.33608088E-02 0.28348178E+02</pdfrwt>
<totfact> 0.46172923E+02</totfact>
</mgrwt>
</event>
<event>
 5    1  0.8459321E-003  0.2170012E+03  0.7546771E-02  0.1322280E+00
          1   -1    0    0  501    0 -0.00000000000E+00  0.00000000000E+00  0.16618565278E+03  0.16618565278E+03  0.00000000000E+00 0. -1.
          2   -1    0    0  502    0  0.00000000000E+00 -0.00000000000E+00 -0.20616671117E+04  0.20616671117E+04  0.00000000000E+00 0. -1.
         25    1    1    2    0    0 -0.20649201417E+03 -0.11726500260E+03 -0.53697628740E+03  0.60029873062E+03  0.12500000000E+03 0.  0.
          2    1    1    2  501    0  0.17560328099E+03  0.12241844421E+03  0.49082890549E+02  0.21961766305E+03  0.00000000000E+00 0. -1.
          1    1    1    2  502    0  0.30888733174E+02 -0.51534416071E+01 -0.14075880620E+04  0.14079363708E+04  0.00000000000E+00 0. -1.
<mgrwt>
<rscale>  0 0.82435068E+02</rscale>
<asrwt>0</asrwt>
<pdfrwt beam="2">  1        2 0.31717954E+00 0.31315680E+02</pdfrwt>
<pdfrwt beam="1">  1        1 0.25567025E-01 0.21700121E+03</pdfrwt>
<totfact> 0.22240540E+02</totfact>
</mgrwt>
</event>
<event>
 5    1  0.8459321E-003  0.9846443E+02  0.7546771E-02  0.1429525E+00
          1   -1    0    0  502    0  0.00000000000E+00  0.00000000000E+00  0.19327774353E+04  0.19327774353E+04  0.00000000000E+00 0. -1.
         -1   -1    0    0    0  501 -0.00000000000E+00 -0.00000000000E+00 -0.40844525649E+03  0.40844525649E+03  0.00000000000E+00 0.  1.
         25    1    1    2    0    0  0.64533676613E+02 -0.99130540129E+02  0.91226080572E+02  0.19477848233E+03  0.12500000000E+03 0.  0.
          2    1    1    2  502    0  0.28097806140E+01  0.28449416784E+02  0.17829778854E+04  0.17832070558E+04  0.00000000000E+00 0. -1.
         -2    1    1    2    0  501 -0.67343457227E+02  0.70681123346E+02 -0.34987178708E+03  0.36323715369E+03  0.00000000000E+00 0.  1.
<mgrwt>
<rscale>  0 0.53055486E+02</rscale>
<asrwt>0</asrwt>
<pdfrwt beam="1">  1        1 0.29735037E+00 0.28587833E+02</pdfrwt>
<pdfrwt beam="2">  1       -1 0.62837733E-01 0.98464427E+02</pdfrwt>
<totfact> 0.13529454E+01</totfact>
</mgrwt>
</event>
<event>
 5    1  0.8459321E-003  0.1011937E+03  0.7546771E-02  0.1295882E+00
         -1   -1    0    0    0  501 -0.00000000000E+00  0.00000000000E+00  0.15210325097E+04  0.15210325097E+04  0.00000000000E+00 0.  1.
          1   -1    0    0  502    0  0.00000000000E+00 -0.00000000000E+00 -0.62678936642E+03  0.62678936642E+03  0.00000000000E+00 0. -1.
         25    1    1    2    0    0 -0.12139202126E+03 -0.13932196861E+03  0.59539275645E+02  0.23090378755E+03  0.12500000000E+03 0.  0.
          2    1    1    2  502    0  0.56790156088E+02  0.63729331448E+02 -0.53592825050E+03  0.54268373773E+03  0.00000000000E+00 0. -1.
         -2    1    1    2    0  501  0.64601865177E+02  0.75592637158E+02  0.13706321181E+04  0.13742343508E+04  0.00000000000E+00 0.  1.
<mgrwt>
<rscale>  0 0.92940977E+02</rscale>
<asrwt>0</asrwt>
<pdfrwt beam="2">  1        1 0.96429134E-01 0.85361288E+02</pdfrwt>
<pdfrwt beam="1">  1       -1 0.23400500E+00 0.10119371E+03</pdfrwt>
<totfact> 0.38604478E+00</totfact>
</mgrwt>
</event>
<event>
 5    1  0.8459321E-003  0.2197850E+03  0.7546771E-02  0.1228163E+00
          2   -1    0    0  502    0  0.00000000000E+00  0.00000000000E+00  0.19590762510E+04  0.19590762510E+04  0.00000000000E+00 0. -1.
          1   -1    0    0  501    0 -0.00000000000E+00 -0.00000000000E+00 -0.19876221822E+04  0.19876221822E+04  0.00000000000E+00 0. -1.
         25    1    1    2    0    0  0.13321138146E+02 -0.14745143129E+03  0.21705359688E+03  0.29095814343E+03  0.12500000000E+03 0.  0.
          2    1    1    2  501    0  0.50991100095E+01  0.22152733195E+03 -0.19435169228E+04  0.19561079696E+04  0.00000000000E+00 0. -1.
          3    1    1    2  502    0 -0.18420248155E+02 -0.74075900659E+02  0.16979173947E+04  0.16996323202E+04  0.00000000000E+00 0. -1.
<mgrwt>
<rscale>  0 0.12952447E+03</rscale>
<asrwt>0</asrwt>
<pdfrwt beam="1">  1        2 0.30139634E+00 0.76331806E+02</pdfrwt>
<pdfrwt beam="2">  1        1 0.30578803E+00 0.21978504E+03</pdfrwt>
<totfact> 0.43194798E+00</totfact>
</mgrwt>
</event>
<event>
 5    1  0.8459321E-003  0.6249686E+02  0.7546771E-02  0.1501379E+00
          1   -1    0    0  501    0 -0.00000000000E+00  0.00000000000E+00  0.15150546021E+02  0.15150546021E+02  0.00000000000E+00 0. -1.
          2   -1    0    0  502    0  0.00000000000E+00 -0.00000000000E+00 -0.26099951633E+04  0.26099951633E+04  0.00000000000E+00 0. -1.
         25    1    1    2    0    0 -0.30904840734E+02 -0.21467704027E+02 -0.11661114817E+04  0.11733954829E+04  0.12500000000E+03 0.  0.
          2    1    1    2  501    0  0.53596280431E+02  0.35771571298E+02 -0.79879565777E+02  0.10262997427E+03  0.00000000000E+00 0. -1.
          1    1    1    2  502    0 -0.22691439697E+02 -0.14303867270E+02 -0.13488535698E+04  0.13491202522E+04  0.00000000000E+00 0. -1.
<mgrwt>
<rscale>  0 0.40943703E+02</rscale>
<asrwt>0</asrwt>
<pdfrwt beam="2">  1        2 0.40153756E+00 0.26823535E+02</pdfrwt>
<pdfrwt beam="1">  1        1 0.23308541E-02 0.62496862E+02</pdfrwt>
<totfact> 0.27135043E+03</totfact>
</mgrwt>
</event>
<event>
 5    1  0.8459321E-003  0.1630131E+03  0.7546771E-02  0.1261160E+00
          1   -1    0    0  501    0 -0.00000000000E+00  0.00000000000E+00  0.12965369368E+04  0.12965369368E+04  0.00000000000E+00 0. -1.
          2   -1    0    0  502    0  0.00000000000E+00 -0.00000000000E+00 -0.50607236616E+03  0.50607236616E+03  0.00000000000E+00 0. -1.
         25    1    1    2    0    0 -0.53314394448E+02 -0.19402422629E+03 -0.32677736941E+03  0.40360410578E+03  0.12500000000E+03 0.  0.
          2    1    1    2  501    0  0.40081603031E+02  0.61964895204E+02  0.12255072210E+04  0.12277272221E+04  0.00000000000E+00 0. -1.
          1    1    1    2  502    0  0.13232791417E+02  0.13205933109E+03 -0.10826528095E+03  0.17127797510E+03  0.00000000000E+00 0. -1.
<mgrwt>
<rscale>  0 0.10968175E+03</rscale>
<asrwt>0</asrwt>
<pdfrwt beam="2">  1        2 0.77857288E-01 0.16301314E+03</pdfrwt>
<pdfrwt beam="1">  1        1 0.19946722E+00 0.73798260E+02</pdfrwt>
<totfact> 0.92628783E+01</totfact>
</mgrwt>
</event>
<event>
 5    1  0.8459321E-003  0.5558619E+02  0.7546771E-02  0.1448870E+00
          2   -1    0    0  502    0  0.00000000000E+00  0.00000000000E+00  0.45019913747E+03  0.45019913747E+03  0.00000000000E+00 0. -1.
          1   -1    0    0  501    0 -0.00000000000E+00 -0.00000000000E+00 -0.46510200793E+03  0.46510200793E+03  0.00000000000E+00 0. -1.
         25    1    1    2    0    0  0.86026059091E+02  0.37306185979E+02 -0.14137274998E+03  0.21072135343E+03  0.12500000000E+03 0.  0.
          2    1    1    2  501    0 -0.43782125804E+02 -0.17326036881E+01 -0.28554137090E+03  0.28888362873E+03  0.00000000000E+00 0. -1.
          3    1    1    2  502    0 -0.42243933288E+02 -0.35573582291E+02  0.41201125042E+03  0.41569616324E+03  0.00000000000E+00 0. -1.
<mgrwt>
<rscale>  0 0.49351662E+02</rscale>
<asrwt>0</asrwt>
<pdfrwt beam="1">  1        2 0.69261406E-01 0.55586191E+02</pdfrwt>
<pdfrwt beam="2">  1        1 0.71554155E-01 0.43816395E+02</pdfrwt>
<totfact> 0.50016739E+02</totfact>
</mgrwt>
</event>
<event>
 5    1  0.8459321E-003  0.5939063E+02  0.7546771E-02  0.1405530E+00
          2   -1    0    0  502    0  0.00000000000E+00  0.00000000000E+00  0.11911012650E+04  0.11911012650E+04  0.00000000000E+00 0. -1.
          1   -1    0    0  501    0 -0.00000000000E+00 -0.00000000000E+00 -0.62314253861E+02  0.62314253861E+02  0.00000000000E+00 0. -1.
         25    1    1    2    0    0 -0.82064587470E+01  0.10677825152E+03  0.35844648499E+03  0.39443354772E+03  0.12500000000E+03 0.  0.
          2    1    1    2  501    0  0.24084180576E+02 -0.51992794605E+02 -0.24341153617E+02  0.62255844740E+02  0.00000000000E+00 0. -1.
          1    1    1    2  502    0 -0.15877721829E+02 -0.54785456914E+02  0.79468167974E+03  0.79672612638E+03  0.00000000000E+00 0. -1.
<mgrwt>
<rscale>  0 0.58203390E+02</rscale>
<asrwt>0</asrwt>
<pdfrwt beam="1">  1        2 0.18324633E+00 0.57039884E+02</pdfrwt>
<pdfrwt beam="2">  1        1 0.95868091E-02 0.59390630E+02</pdfrwt>
<totfact> 0.18692285E+03</totfact>
</mgrwt>
</event>
<event>
 5    1  0.8459321E-003  0.6947073E+02  0.7546771E-02  0.1439722E+00
          2   -1    0    0  502    0  0.00000000000E+00  0.00000000000E+00  0.65338030599E+03  0.65338030599E+03  0.00000000000E+00 0. -1.
          1   -1    0    0  501    0 -0.00000000000E+00 -0.00000000000E+00 -0.41627747559E+03  0.41627747559E+03  0.00000000000E+00 0. -1.
         25    1    1    2    0    0 -0.67965598865E+02 -0.71088318772E+02 -0.65194992874E+02  0.17189606974E+03  0.12500000000E+03 0.  0.
          2    1    1    2  501    0  0.81245310884E+01  0.36634012439E+02 -0.29455112685E+03  0.29693168440E+03  0.00000000000E+00 0. -1.
          1    1    1    2  502    0  0.59841067776E+02  0.34454306333E+02  0.59684895012E+03  0.60083002744E+03  0.00000000000E+00 0. -1.
<mgrwt>
<rscale>  0 0.51057099E+02</rscale>
<asrwt>0</asrwt>
<pdfrwt beam="1">  1        2 0.10052005E+00 0.69470730E+02</pdfrwt>
<pdfrwt beam="2">  1        1 0.64042688E-01 0.37524111E+02</pdfrwt>
<totfact> 0.38216573E+02</totfact>
</mgrwt>
</event>
<event>
 5    1  0.8459321E-003  0.1472636E+03  0.7546771E-02  0.1312549E+00
          2   -1    0    0  502    0  0.00000000000E+00  0.00000000000E+00  0.41096561669E+04  0.41096561669E+04  0.00000000000E+00 0. -1.
          1   -1    0    0  501    0 -0.00000000000E+00 -0.00000000000E+00 -0.40973217223E+03  0.40973217223E+03  0.00000000000E+00 0. -1.
         25    1    1    2    0    0  0.12460847825E+03  0.14427093079E+03  0.82635271355E+03  0.85721944770E+03  0.12500000000E+03 0.  0.
          2    1    1    2  501    0 -0.42208040709E+02 -0.27459594204E+02 -0.39112069339E+03  0.39434876038E+03  0.00000000000E+00 0. -1.
          1    1    1    2  502    0 -0.82400437545E+02 -0.11681133659E+03  0.32646919745E+04  0.32678201311E+04  0.00000000000E+00 0. -1.
<mgrwt>
<rscale>  0 0.86112405E+02</rscale>
<asrwt>0</asrwt>
<pdfrwt beam="1">  1        2 0.63225477E+00 0.14726363E+03</pdfrwt>
<pdfrwt beam="2">  1        1 0.63035722E-01 0.50354225E+02</pdfrwt>
<totfact> 0.34363930E+00</totfact>
</mgrwt>
</event>
<event>
 5    1  0.8459321E-003  0.5833316E+02  0.7546771E-02  0.1453565E+00
          2   -1    0    0  502    0  0.00000000000E+00  0.00000000000E+00  0.10653233488E+04  0.10653233488E+04  0.00000000000E+00 0. -1.
          1   -1    0    0  501    0 -0.00000000000E+00 -0.00000000000E+00 -0.82036328343E+03  0.82036328343E+03  0.00000000000E+00 0. -1.
         25    1    1    2    0    0  0.17515111478E+02  0.50409619852E+01  0.50959884268E+03  0.52502206705E+03  0.12500000000E+03 0.  0.
          2    1    1    2  501    0 -0.57526502799E+02 -0.10148570259E+02 -0.81085731726E+03  0.81295872033E+03  0.00000000000E+00 0. -1.
          1    1    1    2  502    0  0.40011391322E+02  0.51076082736E+01  0.54621853997E+03  0.54770584487E+03  0.00000000000E+00 0. -1.
<mgrwt>
<rscale>  0 0.48507018E+02</rscale>
<asrwt>0</asrwt>
<pdfrwt beam="1">  1        2 0.16389590E+00 0.40336077E+02</pdfrwt>
<pdfrwt beam="2">  1        1 0.12620974E+00 0.58333160E+02</pdfrwt>
<totfact> 0.87617022E+01</totfact>
</mgrwt>
</event>
<event>
 5    1  0.8459321E-003  0.1317396E+03  0.7546771E-02  0.1367851E+00
          1   -1    0    0  501    0 -0.00000000000E+00  0.00000000000E+00  0.42502673842E+03  0.42502673842E+03  0.00000000000E+00 0. -1.
          2   -1    0    0  502    0  0.00000000000E+00 -0.00000000000E+00 -0.32935151451E+03  0.32935151451E+03  0.00000000000E+00 0. -1.
         25    1    1    2    0    0 -0.47275334039E+02  0.15536762528E+03 -0.28869258202E+02  0.20696011757E+03  0.12500000000E+03 0.  0.
          2    1    1    2  501    0  0.44455937655E+02 -0.12062099072E+03  0.32210248280E+03  0.34680796303E+03  0.00000000000E+00 0. -1.
          1    1    1    2  502    0  0.28193963844E+01 -0.34746634563E+02 -0.19755800069E+03  0.20061017234E+03  0.00000000000E+00 0. -1.
<mgrwt>
<rscale>  0 0.67768365E+02</rscale>
<asrwt>0</asrwt>
<pdfrwt beam="2">  1        2 0.50669464E-01 0.34860832E+02</pdfrwt>
<pdfrwt beam="1">  1        1 0.65388729E-01 0.13173958E+03</pdfrwt>
<totfact> 0.75546015E+02</totfact>
</mgrwt>
</event>
<event>
 5    1  0.8459321E-003  0.9915092E+02  0.7546771E-02  0.1293152E+00
         -2   -1    0    0    0  501 -0.00000000000E+00  0.00000000000E+00  0.24224509662E+03  0.24224509662E+03  0.00000000000E+00 0.  1.
          2   -1    0    0  502    0  0.00000000000E+00 -0.00000000000E+00 -0.21012977310E+04  0.21012977310E+04  0.00000000000E+00 0. -1.
         25    1    1    2    0    0 -0.15544931898E+02  0.29404195213E+02 -0.47970843736E+02  0.13795815834E+03  0.12500000000E+03 0.  0.
          1    1    1    2  502    0 -0.81441213998E+02 -0.56552922677E+02 -0.19941648682E+04  0.19966282643E+04  0.00000000000E+00 0. -1.
         -1    1    1    2    0  501  0.96986145896E+02  0.27148727464E+02  0.18308307753E+03  0.20895640497E+03  0.00000000000E+00 0.  1.
<mgrwt>
<rscale>  0 0.94128186E+02</rscale>
<asrwt>0</asrwt>
<pdfrwt beam="2">  1        2 0.32327656E+00 0.99150917E+02</pdfrwt>
<pdfrwt beam="1">  1       -2 0.37268478E-01 0.89359894E+02</pdfrwt>
<totfact> 0.50090018E+01</totfact>
</mgrwt>
</event>
<event>
 5    1  0.8459321E-003  0.2920412E+03  0.7546771E-02  0.1222222E+00
         -1   -1    0    0    0  501 -0.00000000000E+00  0.00000000000E+00  0.55561336205E+03  0.55561336205E+03  0.00000000000E+00 0.  1.
          1   -1    0    0  502    0  0.00000000000E+00 -0.00000000000E+00 -0.23239537144E+03  0.23239537144E+03  0.00000000000E+00 0. -1.
         25    1    1    2    0    0  0.26547987304E+03 -0.99730404946E+01  0.16072088272E+03  0.33471663638E+03  0.12500000000E+03 0.  0.
          2    1    1    2  502    0  0.50715400604E+02 -0.34094247153E+02 -0.42008374927E+02  0.74156409779E+02  0.00000000000E+00 0. -1.
         -2    1    1    2    0  501 -0.31619527364E+03  0.44067287648E+02  0.20450548282E+03  0.37913568734E+03  0.00000000000E+00 0.  1.
<mgrwt>
<rscale>  0 0.13359165E+03</rscale>
<asrwt>0</asrwt>
<pdfrwt beam="2">  1        1 0.35753134E-01 0.61110306E+02</pdfrwt>
<pdfrwt beam="1">  1       -1 0.85478978E-01 0.29204121E+03</pdfrwt>
<totfact> 0.17049126E+02</totfact>
</mgrwt>
</event>
<event>
 5    1  0.8459321E-003  0.3580817E+02  0.7546771E-02  0.1606446E+00
          1   -1    0    0  501    0 -0.00000000000E+00  0.00000000000E+00  0.10842122178E+03  0.10842122178E+03  0.00000000000E+00 0. -1.
          2   -1    0    0  502    0  0.00000000000E+00 -0.00000000000E+00 -0.99455025652E+03  0.99455025652E+03  0.00000000000E+00 0. -1.
         25    1    1    2    0    0 -0.15043176619E+02 -0.64665388822E+01 -0.19220682553E+03  0.22986208271E+03  0.12500000000E+03 0.  0.
          2    1    1    2  501    0 -0.20883521478E+02  0.11632750508E+02  0.87570305262E+02  0.90774449694E+02  0.00000000000E+00 0. -1.
          1    1    1    2  502    0  0.35926698097E+02 -0.51662116257E+01 -0.78149251448E+03  0.78233494589E+03  0.00000000000E+00 0. -1.
<mgrwt>
<rscale>  0 0.29257294E+02</rscale>
<asrwt>0</asrwt>
<pdfrwt beam="2">  1        2 0.15300773E+00 0.35808167E+02</pdfrwt>
<pdfrwt beam="1">  1        1 0.16680188E-01 0.23904860E+02</pdfrwt>
<totfact> 0.11522853E+03</totfact>
</mgrwt>
</event>
<event>
 5    1  0.8459321E-003  0.1371649E+03  0.7546771E-02  0.1413339E+00
          1   -1    0    0  501    0 -0.00000000000E+00  0.00000000000E+00  0.91821114914E+03  0.91821114914E+03  0.00000000000E+00 0. -1.
          2   -1    0    0  502    0  0.00000000000E+00 -0.00000000000E+00 -0.79678935726E+03  0.79678935726E+03  0.00000000000E+00 0. -1.
         25    1    1    2    0    0  0.65527921504E+02  0.10085304706E+03  0.17009801782E+03  0.24294769244E+03  0.12500000000E+03 0.  0.
          2    1    1    2  501    0 -0.86645201339E+02 -0.11054758762E+03  0.70457733811E+03  0.71844094080E+03  0.00000000000E+00 0. -1.
          1    1    1    2  502    0  0.21117279835E+02  0.96945405679E+01 -0.75325356405E+03  0.75361187316E+03  0.00000000000E+00 0. -1.
<mgrwt>
<rscale>  0 0.56455283E+02</rscale>
<asrwt>0</asrwt>
<pdfrwt beam="2">  1        2 0.12258298E+00 0.23236257E+02</pdfrwt>
<pdfrwt beam="1">  1        1 0.14126325E+00 0.13716490E+03</pdfrwt>
<totfact> 0.10309047E+02</totfact>
</mgrwt>
</event>
<event>
 5    1  0.8459321E-003  0.3945725E+02  0.7546771E-02  0.1539508E+00
          1   -1    0    0  501    0 -0.00000000000E+00  0.00000000000E+00  0.41195232845E+02  0.41195232845E+02  0.00000000000E+00 0. -1.
          2   -1    0    0  502    0  0.00000000000E+00 -0.00000000000E+00 -0.82824206414E+03  0.82824206414E+03  0.00000000000E+00 0. -1.
         25    1    1    2    0    0  0.38629366161E+02 -0.14007775170E+02 -0.16630469808E+03  0.21206295834E+03  0.12500000000E+03 0.  0.
          2    1    1    2  501    0 -0.23696970035E+02 -0.22863621580E+02  0.23512225359E+01  0.33012419300E+02  0.00000000000E+00 0. -1.
          1    1    1    2  502    0 -0.14932396126E+02  0.36871396751E+02 -0.62309335574E+03  0.62436191934E+03  0.00000000000E+00 0. -1.
<mgrwt>
<rscale>  0 0.36045408E+02</rscale>
<asrwt>0</asrwt>
<pdfrwt beam="2">  1        2 0.12742185E+00 0.39457253E+02</pdfrwt>
<pdfrwt beam="1">  1        1 0.63377286E-02 0.32928583E+02</pdfrwt>
<totfact> 0.49614162E+03</totfact>
</mgrwt>
</event>
<event>
 5    1  0.8459321E-003  0.1003191E+03  0.7546771E-02  0.1424752E+00
          2   -1    0    0  502    0  0.00000000000E+00  0.00000000000E+00  0.12152030413E+04  0.12152030413E+04  0.00000000000E+00 0. -1.
          1   -1    0    0  501    0 -0.00000000000E+00 -0.00000000000E+00 -0.46504594312E+02  0.46504594312E+02  0.00000000000E+00 0. -1.
         25    1    1    2    0    0 -0.71370329323E+02  0.72544350954E+02  0.79357907446E+03  0.80978339955E+03  0.12500000000E+03 0.  0.
          2    1    1    2  501    0  0.87967939602E+02 -0.48645035732E+02  0.29052491438E+02  0.10463625164E+03  0.00000000000E+00 0. -1.
          1    1    1    2  502    0 -0.16597610279E+02 -0.23899315222E+02  0.34606688105E+03  0.34728798438E+03  0.00000000000E+00 0. -1.
<mgrwt>
<rscale>  0 0.54027993E+02</rscale>
<asrwt>0</asrwt>
<pdfrwt beam="1">  1        2 0.18695429E+00 0.29097387E+02</pdfrwt>
<pdfrwt beam="2">  1        1 0.71545539E-02 0.10031911E+03</pdfrwt>
<totfact> 0.29062478E+03</totfact>
</mgrwt>
</event>
<event>
 5    1  0.8459321E-003  0.1193485E+03  0.7546771E-02  0.1346413E+00
          1   -1    0    0  501    0 -0.00000000000E+00  0.00000000000E+00  0.15798549789E+03  0.15798549789E+03  0.00000000000E+00 0. -1.
          2   -1    0    0  502    0  0.00000000000E+00 -0.00000000000E+00 -0.13972376415E+04  0.13972376415E+04  0.00000000000E+00 0. -1.
         25    1    1    2    0    0  0.99643570161E+02  0.20972326228E+02 -0.55193509052E+03  0.57500089017E+03  0.12500000000E+03 0.  0.
          2    1    1    2  501    0 -0.10002447012E+03 -0.67083069587E+02  0.12092318783E+03  0.17066766009E+03  0.00000000000E+00 0. -1.
          3    1    1    2  502    0  0.38089995750E+00  0.46110743358E+02 -0.80824024090E+03  0.80955458911E+03  0.00000000000E+00 0. -1.
<mgrwt>
<rscale>  0 0.74185160E+02</rscale>
<asrwt>0</asrwt>
<pdfrwt beam="2">  1        2 0.21495964E+00 0.46112317E+02</pdfrwt>
<pdfrwt beam="1">  1        1 0.24305461E-01 0.11934855E+03</pdfrwt>
<totfact> 0.47013005E+02</totfact>
</mgrwt>
</event>
<event>
 5    1  0.8459321E-003  0.5389276E+02  0.7546771E-02  0.1440743E+00
          2   -1    0    0  502    0  0.00000000000E+00  0.00000000000E+00  0.39795855405E+03  0.39795855405E+03  0.00000000000E+00 0. -1.
          1   -1    0    0  501    0 -0.00000000000E+00 -0.00000000000E+00 -0.24411754199E+03  0.24411754199E+03  0.00000000000E+00 0. -1.
         25    1    1    2    0    0 -0.10919454351E+02  0.96685484913E+02 -0.16874564328E+03  0.23144634282E+03  0.12500000000E+03 0.  0.
          2    1    1    2  501    0 -0.91808740439E+01 -0.47116994487E+02 -0.28276865636E+02  0.55712482873E+02  0.00000000000E+00 0. -1.
          1    1    1    2  502    0  0.20100328395E+02 -0.49568490426E+02  0.35086352097E+03  0.35491727035E+03  0.00000000000E+00 0. -1.
<mgrwt>
<rscale>  0 0.50862765E+02</rscale>
<asrwt>0</asrwt>
<pdfrwt beam="1">  1        2 0.61224393E-01 0.53892763E+02</pdfrwt>
<pdfrwt beam="2">  1        1 0.37556545E-01 0.48003121E+02</pdfrwt>
<totfact> 0.12316506E+03</totfact>
</mgrwt>
</event>
<event>
 5    1  0.8459321E-003  0.6704889E+02  0.7546771E-02  0.1427608E+00
          2   -1    0    0  502    0  0.00000000000E+00  0.00000000000E+00  0.83227524939E+03  0.83227524939E+03  0.00000000000E+00 0. -1.
          1   -1    0    0  501    0 -0.00000000000E+00 -0.00000000000E+00 -0.45065462618E+03  0.45065462618E+03  0.00000000000E+00 0. -1.
         25    1    1    2    0    0 -0.33745194832E+01  0.76302204643E+02 -0.73701483333E+02  0.16398268952E+03  0.12500000000E+03 0.  0.
          2    1    1    2  501    0 -0.36338562183E+02 -0.22229022272E+02 -0.32900734806E+03  0.33175360678E+03  0.00000000000E+00 0. -1.
          1    1    1    2  502    0  0.39713081666E+02 -0.54073182371E+02  0.78432945460E+03  0.78719357928E+03  0.00000000000E+00 0. -1.
<mgrwt>
<rscale>  0 0.53443174E+02</rscale>
<asrwt>0</asrwt>
<pdfrwt beam="1">  1        2 0.12804235E+00 0.67048887E+02</pdfrwt>
<pdfrwt beam="2">  1        1 0.69331481E-01 0.42598363E+02</pdfrwt>
<totfact> 0.26125290E+02</totfact>
</mgrwt>
</event>
<event>
 5    1  0.8459321E-003  0.2479414E+03  0.7546771E-02  0.1230896E+00
          1   -1    0    0  501    0 -0.00000000000E+00  0.00000000000E+00  0.20858992517E+03  0.20858992517E+03  0.00000000000E+00 0. -1.
          2   -1    0    0  502    0  0.00000000000E+00 -0.00000000000E+00 -0.20590556006E+04  0.20590556006E+04  0.00000000000E+00 0. -1.
         25    1    1    2    0    0 -0.79839206009E+02 -0.17681532339E+03 -0.40350400389E+03  0.46484238033E+03  0.12500000000E+03 0.  0.
          2    1    1    2  501    0  0.10844281675E+03  0.23604993309E+03  0.82018542581E+02  0.27240862090E+03  0.00000000000E+00 0. -1.
          1    1    1    2  502    0 -0.28603610742E+02 -0.59234609697E+02 -0.15289802141E+04  0.15303945245E+04  0.00000000000E+00 0. -1.
<mgrwt>
<rscale>  0 0.12770822E+03</rscale>
<asrwt>0</asrwt>
<pdfrwt beam="2">  1        2 0.31677778E+00 0.65779218E+02</pdfrwt>
<pdfrwt beam="1">  1        1 0.32090758E-01 0.24794137E+03</pdfrwt>
<totfact> 0.15289729E+02</totfact>
</mgrwt>
</event>
<event>
 5    1  0.8459321E-003  0.2527100E+03  0.7546771E-02  0.1128597E+00
          1   -1    0    0  501    0 -0.00000000000E+00  0.00000000000E+00  0.16172129531E+04  0.16172129531E+04  0.00000000000E+00 0. -1.
          2   -1    0    0  502    0  0.00000000000E+00 -0.00000000000E+00 -0.83054236240E+03  0.83054236240E+03  0.00000000000E+00 0. -1.
         25    1    1    2    0    0 -0.18585300095E+03 -0.24339152368E+03  0.75207901014E+02  0.33920790106E+03  0.12500000000E+03 0.  0.
          2    1    1    2  501    0  0.24937323311E+03  0.49175864531E+02  0.13832301225E+04  0.14063892942E+04  0.00000000000E+00 0. -1.
          1    1    1    2  502    0 -0.63520232154E+02  0.19421565915E+03 -0.67176743277E+03  0.70215812029E+03  0.00000000000E+00 0. -1.
<mgrwt>
<rscale>  0 0.22724126E+03</rscale>
<asrwt>0</asrwt>
<pdfrwt beam="2">  1        2 0.12777575E+00 0.20433928E+03</pdfrwt>
<pdfrwt beam="1">  1        1 0.24880199E+00 0.25271005E+03</pdfrwt>
<totfact> 0.28368797E+01</totfact>
</mgrwt>
</event>
<event>
 5    1  0.8459321E-003  0.8021441E+02  0.7546771E-02  0.1351676E+00
          2   -1    0    0  502    0  0.00000000000E+00  0.00000000000E+00  0.53158607993E+03  0.53158607993E+03  0.00000000000E+00 0. -1.
          1   -1    0    0  501    0 -0.00000000000E+00 -0.00000000000E+00 -0.50567609189E+03  0.50567609189E+03  0.00000000000E+00 0. -1.
         25    1    1    2    0    0  0.85188133707E+02  0.11234328127E+03  0.28494384014E+01  0.18844402423E+03  0.12500000000E+03 0.  0.
          2    1    1    2  501    0 -0.57064796578E+02 -0.53085751716E+02 -0.40668994091E+03  0.41409080657E+03  0.00000000000E+00 0. -1.
          1    1    1    2  502    0 -0.28123337129E+02 -0.59257529550E+02  0.42975049056E+03  0.43472734102E+03  0.00000000000E+00 0. -1.
<mgrwt>
<rscale>  0 0.72535951E+02</rscale>
<asrwt>0</asrwt>
<pdfrwt beam="1">  1        2 0.81782474E-01 0.65592506E+02</pdfrwt>
<pdfrwt beam="2">  1        1 0.77796322E-01 0.80214411E+02</pdfrwt>
<totfact> 0.37226043E+02</totfact>
</mgrwt>
</event>
<event>
 5    1  0.8459321E-003  0.1136781E+03  0.7546771E-02  0.1385327E+00
         -1   -1    0    0    0  502 -0.00000000000E+00  0.00000000000E+00  0.58280295651E+03  0.58280295651E+03  0.00000000000E+00 0.  1.
         -2   -1    0    0    0  501  0.00000000000E+00 -0.00000000000E+00 -0.65664092287E+03  0.65664092287E+03  0.00000000000E+00 0.  1.
         25    1    1    2    0    0 -0.92203691910E+02 -0.54771828179E+02 -0.16725959699E+03  0.23473867757E+03  0.12500000000E+03 0.  0.
         -2    1    1    2    0  502  0.11116398321E+03  0.25343237784E+02  0.54245574036E+03  0.55430852521E+03  0.00000000000E+00 0.  1.
         -1    1    1    2    0  501 -0.18960291303E+02  0.29428590395E+02 -0.44903410974E+03  0.45039667660E+03  0.00000000000E+00 0.  1.
<mgrwt>
<rscale>  0 0.63084079E+02</rscale>
<asrwt>0</asrwt>
<pdfrwt beam="2">  1       -2 0.10102168E+00 0.35007636E+02</pdfrwt>
<pdfrwt beam="1">  1       -1 0.89661993E-01 0.11367808E+03</pdfrwt>
<totfact> 0.87906826E+00</totfact>
</mgrwt>
</event>
<event>
 5    1  0.8459321E-003  0.1034780E+03  0.7546771E-02  0.1334245E+00
         -2   -1    0    0    0  501 -0.00000000000E+00  0.00000000000E+00  0.83403205833E+02  0.83403205833E+02  0.00000000000E+00 0.  1.
          2   -1    0    0  502    0  0.00000000000E+00 -0.00000000000E+00 -0.21376012719E+04  0.21376012719E+04  0.00000000000E+00 0. -1.
         25    1    1    2    0    0 -0.10106971176E+02  0.10523240320E+03 -0.11947112311E+03  0.20266810012E+03  0.12500000000E+03 0.  0.
          3    1    1    2  502    0 -0.55570724686E+02 -0.20098530025E+02 -0.19061691718E+04  0.19070849399E+04  0.00000000000E+00 0. -1.
         -1    1    1    2    0  501  0.65677695862E+02 -0.85133873176E+02 -0.28557771094E+02  0.11125143768E+03  0.00000000000E+00 0.  1.
<mgrwt>
<rscale>  0 0.78197780E+02</rscale>
<asrwt>0</asrwt>
<pdfrwt beam="2">  1        2 0.32886170E+00 0.59093624E+02</pdfrwt>
<pdfrwt beam="1">  1       -2 0.12831264E-01 0.10347805E+03</pdfrwt>
<totfact> 0.31699499E+02</totfact>
</mgrwt>
</event>
<event>
 5    1  0.8459321E-003  0.1073038E+03  0.7546771E-02  0.1337534E+00
          2   -1    0    0  502    0  0.00000000000E+00  0.00000000000E+00  0.59327425847E+03  0.59327425847E+03  0.00000000000E+00 0. -1.
          1   -1    0    0  501    0 -0.00000000000E+00 -0.00000000000E+00 -0.72928717126E+03  0.72928717126E+03  0.00000000000E+00 0. -1.
         25    1    1    2    0    0 -0.11100163545E+03 -0.25348267649E+02 -0.24865720324E+02  0.17090114626E+03  0.12500000000E+03 0.  0.
          2    1    1    2  501    0  0.30521792414E+02 -0.46205333109E+02 -0.62459288911E+03  0.62704289307E+03  0.00000000000E+00 0. -1.
          1    1    1    2  502    0  0.80479843041E+02  0.71553600758E+02  0.51344569664E+03  0.52461739040E+03  0.00000000000E+00 0. -1.
<mgrwt>
<rscale>  0 0.77084805E+02</rscale>
<asrwt>0</asrwt>
<pdfrwt beam="1">  1        2 0.91272963E-01 0.10730382E+03</pdfrwt>
<pdfrwt beam="2">  1        1 0.11219803E+00 0.55376102E+02</pdfrwt>
<totfact> 0.20331254E+02</totfact>
</mgrwt>
</event>
<event>
 5    1  0.8459321E-003  0.5131114E+02  0.7546771E-02  0.1520758E+00
          2   -1    0    0  502    0  0.00000000000E+00  0.00000000000E+00  0.69901477572E+03  0.69901477572E+03  0.00000000000E+00 0. -1.
          1   -1    0    0  501    0 -0.00000000000E+00 -0.00000000000E+00 -0.55188560977E+02  0.55188560977E+02  0.00000000000E+00 0. -1.
         25    1    1    2    0    0  0.21752717490E+02  0.44368720027E+02  0.25590902999E+03  0.28906088574E+03  0.12500000000E+03 0.  0.
          2    1    1    2  501    0 -0.44431491666E+02 -0.26853407511E+02 -0.20429986450E+02  0.55791104067E+02  0.00000000000E+00 0. -1.
          1    1    1    2  502    0  0.22678774176E+02 -0.17515312516E+02  0.40834717121E+03  0.40935134690E+03  0.00000000000E+00 0. -1.
<mgrwt>
<rscale>  0 0.38344806E+02</rscale>
<asrwt>0</asrwt>
<pdfrwt beam="1">  1        2 0.10754073E+00 0.28655069E+02</pdfrwt>
<pdfrwt beam="2">  1        1 0.84905483E-02 0.51311135E+02</pdfrwt>
<totfact> 0.43512456E+03</totfact>
</mgrwt>
</event>
<event>
 5    1  0.8459321E-003  0.5971486E+02  0.7546771E-02  0.1502557E+00
          1   -1    0    0  501    0 -0.00000000000E+00  0.00000000000E+00  0.37275942083E+03  0.37275942083E+03  0.00000000000E+00 0. -1.
          2   -1    0    0  502    0  0.00000000000E+00 -0.00000000000E+00 -0.65399532996E+03  0.65399532996E+03  0.00000000000E+00 0. -1.
         25    1    1    2    0    0  0.39929862563E+02  0.53018668370E+02 -0.31448675408E+02  0.14498066183E+03  0.12500000000E+03 0.  0.
          2    1    1    2  501    0  0.12672785548E+02 -0.24796928083E+02  0.31380050613E+03  0.31503372007E+03  0.00000000000E+00 0. -1.
          1    1    1    2  502    0 -0.52602648111E+02 -0.28221740287E+02 -0.56358773985E+03  0.56674036888E+03  0.00000000000E+00 0. -1.
<mgrwt>
<rscale>  0 0.40778840E+02</rscale>
<asrwt>0</asrwt>
<pdfrwt beam="2">  1        2 0.10061467E+00 0.59714863E+02</pdfrwt>
<pdfrwt beam="1">  1        1 0.57347604E-01 0.27847570E+02</pdfrwt>
<totfact> 0.43782600E+02</totfact>
</mgrwt>
</event>
<event>
 5    1  0.8459321E-003  0.6595993E+02  0.7546771E-02  0.1425483E+00
          1   -1    0    0  502    0  0.00000000000E+00  0.00000000000E+00  0.48230973424E+03  0.48230973424E+03  0.00000000000E+00 0. -1.
         -1   -1    0    0    0  501 -0.00000000000E+00 -0.00000000000E+00 -0.39187630423E+02  0.39187630423E+02  0.00000000000E+00 0.  1.
         25    1    1    2    0    0  0.83258229429E+02  0.99144055599E+01  0.26777868802E+03  0.30718179302E+03  0.12500000000E+03 0.  0.
          2    1    1    2  502    0 -0.32722655481E+02  0.29427005536E+02  0.12601044387E+03  0.13347416529E+03  0.00000000000E+00 0. -1.
         -2    1    1    2    0  501 -0.50535573948E+02 -0.39341411096E+02  0.49332971928E+02  0.80841406349E+02  0.00000000000E+00 0.  1.
<mgrwt>
<rscale>  0 0.53877427E+02</rscale>
<asrwt>0</asrwt>
<pdfrwt beam="1">  1        1 0.74201493E-01 0.44008191E+02</pdfrwt>
<pdfrwt beam="2">  1       -1 0.60288666E-02 0.65959929E+02</pdfrwt>
<totfact> 0.58023539E+03</totfact>
</mgrwt>
</event>
<event>
 5    1  0.8459321E-003  0.5592906E+02  0.7546771E-02  0.1461096E+00
          1   -1    0    0  502    0  0.00000000000E+00  0.00000000000E+00  0.23682809572E+02  0.23682809572E+02  0.00000000000E+00 0. -1.
         -1   -1    0    0    0  501 -0.00000000000E+00 -0.00000000000E+00 -0.21131750264E+04  0.21131750264E+04  0.00000000000E+00 0.  1.
         25    1    1    2    0    0 -0.67244865360E+02  0.43277794344E+02 -0.70099287072E+03  0.71652693194E+03  0.12500000000E+03 0.  0.
          2    1    1    2  502    0  0.54557317618E+02 -0.55309186861E+01 -0.32494690250E+02  0.63741641504E+02  0.00000000000E+00 0. -1.
         -2    1    1    2    0  501  0.12687547742E+02 -0.37746875658E+02 -0.13560046558E+04  0.13565892625E+04  0.00000000000E+00 0.  1.
<mgrwt>
<rscale>  0 0.47193358E+02</rscale>
<asrwt>0</asrwt>
<pdfrwt beam="1">  1        1 0.36435087E-02 0.55929056E+02</pdfrwt>
<pdfrwt beam="2">  1       -1 0.32510389E+00 0.39822111E+02</pdfrwt>
<totfact> 0.77363593E+01</totfact>
</mgrwt>
</event>
<event>
 5    1  0.8459321E-003  0.1414598E+03  0.7546771E-02  0.1311003E+00
          2   -1    0    0  502    0  0.00000000000E+00  0.00000000000E+00  0.67114057824E+03  0.67114057824E+03  0.00000000000E+00 0. -1.
          1   -1    0    0  501    0 -0.00000000000E+00 -0.00000000000E+00 -0.71716163162E+03  0.71716163162E+03  0.00000000000E+00 0. -1.
         25    1    1    2    0    0 -0.11559568704E+03 -0.97213185483E+02 -0.25152483665E+03  0.31890830931E+03  0.12500000000E+03 0.  0.
          2    1    1    2  501    0  0.13259007600E+03  0.46844321810E+02 -0.41934145998E+03  0.44229150885E+03  0.00000000000E+00 0. -1.
          1    1    1    2  502    0 -0.16994388958E+02  0.50368863672E+02  0.62484524324E+03  0.62710239171E+03  0.00000000000E+00 0. -1.
<mgrwt>
<rscale>  0 0.86716776E+02</rscale>
<asrwt>0</asrwt>
<pdfrwt beam="1">  1        2 0.10325240E+00 0.53158552E+02</pdfrwt>
<pdfrwt beam="2">  1        1 0.11033256E+00 0.14145982E+03</pdfrwt>
<totfact> 0.17707091E+02</totfact>
</mgrwt>
</event>
<event>
 5    1  0.8459321E-003  0.5565897E+02  0.7546771E-02  0.1423271E+00
          1   -1    0    0  501    0 -0.00000000000E+00  0.00000000000E+00  0.23907110337E+04  0.23907110337E+04  0.00000000000E+00 0. -1.
          2   -1    0    0  502    0  0.00000000000E+00 -0.00000000000E+00 -0.70307288596E+03  0.70307288596E+03  0.00000000000E+00 0. -1.
         25    1    1    2    0    0 -0.57952656560E+02 -0.94231601440E+01  0.89015199148E+02  0.16430463179E+03  0.12500000000E+03 0.  0.
          2    1    1    2  501    0  0.24203243437E+02  0.50343358341E+02  0.22626488458E+04  0.22633382536E+04  0.00000000000E+00 0. -1.
          1    1    1    2  502    0  0.33749413123E+02 -0.40920198197E+02 -0.66402589717E+03  0.66614103433E+03  0.00000000000E+00 0. -1.
<mgrwt>
<rscale>  0 0.54334887E+02</rscale>
<asrwt>0</asrwt>
<pdfrwt beam="2">  1        2 0.10816506E+00 0.53042299E+02</pdfrwt>
<pdfrwt beam="1">  1        1 0.36780169E+00 0.55658973E+02</pdfrwt>
<totfact> 0.14090126E+01</totfact>
</mgrwt>
</event>
<event>
 5    1  0.8459321E-003  0.1182749E+03  0.7546771E-02  0.1289523E+00
         -1   -1    0    0    0  501 -0.00000000000E+00  0.00000000000E+00  0.13676414042E+04  0.13676414042E+04  0.00000000000E+00 0.  1.
          1   -1    0    0  502    0  0.00000000000E+00 -0.00000000000E+00 -0.22563841356E+03  0.22563841356E+03  0.00000000000E+00 0. -1.
         25    1    1    2    0    0  0.95296310983E+02 -0.14438531558E+03  0.49942631366E+03  0.54312074994E+03  0.12500000000E+03 0.  0.
          2    1    1    2  502    0 -0.95844066271E+02  0.66891851381E+02 -0.18507285076E+03  0.21888938967E+03  0.00000000000E+00 0. -1.
         -2    1    1    2    0  501  0.54775528765E+00  0.77493464196E+02  0.82764952774E+03  0.83126967814E+03  0.00000000000E+00 0.  1.
<mgrwt>
<rscale>  0 0.95737975E+02</rscale>
<asrwt>0</asrwt>
<pdfrwt beam="2">  1        1 0.34713603E-01 0.11827489E+03</pdfrwt>
<pdfrwt beam="1">  1       -1 0.21040637E+00 0.77495400E+02</pdfrwt>
<totfact> 0.20079358E+01</totfact>
</mgrwt>
</event>
<event>
 5    1  0.8459321E-003  0.4584437E+02  0.7546771E-02  0.1470844E+00
          2   -1    0    0  502    0  0.00000000000E+00  0.00000000000E+00  0.29124411931E+02  0.29124411931E+02  0.00000000000E+00 0. -1.
          1   -1    0    0  501    0 -0.00000000000E+00 -0.00000000000E+00 -0.14967088215E+04  0.14967088215E+04  0.00000000000E+00 0. -1.
         25    1    1    2    0    0  0.59853426384E+01  0.11487287488E+02 -0.64983429928E+03  0.66187415618E+03  0.12500000000E+03 0.  0.
          2    1    1    2  501    0  0.39281873215E+02 -0.23635588532E+02 -0.81576071465E+03  0.81704788732E+03  0.00000000000E+00 0. -1.
          1    1    1    2  502    0 -0.45267215854E+02  0.12148301044E+02 -0.19893956817E+01  0.46911189972E+02  0.00000000000E+00 0. -1.
<mgrwt>
<rscale>  0 0.45565106E+02</rscale>
<asrwt>0</asrwt>
<pdfrwt beam="1">  1        2 0.44806792E-02 0.45287539E+02</pdfrwt>
<pdfrwt beam="2">  1        1 0.23026287E+00 0.45844374E+02</pdfrwt>
<totfact> 0.17787661E+03</totfact>
</mgrwt>
</event>
<event>
 5    1  0.8459321E-003  0.6851284E+02  0.7546771E-02  0.1393104E+00
          1   -1    0    0  502    0  0.00000000000E+00  0.00000000000E+00  0.49352421521E+03  0.49352421521E+03  0.00000000000E+00 0. -1.
         -1   -1    0    0    0  501 -0.00000000000E+00 -0.00000000000E+00 -0.95518708833E+02  0.95518708833E+02  0.00000000000E+00 0.  1.
         25    1    1    2    0    0 -0.20317289739E+02 -0.11241249698E+02  0.75385787340E+02  0.14780789860E+03  0.12500000000E+03 0.  0.
          2    1    1    2  502    0  0.73374687124E+02 -0.14878403423E+01  0.36490057177E+03  0.37220758409E+03  0.00000000000E+00 0. -1.
         -2    1    1    2    0  501 -0.53057397385E+02  0.12729090041E+02 -0.42280852733E+02  0.69027441343E+02  0.00000000000E+00 0.  1.
<mgrwt>
<rscale>  0 0.61141341E+02</rscale>
<asrwt>0</asrwt>
<pdfrwt beam="1">  1        1 0.75926801E-01 0.68512837E+02</pdfrwt>
<pdfrwt beam="2">  1       -1 0.14695186E-01 0.54562965E+02</pdfrwt>
<totfact> 0.14611246E+03</totfact>
</mgrwt>
</event>
<event>
 5    1  0.8459321E-003  0.3879395E+02  0.7546771E-02  0.1558779E+00
          2   -1    0    0  502    0  0.00000000000E+00  0.00000000000E+00  0.23010926425E+04  0.23010926425E+04  0.00000000000E+00 0. -1.
          1   -1    0    0  501    0 -0.00000000000E+00 -0.00000000000E+00 -0.53378316358E+03  0.53378316358E+03  0.00000000000E+00 0. -1.
         25    1    1    2    0    0  0.12857425138E+02 -0.77304708677E+01  0.25324277582E+03  0.28281085033E+03  0.12500000000E+03 0.  0.
          2    1    1    2  501    0 -0.11055724578E+02  0.37263770770E+02 -0.51816352840E+03  0.51961934127E+03  0.00000000000E+00 0. -1.
          1    1    1    2  502    0 -0.18017005605E+01 -0.29533299903E+02  0.20322302315E+04  0.20324456145E+04  0.00000000000E+00 0. -1.
<mgrwt>
<rscale>  0 0.33879837E+02</rscale>
<asrwt>0</asrwt>
<pdfrwt beam="1">  1        2 0.35401425E+00 0.29588206E+02</pdfrwt>
<pdfrwt beam="2">  1        1 0.82120488E-01 0.38793950E+02</pdfrwt>
<totfact> 0.40778601E+01</totfact>
</mgrwt>
</event>
<event>
 5    1  0.8459321E-003  0.1199370E+03  0.7546771E-02  0.1274731E+00
          2   -1    0    0  502    0  0.00000000000E+00  0.00000000000E+00  0.11304779740E+04  0.11304779740E+04  0.00000000000E+00 0. -1.
          1   -1    0    0  501    0 -0.00000000000E+00 -0.00000000000E+00 -0.31094962538E+04  0.31094962538E+04  0.00000000000E+00 0. -1.
         25    1    1    2    0    0 -0.10973507955E+02 -0.11613491712E+03  0.30936556061E+02  0.17375214344E+03  0.12500000000E+03 0.  0.
          2    1    1    2  501    0  0.85604750775E+02  0.20086460533E+02 -0.30338516800E+04  0.30351256408E+04  0.00000000000E+00 0. -1.
          1    1    1    2  502    0 -0.74631242820E+02  0.96048456585E+02  0.10238968441E+04  0.10310964435E+04  0.00000000000E+00 0. -1.
<mgrwt>
<rscale>  0 0.10269387E+03</rscale>
<asrwt>0</asrwt>
<pdfrwt beam="1">  1        2 0.17391969E+00 0.11993703E+03</pdfrwt>
<pdfrwt beam="2">  1        1 0.47838403E+00 0.87929740E+02</pdfrwt>
<totfact> 0.23168753E+00</totfact>
</mgrwt>
</event>
<event>
 5    1  0.8459321E-003  0.1107695E+03  0.7546771E-02  0.1337409E+00
          2   -1    0    0  502    0  0.00000000000E+00  0.00000000000E+00  0.67971064748E+03  0.67971064748E+03  0.00000000000E+00 0. -1.
          1   -1    0    0  501    0 -0.00000000000E+00 -0.00000000000E+00 -0.62548614261E+02  0.62548614261E+02  0.00000000000E+00 0. -1.
         25    1    1    2    0    0  0.88855310511E+02 -0.16828981613E+02  0.41466252183E+03  0.44243472721E+03  0.12500000000E+03 0.  0.
          2    1    1    2  501    0 -0.11135468749E+03 -0.31932294748E+02  0.30720401320E+02  0.11984690622E+03  0.00000000000E+00 0. -1.
          1    1    1    2  502    0  0.22499376977E+02  0.48761276361E+02  0.17177911007E+03  0.17997762831E+03  0.00000000000E+00 0. -1.
<mgrwt>
<rscale>  0 0.77126662E+02</rscale>
<asrwt>0</asrwt>
<pdfrwt beam="1">  1        2 0.10457086E+00 0.53701807E+02</pdfrwt>
<pdfrwt beam="2">  1        1 0.96228642E-02 0.11076949E+03</pdfrwt>
<totfact> 0.39543456E+03</totfact>
</mgrwt>
</event>
<event>
 5    1  0.8459321E-003  0.6027571E+02  0.7546771E-02  0.1512842E+00
          1   -1    0    0  501    0 -0.00000000000E+00  0.00000000000E+00  0.48929258317E+03  0.48929258317E+03  0.00000000000E+00 0. -1.
          2   -1    0    0  502    0  0.00000000000E+00 -0.00000000000E+00 -0.18511311441E+04  0.18511311441E+04  0.00000000000E+00 0. -1.
         25    1    1    2    0    0  0.49114538355E+02 -0.63889548724E+02  0.28748575153E+03  0.32367757050E+03  0.12500000000E+03 0.  0.
          2    1    1    2  501    0 -0.37801534985E+02  0.40785588026E+02  0.17941011463E+03  0.18783080010E+03  0.00000000000E+00 0. -1.
          1    1    1    2  502    0 -0.11313003369E+02  0.23103960698E+02 -0.18287344270E+04  0.18289153566E+04  0.00000000000E+00 0. -1.
<mgrwt>
<rscale>  0 0.39377586E+02</rscale>
<asrwt>0</asrwt>
<pdfrwt beam="2">  1        2 0.28478941E+00 0.25725028E+02</pdfrwt>
<pdfrwt beam="1">  1        1 0.75275781E-01 0.60275709E+02</pdfrwt>
<totfact> 0.74974424E+01</totfact>
</mgrwt>
</event>
<event>
 5    1  0.8459321E-003  0.4919870E+02  0.7546771E-02  0.1458682E+00
          1   -1    0    0  502    0  0.00000000000E+00  0.00000000000E+00  0.84524981220E+03  0.84524981220E+03  0.00000000000E+00 0. -1.
         -1   -1    0    0    0  501 -0.00000000000E+00 -0.00000000000E+00 -0.91562963922E+03  0.91562963922E+03  0.00000000000E+00 0.  1.
         25    1    1    2    0    0 -0.35547996732E+02 -0.49426483743E+02  0.75542314395E+03  0.76811181724E+03  0.12500000000E+03 0.  0.
          2    1    1    2  502    0  0.46050591990E+02  0.13542214062E+01  0.76404340974E+02  0.89219472415E+02  0.00000000000E+00 0. -1.
         -2    1    1    2    0  501 -0.10502595259E+02  0.48072262336E+02 -0.90220731195E+03  0.90354816177E+03  0.00000000000E+00 0.  1.
<mgrwt>
<rscale>  0 0.47608916E+02</rscale>
<asrwt>0</asrwt>
<pdfrwt beam="1">  1        1 0.13003843E+00 0.46070500E+02</pdfrwt>
<pdfrwt beam="2">  1       -1 0.14086610E+00 0.49198704E+02</pdfrwt>
<totfact> 0.11679748E+01</totfact>
</mgrwt>
</event>
<event>
 5    1  0.8459321E-003  0.1595868E+03  0.7546771E-02  0.1265402E+00
          1   -1    0    0  501    0 -0.00000000000E+00  0.00000000000E+00  0.52926987423E+03  0.52926987423E+03  0.00000000000E+00 0. -1.
          2   -1    0    0  502    0  0.00000000000E+00 -0.00000000000E+00 -0.28523572835E+03  0.28523572835E+03  0.00000000000E+00 0. -1.
         25    1    1    2    0    0  0.11181395607E+03 -0.51821664148E+02  0.27785680295E+03  0.32865977635E+03  0.12500000000E+03 0.  0.
          2    1    1    2  501    0  0.51836800431E+02  0.50430739438E+02  0.19302337440E+03  0.20612699101E+03  0.00000000000E+00 0. -1.
          1    1    1    2  502    0 -0.16365075651E+03  0.13909247100E+01 -0.22684603147E+03  0.27971883521E+03  0.00000000000E+00 0. -1.
<mgrwt>
<rscale>  0 0.10743120E+03</rscale>
<asrwt>0</asrwt>
<pdfrwt beam="2">  1        2 0.43882420E-01 0.15958681E+03</pdfrwt>
<pdfrwt beam="1">  1        1 0.81426134E-01 0.72320905E+02</pdfrwt>
<totfact> 0.67900685E+02</totfact>
</mgrwt>
</event>
<event>
 5    1  0.8459321E-003  0.3565636E+02  0.7546771E-02  0.1578372E+00
          1   -1    0    0  501    0 -0.00000000000E+00  0.00000000000E+00  0.24167660595E+04  0.24167660595E+04  0.00000000000E+00 0. -1.
          2   -1    0    0  502    0  0.00000000000E+00 -0.00000000000E+00 -0.18466696667E+02  0.18466696667E+02  0.00000000000E+00 0. -1.
         25    1    1    2    0    0  0.15216079304E+01 -0.93887678846E+01  0.85734340684E+03  0.86646014421E+03  0.12500000000E+03 0.  0.
          2    1    1    2  501    0  0.20979747438E+02 -0.19248066207E+02  0.15306613183E+04  0.15309260953E+04  0.00000000000E+00 0. -1.
          1    1    1    2  502    0 -0.22501355368E+02  0.28636834091E+02  0.10294637703E+02  0.37846516690E+02  0.00000000000E+00 0. -1.
<mgrwt>
<rscale>  0 0.31862159E+02</rscale>
<asrwt>0</asrwt>
<pdfrwt beam="2">  1        2 0.28410322E-02 0.35656356E+02</pdfrwt>
<pdfrwt beam="1">  1        1 0.37180991E+00 0.28471703E+02</pdfrwt>
<totfact> 0.91144107E+02</totfact>
</mgrwt>
</event>
<event>
 5    1  0.8459321E-003  0.4992624E+02  0.7546771E-02  0.1479727E+00
          2   -1    0    0  502    0  0.00000000000E+00  0.00000000000E+00  0.54689807003E+02  0.54689807003E+02  0.00000000000E+00 0. -1.
         -2   -1    0    0    0  501 -0.00000000000E+00 -0.00000000000E+00 -0.74936011541E+03  0.74936011541E+03  0.00000000000E+00 0.  1.
         25    1    1    2    0    0  0.17389382837E+01 -0.76895179896E+02 -0.37560383975E+03  0.40326063164E+03  0.12500000000E+03 0.  0.
          1    1    1    2  502    0  0.20385161760E+02  0.44729648972E+02  0.24561653023E+02  0.54950624350E+02  0.00000000000E+00 0. -1.
         -1    1    1    2    0  501 -0.22124100044E+02  0.32165530923E+02 -0.34362812168E+03  0.34583866642E+03  0.00000000000E+00 0.  1.
<mgrwt>
<rscale>  0 0.44148666E+02</rscale>
<asrwt>0</asrwt>
<pdfrwt beam="1">  1        2 0.84138166E-02 0.49926237E+02</pdfrwt>
<pdfrwt beam="2">  1       -2 0.11528617E+00 0.39039687E+02</pdfrwt>
<totfact> 0.46490028E+02</totfact>
</mgrwt>
</event>
<event>
 5    1  0.8459321E-003  0.2505598E+02  0.7546771E-02  0.1676838E+00
          2   -1    0    0  502    0  0.00000000000E+00  0.00000000000E+00  0.10360988585E+04  0.10360988585E+04  0.00000000000E+00 0. -1.
          1   -1    0    0  501    0 -0.00000000000E+00 -0.00000000000E+00 -0.16045419803E+04  0.16045419803E+04  0.00000000000E+00 0. -1.
         25    1    1    2    0    0  0.34902835116E+02  0.16896168348E+02  0.32012684176E+03  0.34584661805E+03  0.12500000000E+03 0.  0.
          2    1    1    2  501    0 -0.10225035468E+02 -0.20443310506E+02 -0.15913789819E+04  0.15915431331E+04  0.00000000000E+00 0. -1.
          3    1    1    2  502    0 -0.24677799648E+02  0.35471421585E+01  0.70280901837E+03  0.70325108768E+03  0.00000000000E+00 0. -1.
<mgrwt>
<rscale>  0 0.23931679E+02</rscale>
<asrwt>0</asrwt>
<pdfrwt beam="1">  1        2 0.15939983E+00 0.25055979E+02</pdfrwt>
<pdfrwt beam="2">  1        1 0.24685261E+00 0.22857828E+02</pdfrwt>
<totfact> 0.30995822E+01</totfact>
</mgrwt>
</event>
<event>
 5    1  0.8459321E-003  0.1776645E+03  0.7546771E-02  0.1248410E+00
          2   -1    0    0  502    0  0.00000000000E+00  0.00000000000E+00  0.13596989297E+04  0.13596989297E+04  0.00000000000E+00 0. -1.
          1   -1    0    0  501    0 -0.00000000000E+00 -0.00000000000E+00 -0.89920443527E+02  0.89920443527E+02  0.00000000000E+00 0. -1.
         25    1    1    2    0    0 -0.98948208334E+02  0.11477405491E+03  0.21015164968E+03  0.28766742512E+03  0.12500000000E+03 0.  0.
          2    1    1    2  501    0 -0.68356881327E+02 -0.35082898823E+02 -0.90150884427E+01  0.77361132581E+02  0.00000000000E+00 0. -1.
          1    1    1    2  502    0  0.16730508966E+03 -0.79691156091E+02  0.10686419249E+04  0.10845908155E+04  0.00000000000E+00 0. -1.
<mgrwt>
<rscale>  0 0.11683615E+03</rscale>
<asrwt>0</asrwt>
<pdfrwt beam="1">  1        2 0.20918444E+00 0.17766450E+03</pdfrwt>
<pdfrwt beam="2">  1        1 0.13833915E-01 0.76834062E+02</pdfrwt>
<totfact> 0.89174986E+02</totfact>
</mgrwt>
</event>
<event>
 5    1  0.8459321E-003  0.4904606E+02  0.7546771E-02  0.1514041E+00
          1   -1    0    0  501    0 -0.00000000000E+00  0.00000000000E+00  0.35284313960E+02  0.35284313960E+02  0.00000000000E+00 0. -1.
          2   -1    0    0  502    0  0.00000000000E+00 -0.00000000000E+00 -0.14771801669E+04  0.14771801669E+04  0.00000000000E+00 0. -1.
         25    1    1    2    0    0  0.49122373301E+02 -0.27529344015E+02 -0.31950399662E+03  0.34767610817E+03  0.12500000000E+03 0.  0.
          2    1    1    2  501    0 -0.22319776448E+02  0.43811289698E+02 -0.78338586730E+01  0.49789264580E+02  0.00000000000E+00 0. -1.
          1    1    1    2  502    0 -0.26802596853E+02 -0.16281945683E+02 -0.11145579977E+04  0.11149991082E+04  0.00000000000E+00 0. -1.
<mgrwt>
<rscale>  0 0.39218730E+02</rscale>
<asrwt>0</asrwt>
<pdfrwt beam="2">  1        2 0.22725851E+00 0.31360500E+02</pdfrwt>
<pdfrwt beam="1">  1        1 0.54283555E-02 0.49046055E+02</pdfrwt>
<totfact> 0.29038653E+03</totfact>
</mgrwt>
</event>
<event>
 5    1  0.8459321E-003  0.3032593E+02  0.7546771E-02  0.1599009E+00
          2   -1    0    0  502    0  0.00000000000E+00  0.00000000000E+00  0.15944166007E+04  0.15944166007E+04  0.00000000000E+00 0. -1.
          1   -1    0    0  501    0 -0.00000000000E+00 -0.00000000000E+00 -0.83226894126E+03  0.83226894126E+03  0.00000000000E+00 0. -1.
         25    1    1    2    0    0 -0.58917222499E+01 -0.19360156849E+02  0.11709452498E+04  0.11777721792E+04  0.12500000000E+03 0.  0.
          2    1    1    2  501    0 -0.26963763564E+02  0.13878667991E+02 -0.82791708611E+03  0.82847230698E+03  0.00000000000E+00 0. -1.
          1    1    1    2  502    0  0.32855485814E+02  0.54814888581E+01  0.41911949577E+03  0.42044105580E+03  0.00000000000E+00 0. -1.
<mgrwt>
<rscale>  0 0.29916863E+02</rscale>
<asrwt>0</asrwt>
<pdfrwt beam="1">  1        2 0.24529486E+00 0.29513315E+02</pdfrwt>
<pdfrwt beam="2">  1        1 0.12804138E+00 0.30325929E+02</pdfrwt>
<totfact> 0.49433145E+01</totfact>
</mgrwt>
</event>
<event>
 5    1  0.8459321E-003  0.8013202E+02  0.7546771E-02  0.1369315E+00
          2   -1    0    0  502    0  0.00000000000E+00  0.00000000000E+00  0.37941278725E+03  0.37941278725E+03  0.00000000000E+00 0. -1.
         -2   -1    0    0    0  501 -0.00000000000E+00 -0.00000000000E+00 -0.15904356725E+04  0.15904356725E+04  0.00000000000E+00 0.  1.
         25    1    1    2    0    0 -0.46943937557E+01  0.43736650541E+02  0.11097902129E+03  0.17284754873E+03  0.12500000000E+03 0.  0.
          1    1    1    2  502    0 -0.55853680482E+02  0.92850981868E+01  0.23306943400E+03  0.23984830151E+03  0.00000000000E+00 0. -1.
         -1    1    1    2    0  501  0.60548074238E+02 -0.53021748728E+02 -0.15550713405E+04  0.15571526095E+04  0.00000000000E+00 0.  1.
<mgrwt>
<rscale>  0 0.67357932E+02</rscale>
<asrwt>0</asrwt>
<pdfrwt beam="1">  1        2 0.58371196E-01 0.56620197E+02</pdfrwt>
<pdfrwt beam="2">  1       -2 0.24468242E+00 0.80132024E+02</pdfrwt>
<totfact> 0.73609437E+00</totfact>
</mgrwt>
</event>
<event>
 5    1  0.8459321E-003  0.1109724E+03  0.7546771E-02  0.1393717E+00
          1   -1    0    0  502    0  0.00000000000E+00  0.00000000000E+00  0.86289292072E+03  0.86289292072E+03  0.00000000000E+00 0. -1.
         -1   -1    0    0    0  501 -0.00000000000E+00 -0.00000000000E+00 -0.51052248062E+03  0.51052248062E+03  0.00000000000E+00 0.  1.
         25    1    1    2    0    0  0.13580975005E+03 -0.28280596552E+02  0.11298673375E+03  0.21825462733E+03  0.12500000000E+03 0.  0.
          2    1    1    2  502    0 -0.32341763247E+02 -0.88153808314E+01  0.69026319299E+03  0.69107667894E+03  0.00000000000E+00 0. -1.
         -2    1    1    2    0  501 -0.10346798680E+03  0.37095977384E+02 -0.45087948663E+03  0.46408409507E+03  0.00000000000E+00 0.  1.
<mgrwt>
<rscale>  0 0.60991628E+02</rscale>
<asrwt>0</asrwt>
<pdfrwt beam="1">  1        1 0.13275276E+00 0.33521644E+02</pdfrwt>
<pdfrwt beam="2">  1       -1 0.78541920E-01 0.11097244E+03</pdfrwt>
<totfact> 0.40544978E+01</totfact>
</mgrwt>
</event>
<event>
 5    1  0.8459321E-003  0.3973281E+03  0.7546771E-02  0.1116499E+00
          2   -1    0    0  502    0  0.00000000000E+00  0.00000000000E+00  0.20858947026E+04  0.20858947026E+04  0.00000000000E+00 0. -1.
         -2   -1    0    0    0  501 -0.00000000000E+00 -0.00000000000E+00 -0.56347558730E+03  0.56347558730E+03  0.00000000000E+00 0.  1.
         25    1    1    2    0    0  0.37363184225E+03  0.27277564016E+03  0.44832544129E+03  0.65622252682E+03  0.12500000000E+03 0.  0.
          1    1    1    2  502    0 -0.27443912536E+01 -0.15106050524E+03  0.14460728440E+04  0.14539441111E+04  0.00000000000E+00 0. -1.
         -1    1    1    2    0  501 -0.37088745099E+03 -0.12171513492E+03 -0.37197917003E+03  0.53920365198E+03  0.00000000000E+00 0.  1.
<mgrwt>
<rscale>  0 0.24501120E+03</rscale>
<asrwt>0</asrwt>
<pdfrwt beam="1">  1        2 0.32090687E+00 0.15108543E+03</pdfrwt>
<pdfrwt beam="2">  1       -2 0.86688553E-01 0.39732811E+03</pdfrwt>
<totfact> 0.85421689E+00</totfact>
</mgrwt>
</event>
<event>
 5    1  0.8459321E-003  0.1269555E+03  0.7546771E-02  0.1363160E+00
          2   -1    0    0  502    0  0.00000000000E+00  0.00000000000E+00  0.68687831703E+03  0.68687831703E+03  0.00000000000E+00 0. -1.
          1   -1    0    0  501    0 -0.00000000000E+00 -0.00000000000E+00 -0.56172937517E+03  0.56172937517E+03  0.00000000000E+00 0. -1.
         25    1    1    2    0    0 -0.91122448638E+02 -0.11422963446E+03 -0.19514623383E+03  0.27396854311E+03  0.12500000000E+03 0.  0.
          2    1    1    2  501    0 -0.88032767344E+01  0.36571933669E+02 -0.31987528988E+03  0.32207950120E+03  0.00000000000E+00 0. -1.
          1    1    1    2  502    0  0.99925725372E+02  0.77657700794E+02  0.64017046557E+03  0.65255964790E+03  0.00000000000E+00 0. -1.
<mgrwt>
<rscale>  0 0.69105898E+02</rscale>
<asrwt>0</asrwt>
<pdfrwt beam="1">  1        2 0.10567359E+00 0.12695546E+03</pdfrwt>
<pdfrwt beam="2">  1        1 0.86419904E-01 0.37616539E+02</pdfrwt>
<totfact> 0.24531996E+02</totfact>
</mgrwt>
</event>
<event>
 5    1  0.8459321E-003  0.4027197E+02  0.7546771E-02  0.1576276E+00
         -2   -1    0    0    0  501 -0.00000000000E+00  0.00000000000E+00  0.27921113679E+02  0.27921113679E+02  0.00000000000E+00 0.  1.
          2   -1    0    0  502    0  0.00000000000E+00 -0.00000000000E+00 -0.80718936088E+03  0.80718936088E+03  0.00000000000E+00 0. -1.
         25    1    1    2    0    0  0.27610743929E+02  0.55347836562E+02 -0.51989307102E+03  0.53827459673E+03  0.12500000000E+03 0.  0.
          1    1    1    2  502    0 -0.21363864943E+02 -0.30585498212E+02 -0.26745925047E+03  0.27004876983E+03  0.00000000000E+00 0. -1.
         -1    1    1    2    0  501 -0.62468789866E+01 -0.24762338350E+02  0.80840742874E+01  0.26787107995E+02  0.00000000000E+00 0.  1.
<mgrwt>
<rscale>  0 0.32069789E+02</rscale>
<asrwt>0</asrwt>
<pdfrwt beam="2">  1        2 0.12418299E+00 0.40271968E+02</pdfrwt>
<pdfrwt beam="1">  1       -2 0.42955554E-02 0.25538146E+02</pdfrwt>
<totfact> 0.71755975E+03</totfact>
</mgrwt>
</event>
<event>
 5    1  0.8459321E-003  0.9560726E+02  0.7546771E-02  0.1462230E+00
          1   -1    0    0  501    0 -0.00000000000E+00  0.00000000000E+00  0.20881031759E+04  0.20881031759E+04  0.00000000000E+00 0. -1.
          2   -1    0    0  502    0  0.00000000000E+00 -0.00000000000E+00 -0.62103972698E+02  0.62103972698E+02  0.00000000000E+00 0. -1.
         25    1    1    2    0    0 -0.38078132823E+02  0.63712219353E+02  0.68849981236E+03  0.70368045498E+03  0.12500000000E+03 0.  0.
          2    1    1    2  501    0 -0.74473168291E+01  0.21871651533E+02  0.13487402694E+04  0.13489381550E+04  0.00000000000E+00 0. -1.
          1    1    1    2  502    0  0.45525449652E+02 -0.85583870886E+02 -0.11240878562E+02  0.97588538634E+02  0.00000000000E+00 0. -1.
<mgrwt>
<rscale>  0 0.46999855E+02</rscale>
<asrwt>0</asrwt>
<pdfrwt beam="2">  1        2 0.95544589E-02 0.95607259E+02</pdfrwt>
<pdfrwt beam="1">  1        1 0.32124659E+00 0.23104798E+02</pdfrwt>
<totfact> 0.35586174E+02</totfact>
</mgrwt>
</event>
<event>
 5    1  0.8459321E-003  0.5503054E+02  0.7546771E-02  0.1474590E+00
          1   -1    0    0  501    0 -0.00000000000E+00  0.00000000000E+00  0.43736892506E+03  0.43736892506E+03  0.00000000000E+00 0. -1.
          2   -1    0    0  502    0  0.00000000000E+00 -0.00000000000E+00 -0.68431884024E+02  0.68431884024E+02  0.00000000000E+00 0. -1.
         25    1    1    2    0    0 -0.10901312781E+02  0.35021122199E+02  0.27857429614E+03  0.30752878904E+03  0.12500000000E+03 0.  0.
          2    1    1    2  501    0  0.44546267565E+02 -0.49762750655E+02  0.12881144414E+03  0.14509682784E+03  0.00000000000E+00 0. -1.
          1    1    1    2  502    0 -0.33644954783E+02  0.14741628457E+02 -0.38448699247E+02  0.53175192201E+02  0.00000000000E+00 0. -1.
<mgrwt>
<rscale>  0 0.44960267E+02</rscale>
<asrwt>0</asrwt>
<pdfrwt beam="2">  1        2 0.10527982E-01 0.36732800E+02</pdfrwt>
<pdfrwt beam="1">  1        1 0.67287525E-01 0.55030535E+02</pdfrwt>
<totfact> 0.39744363E+03</totfact>
</mgrwt>
</event>
<event>
 5    1  0.8459321E-003  0.6306646E+02  0.7546771E-02  0.1463852E+00
          2   -1    0    0  502    0  0.00000000000E+00  0.00000000000E+00  0.18741632007E+03  0.18741632007E+03  0.00000000000E+00 0. -1.
          1   -1    0    0  501    0 -0.00000000000E+00 -0.00000000000E+00 -0.27542083114E+03  0.27542083114E+03  0.00000000000E+00 0. -1.
         25    1    1    2    0    0 -0.12288738465E+02 -0.93599201494E+02 -0.39959795444E+02  0.16165892758E+03  0.12500000000E+03 0.  0.
          2    1    1    2  501    0  0.12835814805E+02  0.58985935009E+02 -0.16684877218E+03  0.17743340004E+03  0.00000000000E+00 0. -1.
          1    1    1    2  502    0 -0.54707633991E+00  0.34613266486E+02  0.11880405656E+03  0.12374482358E+03  0.00000000000E+00 0. -1.
<mgrwt>
<rscale>  0 0.46724820E+02</rscale>
<asrwt>0</asrwt>
<pdfrwt beam="1">  1        2 0.28833280E-01 0.34617590E+02</pdfrwt>
<pdfrwt beam="2">  1        1 0.42372435E-01 0.63066458E+02</pdfrwt>
<totfact> 0.22913755E+03</totfact>
</mgrwt>
</event>
<event>
 5    1  0.8459321E-003  0.3052121E+03  0.7546771E-02  0.1220055E+00
          1   -1    0    0  502    0  0.00000000000E+00  0.00000000000E+00  0.77452821350E+03  0.77452821350E+03  0.00000000000E+00 0. -1.
         -1   -1    0    0    0  501 -0.00000000000E+00 -0.00000000000E+00 -0.10947565146E+04  0.10947565146E+04  0.00000000000E+00 0.  1.
         25    1    1    2    0    0 -0.24786193740E+02 -0.35814975995E+03 -0.23612734881E+03  0.44751171024E+03  0.12500000000E+03 0.  0.
          2    1    1    2  502    0  0.12188649691E+02  0.29967571752E+03  0.63390639831E+03  0.70127841880E+03  0.00000000000E+00 0. -1.
         -2    1    1    2    0  501  0.12597544049E+02  0.58474042425E+02 -0.71800735059E+03  0.72049459905E+03  0.00000000000E+00 0.  1.
<mgrwt>
<rscale>  0 0.13511646E+03</rscale>
<asrwt>0</asrwt>
<pdfrwt beam="1">  1        1 0.11915819E+00 0.30521207E+03</pdfrwt>
<pdfrwt beam="2">  1       -1 0.16842408E+00 0.59815648E+02</pdfrwt>
<totfact> 0.75684471E+00</totfact>
</mgrwt>
</event>
<event>
 5    1  0.8459321E-003  0.7018809E+02  0.7546771E-02  0.1424127E+00
          1   -1    0    0  501    0 -0.00000000000E+00  0.00000000000E+00  0.10896408578E+04  0.10896408578E+04  0.00000000000E+00 0. -1.
          2   -1    0    0  502    0  0.00000000000E+00 -0.00000000000E+00 -0.22999622476E+03  0.22999622476E+03  0.00000000000E+00 0. -1.
         25    1    1    2    0    0 -0.47609342755E+02  0.56222156817E+01  0.11199698824E+03  0.17454679659E+03  0.12500000000E+03 0.  0.
          2    1    1    2  501    0  0.53949174072E+02 -0.46926135782E+02  0.94280335273E+03  0.94551083417E+03  0.00000000000E+00 0. -1.
          1    1    1    2  502    0 -0.63398313169E+01  0.41303920100E+02 -0.19515570789E+03  0.19957945184E+03  0.00000000000E+00 0. -1.
<mgrwt>
<rscale>  0 0.54157133E+02</rscale>
<asrwt>0</asrwt>
<pdfrwt beam="2">  1        2 0.35384035E-01 0.41787645E+02</pdfrwt>
<pdfrwt beam="1">  1        1 0.16763705E+00 0.70188093E+02</pdfrwt>
<totfact> 0.29136099E+02</totfact>
</mgrwt>
</event>
<event>
 5    1  0.8459321E-003  0.5580046E+02  0.7546771E-02  0.1485825E+00
         -1   -1    0    0    0  501 -0.00000000000E+00  0.00000000000E+00  0.59328309746E+03  0.59328309746E+03  0.00000000000E+00 0.  1.
          1   -1    0    0  502    0  0.00000000000E+00 -0.00000000000E+00 -0.28743206940E+03  0.28743206940E+03  0.00000000000E+00 0. -1.
         25    1    1    2    0    0 -0.53270146702E+02 -0.35673241341E+02  0.55047031939E+02  0.15088228658E+03  0.12500000000E+03 0.  0.
          2    1    1    2  502    0  0.55778071410E+02  0.23043298898E+01 -0.23567891396E+03  0.24220044111E+03  0.00000000000E+00 0. -1.
         -2    1    1    2    0  501 -0.25079247077E+01  0.33368911451E+02  0.48648291009E+03  0.48763243918E+03  0.00000000000E+00 0.  1.
<mgrwt>
<rscale>  0 0.43211711E+02</rscale>
<asrwt>0</asrwt>
<pdfrwt beam="2">  1        1 0.44220319E-01 0.55800456E+02</pdfrwt>
<pdfrwt beam="1">  1       -1 0.91274322E-01 0.33463023E+02</pdfrwt>
<totfact> 0.12404521E+02</totfact>
</mgrwt>
</event>
<event>
 5    1  0.8459321E-003  0.6285413E+02  0.7546771E-02  0.1400475E+00
          1   -1    0    0  501    0 -0.00000000000E+00  0.00000000000E+00  0.49452050369E+03  0.49452050369E+03  0.00000000000E+00 0. -1.
          2   -1    0    0  502    0  0.00000000000E+00 -0.00000000000E+00 -0.11561756674E+03  0.11561756674E+03  0.00000000000E+00 0. -1.
         25    1    1    2    0    0  0.62520660002E+02 -0.35370941942E+02  0.39921884815E+02  0.14959509801E+03  0.12500000000E+03 0.  0.
          2    1    1    2  501    0 -0.13231423294E+02  0.62137054963E+02  0.38362918019E+03  0.38885399838E+03  0.00000000000E+00 0. -1.
          1    1    1    2  502    0 -0.49289236708E+02 -0.26766113021E+02 -0.44648128053E+02  0.71688974049E+02  0.00000000000E+00 0. -1.
<mgrwt>
<rscale>  0 0.59374716E+02</rscale>
<asrwt>0</asrwt>
<pdfrwt beam="2">  1        2 0.17787318E-01 0.56087910E+02</pdfrwt>
<pdfrwt beam="1">  1        1 0.76080076E-01 0.62854131E+02</pdfrwt>
<totfact> 0.19212434E+03</totfact>
</mgrwt>
</event>
<event>
 5    1  0.8459321E-003  0.2934564E+03  0.7546771E-02  0.1205818E+00
          1   -1    0    0  501    0 -0.00000000000E+00  0.00000000000E+00  0.66781942139E+03  0.66781942139E+03  0.00000000000E+00 0. -1.
          2   -1    0    0  502    0  0.00000000000E+00 -0.00000000000E+00 -0.80450511313E+03  0.80450511313E+03  0.00000000000E+00 0. -1.
         25    1    1    2    0    0  0.68551016588E+01 -0.26235454069E+03 -0.19082099174E+03  0.34772769278E+03  0.12500000000E+03 0.  0.
          2    1    1    2  501    0 -0.54783853232E+02 -0.47289767403E+02  0.54089135930E+03  0.54571151283E+03  0.00000000000E+00 0. -1.
          1    1    1    2  502    0  0.47928751573E+02  0.30964430809E+03 -0.48675605930E+03  0.57888532891E+03  0.00000000000E+00 0. -1.
<mgrwt>
<rscale>  0 0.14573193E+03</rscale>
<asrwt>0</asrwt>
<pdfrwt beam="2">  1        2 0.12377002E+00 0.29345640E+03</pdfrwt>
<pdfrwt beam="1">  1        1 0.10274145E+00 0.72371214E+02</pdfrwt>
<totfact> 0.15305791E+02</totfact>
</mgrwt>
</event>
<event>
 5    1  0.8459321E-003  0.5701781E+02  0.7546771E-02  0.1424760E+00
         -2   -1    0    0    0  501 -0.00000000000E+00  0.00000000000E+00  0.14235823806E+03  0.14235823806E+03  0.00000000000E+00 0.  1.
          2   -1    0    0  502    0  0.00000000000E+00 -0.00000000000E+00 -0.32483720159E+03  0.32483720159E+03  0.00000000000E+00 0. -1.
         25    1    1    2    0    0 -0.90637347634E+01 -0.11065245263E+02 -0.10050436849E+02  0.12621648950E+03  0.12500000000E+03 0.  0.
          1    1    1    2  502    0 -0.40241207443E+02 -0.31642548928E+02 -0.24097690018E+03  0.24635436286E+03  0.00000000000E+00 0. -1.
         -1    1    1    2    0  501  0.49304942207E+02  0.42707794191E+02  0.68548373498E+02  0.94624587290E+02  0.00000000000E+00 0.  1.
<mgrwt>
<rscale>  0 0.54026355E+02</rscale>
<asrwt>0</asrwt>
<pdfrwt beam="2">  1        2 0.49974953E-01 0.51191852E+02</pdfrwt>
<pdfrwt beam="1">  1       -2 0.21901268E-01 0.57017806E+02</pdfrwt>
<totfact> 0.17011158E+03</totfact>
</mgrwt>
</event>
<event>
 5    1  0.8459321E-003  0.4442073E+02  0.7546771E-02  0.1509441E+00
          1   -1    0    0  502    0  0.00000000000E+00  0.00000000000E+00  0.64428282448E+03  0.64428282448E+03  0.00000000000E+00 0. -1.
         -1   -1    0    0    0  501 -0.00000000000E+00 -0.00000000000E+00 -0.16577946176E+03  0.16577946176E+03  0.00000000000E+00 0.  1.
         25    1    1    2    0    0 -0.72986284613E+02 -0.28227157287E+02  0.22445132233E+03  0.26856501307E+03  0.12500000000E+03 0.  0.
          2    1    1    2  502    0  0.38935599916E+02  0.17435624997E+02  0.39438703731E+03  0.39668768213E+03  0.00000000000E+00 0. -1.
         -2    1    1    2    0  501  0.34050684697E+02  0.10791532290E+02 -0.14033499692E+03  0.14480959104E+03  0.00000000000E+00 0.  1.
<mgrwt>
<rscale>  0 0.39833416E+02</rscale>
<asrwt>0</asrwt>
<pdfrwt beam="1">  1        1 0.99120433E-01 0.44420732E+02</pdfrwt>
<pdfrwt beam="2">  1       -1 0.25504533E-01 0.35719831E+02</pdfrwt>
<totfact> 0.43645252E+02</totfact>
</mgrwt>
</event>
<event>
 5    1  0.8459321E-003  0.6597565E+02  0.7546771E-02  0.1420175E+00
          2   -1    0    0  502    0  0.00000000000E+00  0.00000000000E+00  0.14370946732E+04  0.14370946732E+04  0.00000000000E+00 0. -1.
         -2   -1    0    0    0  501 -0.00000000000E+00 -0.00000000000E+00 -0.16075728864E+02  0.16075728864E+02  0.00000000000E+00 0.  1.
         25    1    1    2    0    0  0.76792547873E+02 -0.65897222034E+02  0.63984242953E+03  0.65974455201E+03  0.12500000000E+03 0.  0.
          3    1    1    2  502    0 -0.40906520747E+02  0.20650874941E+02  0.62888814588E+03  0.63055539178E+03  0.00000000000E+00 0. -1.
         -1    1    1    2    0  501 -0.35886027126E+02  0.45246347093E+02  0.15228836895E+03  0.16287045829E+03  0.00000000000E+00 0.  1.
<mgrwt>
<rscale>  0 0.54984014E+02</rscale>
<asrwt>0</asrwt>
<pdfrwt beam="1">  1        2 0.22109139E+00 0.45823597E+02</pdfrwt>
<pdfrwt beam="2">  1       -2 0.24731902E-02 0.65975655E+02</pdfrwt>
<totfact> 0.81084047E+03</totfact>
</mgrwt>
</event>
<event>
 5    1  0.8459321E-003  0.9985079E+02  0.7546771E-02  0.1353279E+00
          1   -1    0    0  501    0 -0.00000000000E+00  0.00000000000E+00  0.10593395478E+04  0.10593395478E+04  0.00000000000E+00 0. -1.
          2   -1    0    0  502    0  0.00000000000E+00 -0.00000000000E+00 -0.18155776351E+04  0.18155776351E+04  0.00000000000E+00 0. -1.
         25    1    1    2    0    0 -0.83725501991E+02  0.12534646575E+03 -0.16136669261E+02  0.19648686535E+03  0.12500000000E+03 0.  0.
          2    1    1    2  501    0  0.25097664144E+02 -0.45519654995E+02  0.96703109561E+03  0.96842711218E+03  0.00000000000E+00 0. -1.
          1    1    1    2  502    0  0.58627837848E+02 -0.79826810760E+02 -0.17071325137E+04  0.17100032054E+04  0.00000000000E+00 0. -1.
<mgrwt>
<rscale>  0 0.72043422E+02</rscale>
<asrwt>0</asrwt>
<pdfrwt beam="2">  1        2 0.27931963E+00 0.99850786E+02</pdfrwt>
<pdfrwt beam="1">  1        1 0.16297532E+00 0.51980109E+02</pdfrwt>
<totfact> 0.22728029E+01</totfact>
</mgrwt>
</event>
<event>
 5    1  0.8459321E-003  0.1875550E+03  0.7546771E-02  0.1258679E+00
          2   -1    0    0  502    0  0.00000000000E+00  0.00000000000E+00  0.85955485773E+02  0.85955485773E+02  0.00000000000E+00 0. -1.
          1   -1    0    0  501    0 -0.00000000000E+00 -0.00000000000E+00 -0.13639218840E+04  0.13639218840E+04  0.00000000000E+00 0. -1.
         25    1    1    2    0    0 -0.90908501876E+02 -0.21899796209E+03 -0.44512360737E+03  0.51960031654E+03  0.12500000000E+03 0.  0.
          2    1    1    2  501    0  0.48142106426E+02  0.16908946121E+03 -0.84529341199E+03  0.86338280076E+03  0.00000000000E+00 0. -1.
          1    1    1    2  502    0  0.42766395450E+02  0.49908500881E+02  0.12450621174E+02  0.66894252426E+02  0.00000000000E+00 0. -1.
<mgrwt>
<rscale>  0 0.11102758E+03</rscale>
<asrwt>0</asrwt>
<pdfrwt beam="1">  1        2 0.13223921E-01 0.65725361E+02</pdfrwt>
<pdfrwt beam="2">  1        1 0.20983413E+00 0.18755504E+03</pdfrwt>
<totfact> 0.52396936E+02</totfact>
</mgrwt>
</event>
<event>
 5    1  0.8459321E-003  0.1501861E+03  0.7546771E-02  0.1351698E+00
          2   -1    0    0  502    0  0.00000000000E+00  0.00000000000E+00  0.20805256331E+03  0.20805256331E+03  0.00000000000E+00 0. -1.
         -2   -1    0    0    0  501 -0.00000000000E+00 -0.00000000000E+00 -0.57939501733E+03  0.57939501733E+03  0.00000000000E+00 0.  1.
         25    1    1    2    0    0 -0.15161558600E+03 -0.57574971716E+02 -0.22479325434E+01  0.20477357370E+03  0.12500000000E+03 0.  0.
          3    1    1    2  502    0  0.12294152395E+03  0.77690495603E+02  0.56219571103E+02  0.15592008079E+03  0.00000000000E+00 0. -1.
         -1    1    1    2    0  501  0.28674062055E+02 -0.20115523887E+02 -0.42531409258E+03  0.42675392615E+03  0.00000000000E+00 0.  1.
<mgrwt>
<rscale>  0 0.72528959E+02</rscale>
<asrwt>0</asrwt>
<pdfrwt beam="1">  1        2 0.32008088E-01 0.15018606E+03</pdfrwt>
<pdfrwt beam="2">  1       -2 0.89137692E-01 0.35026221E+02</pdfrwt>
<totfact> 0.19010007E+02</totfact>
</mgrwt>
</event>
<event>
 5    1  0.8459321E-003  0.1502771E+03  0.7546771E-02  0.1279561E+00
          1   -1    0    0  502    0  0.00000000000E+00  0.00000000000E+00  0.22066609543E+04  0.22066609543E+04  0.00000000000E+00 0. -1.
         -1   -1    0    0    0  501 -0.00000000000E+00 -0.00000000000E+00 -0.43001597319E+03  0.43001597319E+03  0.00000000000E+00 0.  1.
         25    1    1    2    0    0  0.20893481367E+03 -0.27426796087E+02  0.18170572838E+03  0.30503763249E+03  0.12500000000E+03 0.  0.
          2    1    1    2  502    0 -0.66540512272E+02 -0.79236268727E+01  0.19480806944E+04  0.19492328787E+04  0.00000000000E+00 0. -1.
         -2    1    1    2    0  501 -0.14239430140E+03  0.35350422960E+02 -0.35314144160E+03  0.38240641633E+03  0.00000000000E+00 0.  1.
<mgrwt>
<rscale>  0 0.10035018E+03</rscale>
<asrwt>0</asrwt>
<pdfrwt beam="1">  1        1 0.33948629E+00 0.67010623E+02</pdfrwt>
<pdfrwt beam="2">  1       -1 0.66156305E-01 0.15027705E+03</pdfrwt>
<totfact> 0.73319017E+00</totfact>
</mgrwt>
</event>
<event>
 5    1  0.8459321E-003  0.1131698E+03  0.7546771E-02  0.1328944E+00
          1   -1    0    0  502    0  0.00000000000E+00  0.00000000000E+00  0.32040375499E+04  0.32040375499E+04  0.00000000000E+00 0. -1.
         -1   -1    0    0    0  501 -0.00000000000E+00 -0.00000000000E+00 -0.94010288944E+02  0.94010288944E+02  0.00000000000E+00 0.  1.
         25    1    1    2    0    0  0.18914867194E+01  0.66141079094E+02  0.46394445045E+03  0.48502337384E+03  0.12500000000E+03 0.  0.
          2    1    1    2  502    0 -0.29767934110E+02 -0.11540675976E+03  0.27184986718E+04  0.27211100453E+04  0.00000000000E+00 0. -1.
         -2    1    1    2    0  501  0.27876447391E+02  0.49265680667E+02 -0.72415861204E+02  0.91914419787E+02  0.00000000000E+00 0.  1.
<mgrwt>
<rscale>  0 0.80037821E+02</rscale>
<asrwt>0</asrwt>
<pdfrwt beam="1">  1        1 0.49292877E+00 0.11316978E+03</pdfrwt>
<pdfrwt beam="2">  1       -1 0.14463124E-01 0.56605685E+02</pdfrwt>
<totfact> 0.19112057E+01</totfact>
</mgrwt>
</event>
<event>
 5    1  0.8459321E-003  0.3205190E+02  0.7546771E-02  0.1613407E+00
          1   -1    0    0  501    0 -0.00000000000E+00  0.00000000000E+00  0.34837194763E+03  0.34837194763E+03  0.00000000000E+00 0. -1.
          2   -1    0    0  502    0  0.00000000000E+00 -0.00000000000E+00 -0.45345793830E+03  0.45345793830E+03  0.00000000000E+00 0. -1.
         25    1    1    2    0    0  0.37482853967E+02  0.43434194530E+02  0.22450022440E+03  0.26328092288E+03  0.12500000000E+03 0.  0.
          2    1    1    2  501    0 -0.14660349746E+02 -0.21016469792E+02  0.10230970119E+03  0.10546986685E+03  0.00000000000E+00 0. -1.
          1    1    1    2  502    0 -0.22822504221E+02 -0.22417724739E+02 -0.43189591626E+03  0.43307909619E+03  0.00000000000E+00 0. -1.
<mgrwt>
<rscale>  0 0.28658606E+02</rscale>
<asrwt>0</asrwt>
<pdfrwt beam="2">  1        2 0.69762760E-01 0.32051900E+02</pdfrwt>
<pdfrwt beam="1">  1        1 0.53595684E-01 0.25624556E+02</pdfrwt>
<totfact> 0.70623248E+02</totfact>
</mgrwt>
</event>
<event>
 5    1  0.8459321E-003  0.6398037E+02  0.7546771E-02  0.1472220E+00
          2   -1    0    0  502    0  0.00000000000E+00  0.00000000000E+00  0.19242125323E+04  0.19242125323E+04  0.00000000000E+00 0. -1.
          1   -1    0    0  501    0 -0.00000000000E+00 -0.00000000000E+00 -0.66496907853E+03  0.66496907853E+03  0.00000000000E+00 0. -1.
         25    1    1    2    0    0 -0.92360419382E+01 -0.47099244445E+02 -0.14862293749E+02  0.13472019549E+03  0.12500000000E+03 0.  0.
          2    1    1    2  501    0  0.41260505422E+02  0.49734410687E+02 -0.58826989417E+03  0.59180859177E+03  0.00000000000E+00 0. -1.
          1    1    1    2  502    0 -0.32024463484E+02 -0.26351662420E+01  0.18623756417E+04  0.18626528236E+04  0.00000000000E+00 0. -1.
<mgrwt>
<rscale>  0 0.45341614E+02</rscale>
<asrwt>0</asrwt>
<pdfrwt beam="1">  1        2 0.29603269E+00 0.32132699E+02</pdfrwt>
<pdfrwt beam="2">  1        1 0.10230294E+00 0.63980369E+02</pdfrwt>
<totfact> 0.45127307E+01</totfact>
</mgrwt>
</event>
<event>
 5    1  0.8459321E-003  0.8828039E+02  0.7546771E-02  0.1488730E+00
         -2   -1    0    0    0  501 -0.00000000000E+00  0.00000000000E+00  0.17817740022E+04  0.17817740022E+04  0.00000000000E+00 0.  1.
          2   -1    0    0  502    0  0.00000000000E+00 -0.00000000000E+00 -0.26348762690E+02  0.26348762690E+02  0.00000000000E+00 0. -1.
         25    1    1    2    0    0  0.35425335642E+01 -0.10634055360E+03  0.75820188539E+03  0.77576798200E+03  0.12500000000E+03 0.  0.
          1    1    1    2  502    0 -0.48439339406E+01  0.85655448031E+02  0.88015509890E+02  0.12291073775E+03  0.00000000000E+00 0. -1.
         -1    1    1    2    0  501  0.13014003764E+01  0.20685105567E+02  0.90920784425E+03  0.90944404517E+03  0.00000000000E+00 0.  1.
<mgrwt>
<rscale>  0 0.42774989E+02</rscale>
<asrwt>0</asrwt>
<pdfrwt beam="2">  1        2 0.40536572E-02 0.88280391E+02</pdfrwt>
<pdfrwt beam="1">  1       -2 0.27411898E+00 0.20726004E+02</pdfrwt>
<totfact> 0.12696543E+02</totfact>
</mgrwt>
</event>
<event>
 5    1  0.8459321E-003  0.7134817E+02  0.7546771E-02  0.1473600E+00
         -2   -1    0    0    0  501 -0.00000000000E+00  0.00000000000E+00  0.50966091231E+03  0.50966091231E+03  0.00000000000E+00 0.  1.
          2   -1    0    0  502    0  0.00000000000E+00 -0.00000000000E+00 -0.81381072198E+03  0.81381072198E+03  0.00000000000E+00 0. -1.
         25    1    1    2    0    0  0.67373966807E+02  0.60852540627E+02 -0.16694306006E+03  0.22745827839E+03  0.12500000000E+03 0.  0.
          1    1    1    2  502    0 -0.38943374061E+02 -0.58446728161E+02 -0.61418246943E+03  0.61818501451E+03  0.00000000000E+00 0. -1.
         -1    1    1    2    0  501 -0.28430592745E+02 -0.24058124658E+01  0.47697571982E+03  0.47782834139E+03  0.00000000000E+00 0.  1.
<mgrwt>
<rscale>  0 0.45118957E+02</rscale>
<asrwt>0</asrwt>
<pdfrwt beam="2">  1        2 0.12520165E+00 0.71348165E+02</pdfrwt>
<pdfrwt beam="1">  1       -2 0.78409372E-01 0.28532202E+02</pdfrwt>
<totfact> 0.57077847E+01</totfact>
</mgrwt>
</event>
<event>
 5    1  0.8459321E-003  0.1290252E+03  0.7546771E-02  0.1252885E+00
          1   -1    0    0  501    0 -0.00000000000E+00  0.00000000000E+00  0.16758965993E+04  0.16758965993E+04  0.00000000000E+00 0. -1.
          2   -1    0    0  502    0  0.00000000000E+00 -0.00000000000E+00 -0.28394384609E+03  0.28394384609E+03  0.00000000000E+00 0. -1.
         25    1    1    2    0    0  0.16683946345E+03 -0.40837286236E+02  0.28013836274E+03  0.35157587060E+03  0.12500000000E+03 0.  0.
          2    1    1    2  501    0 -0.83638714802E+02 -0.56933774804E+02  0.13414065413E+04  0.13452168592E+04  0.00000000000E+00 0. -1.
          1    1    1    2  502    0 -0.83200748644E+02  0.97771061040E+02 -0.22959215082E+03  0.26304771557E+03  0.00000000000E+00 0. -1.
<mgrwt>
<rscale>  0 0.11425606E+03</rscale>
<asrwt>0</asrwt>
<pdfrwt beam="2">  1        2 0.43683670E-01 0.12902519E+03</pdfrwt>
<pdfrwt beam="1">  1        1 0.25783024E+00 0.10117751E+03</pdfrwt>
<totfact> 0.95676243E+01</totfact>
</mgrwt>
</event>
<event>
 5    1  0.8459321E-003  0.8682363E+02  0.7546771E-02  0.1436119E+00
         -2   -1    0    0    0  501 -0.00000000000E+00  0.00000000000E+00  0.41393756896E+02  0.41393756896E+02  0.00000000000E+00 0.  1.
          2   -1    0    0  502    0  0.00000000000E+00 -0.00000000000E+00 -0.18762551223E+04  0.18762551223E+04  0.00000000000E+00 0. -1.
         25    1    1    2    0    0  0.69124801946E+01  0.10796322804E+03 -0.22290565094E+03  0.27751715300E+03  0.12500000000E+03 0.  0.
          1    1    1    2  502    0 -0.54935225592E+01 -0.30352966426E+02 -0.15177605766E+04  0.15180739934E+04  0.00000000000E+00 0. -1.
         -1    1    1    2    0  501 -0.14189576354E+01 -0.77610261616E+02 -0.94195137809E+02  0.12205773280E+03  0.00000000000E+00 0.  1.
<mgrwt>
<rscale>  0 0.51751034E+02</rscale>
<asrwt>0</asrwt>
<pdfrwt beam="2">  1        2 0.28865469E+00 0.30846092E+02</pdfrwt>
<pdfrwt beam="1">  1       -2 0.63682692E-02 0.86823626E+02</pdfrwt>
<totfact> 0.13384587E+03</totfact>
</mgrwt>
</event>
<event>
 5    1  0.8459321E-003  0.6318782E+02  0.7546771E-02  0.1439432E+00
          2   -1    0    0  502    0  0.00000000000E+00  0.00000000000E+00  0.79653684211E+02  0.79653684211E+02  0.00000000000E+00 0. -1.
          1   -1    0    0  501    0 -0.00000000000E+00 -0.00000000000E+00 -0.12508872130E+04  0.12508872130E+04  0.00000000000E+00 0. -1.
         25    1    1    2    0    0  0.74262792673E+02  0.11253219927E+02 -0.94872860367E+03  0.95987111675E+03  0.12500000000E+03 0.  0.
          2    1    1    2  501    0 -0.16888751273E+02 -0.37737961598E+02 -0.28132022441E+03  0.28434213955E+03  0.00000000000E+00 0. -1.
          1    1    1    2  502    0 -0.57374041400E+02  0.26484741671E+02  0.58815299246E+02  0.86327640958E+02  0.00000000000E+00 0. -1.
<mgrwt>
<rscale>  0 0.51112435E+02</rscale>
<asrwt>0</asrwt>
<pdfrwt beam="1">  1        2 0.12254412E-01 0.63187818E+02</pdfrwt>
<pdfrwt beam="2">  1        1 0.19244420E+00 0.41344693E+02</pdfrwt>
<totfact> 0.77064154E+02</totfact>
</mgrwt>
</event>
<event>
 5    1  0.8459321E-003  0.1000631E+03  0.7546771E-02  0.1295259E+00
          2   -1    0    0  502    0  0.00000000000E+00  0.00000000000E+00  0.35229041693E+03  0.35229041693E+03  0.00000000000E+00 0. -1.
         -2   -1    0    0    0  501 -0.00000000000E+00 -0.00000000000E+00 -0.60696937469E+03  0.60696937469E+03  0.00000000000E+00 0.  1.
         25    1    1    2    0    0  0.40717390883E+02 -0.15697313376E+03 -0.81924036856E+02  0.22053348603E+03  0.12500000000E+03 0.  0.
          1    1    1    2  502    0 -0.64145203478E+02  0.73367160671E+02  0.27025431149E+03  0.28728860101E+03  0.00000000000E+00 0. -1.
         -1    1    1    2    0  501  0.23427812595E+02  0.83605973093E+02 -0.44300923239E+03  0.45143770459E+03  0.00000000000E+00 0.  1.
<mgrwt>
<rscale>  0 0.93210048E+02</rscale>
<asrwt>0</asrwt>
<pdfrwt beam="1">  1        2 0.54198527E-01 0.10006305E+03</pdfrwt>
<pdfrwt beam="2">  1       -2 0.93379902E-01 0.86826385E+02</pdfrwt>
<totfact> 0.96056634E+01</totfact>
</mgrwt>
</event>
<event>
 5    1  0.8459321E-003  0.8927511E+02  0.7546771E-02  0.1324976E+00
          2   -1    0    0  502    0  0.00000000000E+00  0.00000000000E+00  0.36589172252E+04  0.36589172252E+04  0.00000000000E+00 0. -1.
          1   -1    0    0  501    0 -0.00000000000E+00 -0.00000000000E+00 -0.87345090204E+02  0.87345090204E+02  0.00000000000E+00 0. -1.
         25    1    1    2    0    0 -0.11033137600E+02  0.13656303785E+02  0.20812458399E+03  0.24341131284E+03  0.12500000000E+03 0.  0.
          2    1    1    2  501    0 -0.40002826782E+02  0.62632526079E+02 -0.49098090833E+02  0.89071218679E+02  0.00000000000E+00 0. -1.
          1    1    1    2  502    0  0.51035964381E+02 -0.76288829864E+02  0.34125456418E+04  0.34137797839E+04  0.00000000000E+00 0. -1.
<mgrwt>
<rscale>  0 0.81453572E+02</rscale>
<asrwt>0</asrwt>
<pdfrwt beam="1">  1        2 0.56291023E+00 0.89275114E+02</pdfrwt>
<pdfrwt beam="2">  1        1 0.13437709E-01 0.74317289E+02</pdfrwt>
<totfact> 0.53814575E+01</totfact>
</mgrwt>
</event>
<event>
 5    1  0.8459321E-003  0.8745586E+02  0.7546771E-02  0.1423251E+00
          2   -1    0    0  502    0  0.00000000000E+00  0.00000000000E+00  0.24613693451E+04  0.24613693451E+04  0.00000000000E+00 0. -1.
          1   -1    0    0  501    0 -0.00000000000E+00 -0.00000000000E+00 -0.64506732810E+03  0.64506732810E+03  0.00000000000E+00 0. -1.
         25    1    1    2    0    0  0.38899396165E+02  0.40121277204E+02  0.31870580501E+03  0.34687356494E+03  0.12500000000E+03 0.  0.
          2    1    1    2  501    0  0.21378374643E+02  0.26131772447E+02 -0.62958865376E+03  0.63049328100E+03  0.00000000000E+00 0. -1.
          1    1    1    2  502    0 -0.60277770808E+02 -0.66253049651E+02  0.21271848658E+04  0.21290698273E+04  0.00000000000E+00 0. -1.
<mgrwt>
<rscale>  0 0.54338990E+02</rscale>
<asrwt>0</asrwt>
<pdfrwt beam="1">  1        2 0.37867220E+00 0.87455858E+02</pdfrwt>
<pdfrwt beam="2">  1        1 0.99241129E-01 0.33762471E+02</pdfrwt>
<totfact> 0.22923145E+01</totfact>
</mgrwt>
</event>
<event>
 5    1  0.8459321E-003  0.5778971E+02  0.7546771E-02  0.1437456E+00
          1   -1    0    0  501    0 -0.00000000000E+00  0.00000000000E+00  0.48375886977E+03  0.48375886977E+03  0.00000000000E+00 0. -1.
          2   -1    0    0  502    0  0.00000000000E+00 -0.00000000000E+00 -0.14150595160E+03  0.14150595160E+03  0.00000000000E+00 0. -1.
         25    1    1    2    0    0 -0.34865828992E+02  0.33387369683E+02 -0.28802626393E+02  0.13705814012E+03  0.12500000000E+03 0.  0.
          2    1    1    2  501    0  0.33329396223E+02  0.31531012999E+02  0.40995233680E+03  0.41251178393E+03  0.00000000000E+00 0. -1.
          1    1    1    2  502    0  0.15364327689E+01 -0.64918382682E+02 -0.38896792233E+02  0.75694897329E+02  0.00000000000E+00 0. -1.
<mgrwt>
<rscale>  0 0.51492153E+02</rscale>
<asrwt>0</asrwt>
<pdfrwt beam="2">  1        2 0.21770147E-01 0.57789713E+02</pdfrwt>
<pdfrwt beam="1">  1        1 0.74424440E-01 0.45880861E+02</pdfrwt>
<totfact> 0.15934674E+03</totfact>
</mgrwt>
</event>
<event>
 5    1  0.8459321E-003  0.8358913E+02  0.7546771E-02  0.1368775E+00
         -1   -1    0    0    0  501 -0.00000000000E+00  0.00000000000E+00  0.19290671941E+03  0.19290671941E+03  0.00000000000E+00 0.  1.
          1   -1    0    0  502    0  0.00000000000E+00 -0.00000000000E+00 -0.67198732874E+03  0.67198732874E+03  0.00000000000E+00 0. -1.
         25    1    1    2    0    0 -0.12668785577E+03 -0.43814516653E+02  0.69939165005E+02  0.19617851939E+03  0.12500000000E+03 0.  0.
          2    1    1    2  502    0  0.81454355446E+02  0.13374895637E+02 -0.59296830479E+03  0.59868615345E+03  0.00000000000E+00 0. -1.
         -2    1    1    2    0  501  0.45233500319E+02  0.30439621016E+02  0.43948530451E+02  0.70029375318E+02  0.00000000000E+00 0.  1.
<mgrwt>
<rscale>  0 0.67508813E+02</rscale>
<asrwt>0</asrwt>
<pdfrwt beam="2">  1        1 0.10338267E+00 0.83589126E+02</pdfrwt>
<pdfrwt beam="1">  1       -1 0.29677956E-01 0.54521923E+02</pdfrwt>
<totfact> 0.31974374E+02</totfact>
</mgrwt>
</event>
<event>
 5    1  0.8459321E-003  0.9637158E+02  0.7546771E-02  0.1371414E+00
          2   -1    0    0  502    0  0.00000000000E+00  0.00000000000E+00  0.13562384224E+04  0.13562384224E+04  0.00000000000E+00 0. -1.
          1   -1    0    0  501    0 -0.00000000000E+00 -0.00000000000E+00 -0.26031773428E+03  0.26031773428E+03  0.00000000000E+00 0. -1.
         25    1    1    2    0    0 -0.31292012348E+02  0.59511138712E+02 -0.27688308175E+02  0.14461123081E+03  0.12500000000E+03 0.  0.
          2    1    1    2  501    0 -0.46256833056E+02 -0.10409569897E+01 -0.16924120078E+03  0.17545188012E+03  0.00000000000E+00 0. -1.
          1    1    1    2  502    0  0.77548845403E+02 -0.58470181722E+02  0.12928501971E+04  0.12964930458E+04  0.00000000000E+00 0. -1.
<mgrwt>
<rscale>  0 0.66775539E+02</rscale>
<asrwt>0</asrwt>
<pdfrwt beam="1">  1        2 0.20865206E+00 0.96371577E+02</pdfrwt>
<pdfrwt beam="2">  1        1 0.40048883E-01 0.46268544E+02</pdfrwt>
<totfact> 0.24922707E+02</totfact>
</mgrwt>
</event>
<event>
 5    1  0.8459321E-003  0.8718128E+02  0.7546771E-02  0.1314996E+00
         -2   -1    0    0    0  501 -0.00000000000E+00  0.00000000000E+00  0.49292811878E+03  0.49292811878E+03  0.00000000000E+00 0.  1.
          2   -1    0    0  502    0  0.00000000000E+00 -0.00000000000E+00 -0.11174645692E+04  0.11174645692E+04  0.00000000000E+00 0. -1.
         25    1    1    2    0    0 -0.11344542799E+02  0.60681261323E+02 -0.75375900779E+01  0.13961636506E+03  0.12500000000E+03 0.  0.
          1    1    1    2  502    0 -0.75768472836E+02 -0.34370170151E+02 -0.10373534463E+04  0.10406845548E+04  0.00000000000E+00 0. -1.
         -1    1    1    2    0  501  0.87113015635E+02 -0.26311091172E+02  0.42035458599E+03  0.43009176808E+03  0.00000000000E+00 0.  1.
<mgrwt>
<rscale>  0 0.85167166E+02</rscale>
<asrwt>0</asrwt>
<pdfrwt beam="2">  1        2 0.17191762E+00 0.83199580E+02</pdfrwt>
<pdfrwt beam="1">  1       -2 0.75835096E-01 0.87181284E+02</pdfrwt>
<totfact> 0.39631358E+01</totfact>
</mgrwt>
</event>
<event>
 5    1  0.1216633E-002  0.9659074E+02  0.7546771E-02  0.1332543E+00
          2   -1    0    0  502    0  0.00000000000E+00  0.00000000000E+00  0.58985770905E+03  0.58985770905E+03  0.00000000000E+00 0. -1.
         -2   -1    0    0    0  501 -0.00000000000E+00 -0.00000000000E+00 -0.51773458420E+02  0.51773458420E+02  0.00000000000E+00 0.  1.
         25    1    1    2    0    0 -0.15275965982E+02 -0.13567161630E+03  0.28436614685E+03  0.33930701154E+03  0.12500000000E+03 0.  0.
          1    1    1    2  502    0 -0.24235112205E+02  0.59512022509E+02  0.17290506809E+03  0.18445916637E+03  0.00000000000E+00 0. -1.
         -1    1    1    2    0  501  0.39511078187E+02  0.76159593794E+02  0.80813035696E+02  0.11786498956E+03  0.00000000000E+00 0.  1.
<mgrwt>
<rscale>  0 0.78782457E+02</rscale>
<asrwt>0</asrwt>
<pdfrwt beam="1">  1        2 0.90747335E-01 0.64257462E+02</pdfrwt>
<pdfrwt beam="2">  1       -2 0.79651479E-02 0.96590736E+02</pdfrwt>
<totfact> 0.47005680E+03</totfact>
</mgrwt>
</event>
<event>
 5    1  0.8459321E-003  0.1108937E+03  0.7546771E-02  0.1408915E+00
          2   -1    0    0  502    0  0.00000000000E+00  0.00000000000E+00  0.48388210463E+02  0.48388210463E+02  0.00000000000E+00 0. -1.
          1   -1    0    0  501    0 -0.00000000000E+00 -0.00000000000E+00 -0.11386543949E+04  0.11386543949E+04  0.00000000000E+00 0. -1.
         25    1    1    2    0    0  0.86929877209E+02 -0.21211724167E+02 -0.26079035489E+03  0.30272652675E+03  0.12500000000E+03 0.  0.
          2    1    1    2  501    0 -0.11458680438E+03  0.10253306494E+02 -0.84358322310E+03  0.85139175491E+03  0.00000000000E+00 0. -1.
          1    1    1    2  502    0  0.27656927172E+02  0.10958417673E+02  0.14107393554E+02  0.32924323704E+02  0.00000000000E+00 0. -1.
<mgrwt>
<rscale>  0 0.57436558E+02</rscale>
<asrwt>0</asrwt>
<pdfrwt beam="1">  1        2 0.74443403E-02 0.29748824E+02</pdfrwt>
<pdfrwt beam="2">  1        1 0.17517759E+00 0.11089374E+03</pdfrwt>
<totfact> 0.14365052E+03</totfact>
</mgrwt>
</event>
<event>
 5    1  0.8459321E-003  0.5806920E+02  0.7546771E-02  0.1496858E+00
          2   -1    0    0  502    0  0.00000000000E+00  0.00000000000E+00  0.90844108355E+03  0.90844108355E+03  0.00000000000E+00 0. -1.
          1   -1    0    0  501    0 -0.00000000000E+00 -0.00000000000E+00 -0.24936027244E+04  0.24936027244E+04  0.00000000000E+00 0. -1.
         25    1    1    2    0    0 -0.32052206928E+02  0.24485929884E+02 -0.37534743200E+03  0.39766518510E+03  0.12500000000E+03 0.  0.
          2    1    1    2  501    0 -0.25384686255E+02 -0.15572982468E+02 -0.21060497333E+04  0.21062602829E+04  0.00000000000E+00 0. -1.
          1    1    1    2  502    0  0.57436893183E+02 -0.89129474163E+01  0.89623552445E+03  0.89811833998E+03  0.00000000000E+00 0. -1.
<mgrwt>
<rscale>  0 0.41585468E+02</rscale>
<asrwt>0</asrwt>
<pdfrwt beam="1">  1        2 0.13976017E+00 0.58069198E+02</pdfrwt>
<pdfrwt beam="2">  1        1 0.38363119E+00 0.29780868E+02</pdfrwt>
<totfact> 0.98933618E+00</totfact>
</mgrwt>
</event>
<event>
 5    1  0.8459321E-003  0.8380600E+02  0.7546771E-02  0.1334486E+00
         -1   -1    0    0    0  502 -0.00000000000E+00  0.00000000000E+00  0.14278934924E+04  0.14278934924E+04  0.00000000000E+00 0.  1.
         -2   -1    0    0    0  501  0.00000000000E+00 -0.00000000000E+00 -0.11125792035E+03  0.11125792035E+03  0.00000000000E+00 0.  1.
         25    1    1    2    0    0 -0.58402042279E+02 -0.29444746796E+02  0.67788931535E+03  0.69241368814E+03  0.12500000000E+03 0.  0.
         -2    1    1    2    0  502  0.94185221707E+02 -0.33966925255E+02  0.72612703984E+03  0.73299733013E+03  0.00000000000E+00 0.  1.
         -1    1    1    2    0  501 -0.35783179428E+02  0.63411672050E+02 -0.87380783114E+02  0.11374039449E+03  0.00000000000E+00 0.  1.
<mgrwt>
<rscale>  0 0.78115417E+02</rscale>
<asrwt>0</asrwt>
<pdfrwt beam="2">  1       -2 0.17116604E-01 0.72811236E+02</pdfrwt>
<pdfrwt beam="1">  1       -1 0.21967591E+00 0.83805998E+02</pdfrwt>
<totfact> 0.26696678E+01</totfact>
</mgrwt>
</event>
<event>
 5    1  0.8459321E-003  0.1261548E+03  0.7546771E-02  0.1338187E+00
          2   -1    0    0  502    0  0.00000000000E+00  0.00000000000E+00  0.55057544616E+03  0.55057544616E+03  0.00000000000E+00 0. -1.
          1   -1    0    0  501    0 -0.00000000000E+00 -0.00000000000E+00 -0.16448471007E+03  0.16448471007E+03  0.00000000000E+00 0. -1.
         25    1    1    2    0    0  0.11300831816E+03  0.10197229863E+03  0.37207482533E+03  0.42099157391E+03  0.12500000000E+03 0.  0.
          2    1    1    2  501    0 -0.39215588268E+02 -0.25605340947E+02 -0.11664444809E+03  0.12569575617E+03  0.00000000000E+00 0. -1.
          1    1    1    2  502    0 -0.73792729888E+02 -0.76366957678E+02  0.13066035886E+03  0.16837282615E+03  0.00000000000E+00 0. -1.
<mgrwt>
<rscale>  0 0.76866310E+02</rscale>
<asrwt>0</asrwt>
<pdfrwt beam="1">  1        2 0.84703914E-01 0.12615476E+03</pdfrwt>
<pdfrwt beam="2">  1        1 0.25305340E-01 0.46834772E+02</pdfrwt>
<totfact> 0.13851056E+03</totfact>
</mgrwt>
</event>
<event>
 5    1  0.8459321E-003  0.7070882E+02  0.7546771E-02  0.1365123E+00
          2   -1    0    0  502    0  0.00000000000E+00  0.00000000000E+00  0.26247561685E+03  0.26247561685E+03  0.00000000000E+00 0. -1.
          1   -1    0    0  501    0 -0.00000000000E+00 -0.00000000000E+00 -0.92003361564E+03  0.92003361564E+03  0.00000000000E+00 0. -1.
         25    1    1    2    0    0  0.88947354427E+02  0.32742800268E+02 -0.11268853788E+03  0.19315131218E+03  0.12500000000E+03 0.  0.
          2    1    1    2  501    0 -0.64545033210E+02  0.29054797768E+02 -0.76046742675E+03  0.76375450881E+03  0.00000000000E+00 0. -1.
          1    1    1    2  502    0 -0.24402321217E+02 -0.61797598036E+02  0.21559796584E+03  0.22560341149E+03  0.00000000000E+00 0. -1.
<mgrwt>
<rscale>  0 0.68541737E+02</rscale>
<asrwt>0</asrwt>
<pdfrwt beam="1">  1        2 0.40380864E-01 0.66441075E+02</pdfrwt>
<pdfrwt beam="2">  1        1 0.14154363E+00 0.70708816E+02</pdfrwt>
<totfact> 0.33859028E+02</totfact>
</mgrwt>
</event>
<event>
 5    1  0.8459321E-003  0.1236128E+03  0.7546771E-02  0.1260688E+00
          2   -1    0    0  502    0  0.00000000000E+00  0.00000000000E+00  0.13086994990E+03  0.13086994990E+03  0.00000000000E+00 0. -1.
          1   -1    0    0  501    0 -0.00000000000E+00 -0.00000000000E+00 -0.13722266359E+04  0.13722266359E+04  0.00000000000E+00 0. -1.
         25    1    1    2    0    0  0.11454381993E+02 -0.20419425598E+03 -0.47955412834E+03  0.53611907170E+03  0.12500000000E+03 0.  0.
          2    1    1    2  501    0  0.29922156671E+02  0.93081801229E+02 -0.82625873427E+03  0.83202346910E+03  0.00000000000E+00 0. -1.
          1    1    1    2  502    0 -0.41376538665E+02  0.11111245475E+03  0.64456176616E+02  0.13495404498E+03  0.00000000000E+00 0. -1.
<mgrwt>
<rscale>  0 0.10993630E+03</rscale>
<asrwt>0</asrwt>
<pdfrwt beam="1">  1        2 0.20133838E-01 0.12361277E+03</pdfrwt>
<pdfrwt beam="2">  1        1 0.21111179E+00 0.97772988E+02</pdfrwt>
<totfact> 0.34780229E+02</totfact>
</mgrwt>
</event>
<event>
 5    1  0.8459321E-003  0.1866526E+03  0.7546771E-02  0.1232043E+00
          1   -1    0    0  501    0 -0.00000000000E+00  0.00000000000E+00  0.17503021354E+04  0.17503021354E+04  0.00000000000E+00 0. -1.
          2   -1    0    0  502    0  0.00000000000E+00 -0.00000000000E+00 -0.10329989296E+04  0.10329989296E+04  0.00000000000E+00 0. -1.
         25    1    1    2    0    0  0.39699012868E+02 -0.18952368561E+03  0.18118827166E+02  0.23118938325E+03  0.12500000000E+03 0.  0.
          2    1    1    2  501    0 -0.11520386648E+03  0.14762223555E+03  0.16182250188E+04  0.16290231633E+04  0.00000000000E+00 0. -1.
          1    1    1    2  502    0  0.75504853616E+02  0.41901450060E+02 -0.91904064021E+03  0.92308851839E+03  0.00000000000E+00 0. -1.
<mgrwt>
<rscale>  0 0.12695619E+03</rscale>
<asrwt>0</asrwt>
<pdfrwt beam="2">  1        2 0.15892291E+00 0.86352269E+02</pdfrwt>
<pdfrwt beam="1">  1        1 0.26927725E+00 0.18665259E+03</pdfrwt>
<totfact> 0.18652538E+01</totfact>
</mgrwt>
</event>
<event>
 5    1  0.8459321E-003  0.1180801E+03  0.7546771E-02  0.1335384E+00
         -2   -1    0    0    0  501 -0.00000000000E+00  0.00000000000E+00  0.41395493475E+03  0.41395493475E+03  0.00000000000E+00 0.  1.
          2   -1    0    0  502    0  0.00000000000E+00 -0.00000000000E+00 -0.98200830660E+03  0.98200830660E+03  0.00000000000E+00 0. -1.
         25    1    1    2    0    0 -0.63143781842E+02  0.24609026002E+02 -0.51584707846E+03  0.53508499297E+03  0.12500000000E+03 0.  0.
          1    1    1    2  502    0 -0.45871995658E+02  0.22907445975E+02 -0.44629845184E+03  0.44923412513E+03  0.00000000000E+00 0. -1.
         -1    1    1    2    0  501  0.10901577750E+03 -0.47516471977E+02  0.39409215845E+03  0.41164412325E+03  0.00000000000E+00 0.  1.
<mgrwt>
<rscale>  0 0.77810037E+02</rscale>
<asrwt>0</asrwt>
<pdfrwt beam="2">  1        2 0.15107820E+00 0.51273688E+02</pdfrwt>
<pdfrwt beam="1">  1       -2 0.63685374E-01 0.11808009E+03</pdfrwt>
<totfact> 0.69896814E+01</totfact>
</mgrwt>
</event>
<event>
 5    1  0.8459321E-003  0.9533674E+02  0.7546771E-02  0.1358878E+00
          2   -1    0    0  502    0  0.00000000000E+00  0.00000000000E+00  0.92405220732E+02  0.92405220732E+02  0.00000000000E+00 0. -1.
          1   -1    0    0  501    0 -0.00000000000E+00 -0.00000000000E+00 -0.31319888952E+03  0.31319888952E+03  0.00000000000E+00 0. -1.
         25    1    1    2    0    0 -0.47016890530E+02 -0.90806256833E+02 -0.77837605242E+02  0.17927648219E+03  0.12500000000E+03 0.  0.
          2    1    1    2  501    0 -0.34323074316E+02  0.38962875640E+02 -0.11455929828E+03  0.12577762890E+03  0.00000000000E+00 0. -1.
          1    1    1    2  502    0  0.81339964846E+02  0.51843381193E+02 -0.28396765263E+02  0.10054999916E+03  0.00000000000E+00 0. -1.
<mgrwt>
<rscale>  0 0.70358622E+02</rscale>
<asrwt>0</asrwt>
<pdfrwt beam="1">  1        2 0.14216188E-01 0.95336736E+02</pdfrwt>
<pdfrwt beam="2">  1        1 0.48184445E-01 0.51924745E+02</pdfrwt>
<totfact> 0.44579131E+03</totfact>
</mgrwt>
</event>
<event>
 5    1  0.8459321E-003  0.9538944E+02  0.7546771E-02  0.1415300E+00
          3   -1    0    0  501    0 -0.00000000000E+00  0.00000000000E+00  0.36188214406E+03  0.36188214406E+03  0.00000000000E+00 0. -1.
          2   -1    0    0  502    0  0.00000000000E+00 -0.00000000000E+00 -0.12496011246E+03  0.12496011246E+03  0.00000000000E+00 0. -1.
         25    1    1    2    0    0 -0.62353240411E+02  0.81694885426E+02  0.11696843599E+03  0.19967121954E+03  0.12500000000E+03 0.  0.
          2    1    1    2  501    0 -0.16295073144E+02 -0.28590708959E+02  0.17459297079E+03  0.17766728314E+03  0.00000000000E+00 0. -1.
          1    1    1    2  502    0  0.78648313555E+02 -0.53104176467E+02 -0.54639375184E+02  0.10950375383E+03  0.00000000000E+00 0. -1.
<mgrwt>
<rscale>  0 0.56027733E+02</rscale>
<asrwt>0</asrwt>
<pdfrwt beam="2">  1        2 0.19224633E-01 0.95389435E+02</pdfrwt>
<pdfrwt beam="1">  1        3 0.55674176E-01 0.32908328E+02</pdfrwt>
<totfact> 0.50070332E+02</totfact>
</mgrwt>
</event>
<event>
 5    1  0.8459321E-003  0.1226710E+03  0.7546771E-02  0.1319637E+00
          2   -1    0    0  502    0  0.00000000000E+00  0.00000000000E+00  0.33447288257E+03  0.33447288257E+03  0.00000000000E+00 0. -1.
          1   -1    0    0  501    0 -0.00000000000E+00 -0.00000000000E+00 -0.13181260781E+04  0.13181260781E+04  0.00000000000E+00 0. -1.
         25    1    1    2    0    0 -0.16753026469E+03  0.52150385435E+02 -0.11151818459E+03  0.24258474351E+03  0.12500000000E+03 0.  0.
          2    1    1    2  501    0  0.54419928542E+02 -0.15981319129E+02 -0.11272177205E+04  0.11286437528E+04  0.00000000000E+00 0. -1.
          1    1    1    2  502    0  0.11311033615E+03 -0.36169066306E+02  0.25508270959E+03  0.28137046439E+03  0.00000000000E+00 0. -1.
<mgrwt>
<rscale>  0 0.83412555E+02</rscale>
<asrwt>0</asrwt>
<pdfrwt beam="1">  1        2 0.51457367E-01 0.12267102E+03</pdfrwt>
<pdfrwt beam="2">  1        1 0.20278863E+00 0.56717997E+02</pdfrwt>
<totfact> 0.14365401E+02</totfact>
</mgrwt>
</event>
<event>
 5    1  0.8459321E-003  0.5774796E+02  0.7546771E-02  0.1422962E+00
          1   -1    0    0  502    0  0.00000000000E+00  0.00000000000E+00  0.27727094184E+03  0.27727094184E+03  0.00000000000E+00 0. -1.
         -1   -1    0    0    0  501 -0.00000000000E+00 -0.00000000000E+00 -0.35701605887E+03  0.35701605887E+03  0.00000000000E+00 0.  1.
         25    1    1    2    0    0 -0.25964459911E+02 -0.11736791959E+02 -0.31005073612E+02  0.13190231254E+03  0.12500000000E+03 0.  0.
          2    1    1    2  502    0  0.17377784421E+02 -0.48207938654E+02  0.22052166120E+03  0.22639742887E+03  0.00000000000E+00 0. -1.
         -2    1    1    2    0  501  0.85866754906E+01  0.59944730613E+02 -0.26926170462E+03  0.27598725930E+03  0.00000000000E+00 0.  1.
<mgrwt>
<rscale>  0 0.54399098E+02</rscale>
<asrwt>0</asrwt>
<pdfrwt beam="1">  1        1 0.42657068E-01 0.51244441E+02</pdfrwt>
<pdfrwt beam="2">  1       -1 0.54925547E-01 0.57747960E+02</pdfrwt>
<totfact> 0.34002400E+02</totfact>
</mgrwt>
</event>
<event>
 5    1  0.8459321E-003  0.1344951E+03  0.7546771E-02  0.1279985E+00
          1   -1    0    0  501    0 -0.00000000000E+00  0.00000000000E+00  0.18822347382E+04  0.18822347382E+04  0.00000000000E+00 0. -1.
          2   -1    0    0  502    0  0.00000000000E+00 -0.00000000000E+00 -0.93272744689E+02  0.93272744689E+02  0.00000000000E+00 0. -1.
         25    1    1    2    0    0 -0.21192239052E+02 -0.83856533861E+02  0.12079165368E+04  0.12174433823E+04  0.12500000000E+03 0.  0.
          2    1    1    2  501    0 -0.72846112017E+02 -0.15951927279E+02  0.61278661652E+03  0.61730742537E+03  0.00000000000E+00 0. -1.
          1    1    1    2  502    0  0.94038351070E+02  0.99808461140E+02 -0.31741159821E+02  0.14075667520E+03  0.00000000000E+00 0. -1.
<mgrwt>
<rscale>  0 0.10014790E+03</rscale>
<asrwt>0</asrwt>
<pdfrwt beam="2">  1        2 0.14349654E-01 0.13449509E+03</pdfrwt>
<pdfrwt beam="1">  1        1 0.28957455E+00 0.74572247E+02</pdfrwt>
<totfact> 0.25243927E+02</totfact>
</mgrwt>
</event>
<event>
 5    1  0.8459321E-003  0.4649557E+02  0.7546771E-02  0.1550848E+00
          1   -1    0    0  501    0 -0.00000000000E+00  0.00000000000E+00  0.15260427978E+04  0.15260427978E+04  0.00000000000E+00 0. -1.
          2   -1    0    0  502    0  0.00000000000E+00 -0.00000000000E+00 -0.13245994981E+03  0.13245994981E+03  0.00000000000E+00 0. -1.
         25    1    1    2    0    0 -0.32932316626E+02 -0.29289057583E+02  0.24856492626E+03  0.28169470875E+03  0.12500000000E+03 0.  0.
          2    1    1    2  501    0  0.46218201102E+02  0.69761558641E+01  0.12590191162E+04  0.12598864726E+04  0.00000000000E+00 0. -1.
          1    1    1    2  502    0 -0.13285884476E+02  0.22312901719E+02 -0.11400119449E+03  0.11692156625E+03  0.00000000000E+00 0. -1.
<mgrwt>
<rscale>  0 0.34748177E+02</rscale>
<asrwt>0</asrwt>
<pdfrwt beam="2">  1        2 0.20378455E-01 0.25968833E+02</pdfrwt>
<pdfrwt beam="1">  1        1 0.23477580E+00 0.46495573E+02</pdfrwt>
<totfact> 0.27507636E+02</totfact>
</mgrwt>
</event>
<event>
 5    1  0.8459321E-003  0.8057295E+02  0.7546771E-02  0.1353344E+00
          2   -1    0    0  502    0  0.00000000000E+00  0.00000000000E+00  0.31068739193E+04  0.31068739193E+04  0.00000000000E+00 0. -1.
          1   -1    0    0  501    0 -0.00000000000E+00 -0.00000000000E+00 -0.85040967390E+02  0.85040967390E+02  0.00000000000E+00 0. -1.
         25    1    1    2    0    0  0.17680842119E+02  0.22949893451E+01  0.13343747555E+03  0.18370748225E+03  0.12500000000E+03 0.  0.
          2    1    1    2  501    0  0.61519028847E+02  0.18983887029E+02 -0.41867180797E+02  0.76797393868E+02  0.00000000000E+00 0. -1.
          1    1    1    2  502    0 -0.79199870965E+02 -0.21278876374E+02  0.29302626572E+04  0.29314100106E+04  0.00000000000E+00 0. -1.
<mgrwt>
<rscale>  0 0.72023663E+02</rscale>
<asrwt>0</asrwt>
<pdfrwt beam="1">  1        2 0.47798051E+00 0.80572948E+02</pdfrwt>
<pdfrwt beam="2">  1        1 0.13083228E-01 0.64381510E+02</pdfrwt>
<totfact> 0.12368503E+02</totfact>
</mgrwt>
</event>
<event>
 5    1  0.8459321E-003  0.1478451E+03  0.7546771E-02  0.1295402E+00
          1   -1    0    0  501    0 -0.00000000000E+00  0.00000000000E+00  0.30293719172E+03  0.30293719172E+03  0.00000000000E+00 0. -1.
          2   -1    0    0  502    0  0.00000000000E+00 -0.00000000000E+00 -0.40793753678E+04  0.40793753678E+04  0.00000000000E+00 0. -1.
         25    1    1    2    0    0  0.11025196569E+03  0.81525768090E+02 -0.27294970953E+03  0.33004316495E+03  0.12500000000E+03 0.  0.
          2    1    1    2  501    0 -0.75463048598E+02 -0.12879015014E+03  0.25384337149E+03  0.29447925517E+03  0.00000000000E+00 0. -1.
          1    1    1    2  502    0 -0.34788917093E+02  0.47264382047E+02 -0.37573318381E+04  0.37577901394E+04  0.00000000000E+00 0. -1.
<mgrwt>
<rscale>  0 0.93148360E+02</rscale>
<asrwt>0</asrwt>
<pdfrwt beam="2">  1        2 0.62759617E+00 0.58687227E+02</pdfrwt>
<pdfrwt beam="1">  1        1 0.46605725E-01 0.14784507E+03</pdfrwt>
<totfact> 0.64167396E+00</totfact>
</mgrwt>
</event>
<event>
 5    1  0.8459321E-003  0.5476089E+02  0.7546771E-02  0.1443809E+00
          1   -1    0    0  502    0  0.00000000000E+00  0.00000000000E+00  0.21334671130E+03  0.21334671130E+03  0.00000000000E+00 0. -1.
         -1   -1    0    0    0  501 -0.00000000000E+00 -0.00000000000E+00 -0.31809075709E+03  0.31809075709E+03  0.00000000000E+00 0.  1.
         25    1    1    2    0    0 -0.42099538323E+02 -0.44705819712E+02  0.14729681514E+03  0.20271243966E+03  0.12500000000E+03 0.  0.
          2    1    1    2  502    0  0.45042394254E+02 -0.10165655476E+02  0.20628599292E+02  0.50573678333E+02  0.00000000000E+00 0. -1.
         -2    1    1    2    0  501 -0.29428559310E+01  0.54871475188E+02 -0.27266946022E+03  0.27815135039E+03  0.00000000000E+00 0.  1.
<mgrwt>
<rscale>  0 0.50285188E+02</rscale>
<asrwt>0</asrwt>
<pdfrwt beam="1">  1        1 0.32822571E-01 0.46175295E+02</pdfrwt>
<pdfrwt beam="2">  1       -1 0.48937040E-01 0.54760887E+02</pdfrwt>
<totfact> 0.57111738E+02</totfact>
</mgrwt>
</event>
<event>
 5    1  0.8459321E-003  0.2965270E+03  0.7546771E-02  0.1279172E+00
          2   -1    0    0  502    0  0.00000000000E+00  0.00000000000E+00  0.93472224632E+03  0.93472224632E+03  0.00000000000E+00 0. -1.
          1   -1    0    0  501    0 -0.00000000000E+00 -0.00000000000E+00 -0.96270605632E+03  0.96270605632E+03  0.00000000000E+00 0. -1.
         25    1    1    2    0    0  0.10476439600E+03 -0.29658380263E+03  0.37831861935E+03  0.50762930215E+03  0.12500000000E+03 0.  0.
          2    1    1    2  501    0  0.56236997788E+01  0.33619359813E+02 -0.85633277595E+03  0.85701091622E+03  0.00000000000E+00 0. -1.
          1    1    1    2  502    0 -0.11038809578E+03  0.26296444282E+03  0.45003034661E+03  0.53278808427E+03  0.00000000000E+00 0. -1.
<mgrwt>
<rscale>  0 0.10053635E+03</rscale>
<asrwt>0</asrwt>
<pdfrwt beam="1">  1        2 0.14380342E+00 0.29652699E+03</pdfrwt>
<pdfrwt beam="2">  1        1 0.14810862E+00 0.34086469E+02</pdfrwt>
<totfact> 0.76749141E+01</totfact>
</mgrwt>
</event>
<event>
 5    1  0.8459321E-003  0.1377702E+03  0.7546771E-02  0.1336963E+00
          1   -1    0    0  501    0 -0.00000000000E+00  0.00000000000E+00  0.53419279387E+02  0.53419279387E+02  0.00000000000E+00 0. -1.
          2   -1    0    0  502    0  0.00000000000E+00 -0.00000000000E+00 -0.46152809838E+04  0.46152809838E+04  0.00000000000E+00 0. -1.
         25    1    1    2    0    0 -0.10112910408E+03 -0.58790354419E+02 -0.24139320847E+04  0.24199951469E+04  0.12500000000E+03 0.  0.
          2    1    1    2  501    0  0.13508616166E+03  0.31851624522E+02 -0.45834143557E+02  0.14616280570E+03  0.00000000000E+00 0. -1.
          1    1    1    2  502    0 -0.33957057572E+02  0.26938729896E+02 -0.21020954761E+04  0.21025423105E+04  0.00000000000E+00 0. -1.
<mgrwt>
<rscale>  0 0.77276322E+02</rscale>
<asrwt>0</asrwt>
<pdfrwt beam="2">  1        2 0.71004301E+00 0.43344860E+02</pdfrwt>
<pdfrwt beam="1">  1        1 0.82183532E-02 0.13777020E+03</pdfrwt>
<totfact> 0.23031758E+01</totfact>
</mgrwt>
</event>
<event>
 5    1  0.8459321E-003  0.1477199E+03  0.7546771E-02  0.1368378E+00
          1   -1    0    0  501    0 -0.00000000000E+00  0.00000000000E+00  0.26387760109E+03  0.26387760109E+03  0.00000000000E+00 0. -1.
          2   -1    0    0  502    0  0.00000000000E+00 -0.00000000000E+00 -0.10902234549E+04  0.10902234549E+04  0.00000000000E+00 0. -1.
         25    1    1    2    0    0 -0.13716655022E+03  0.10164844293E+03 -0.26735595386E+03  0.34095641146E+03  0.12500000000E+03 0.  0.
          2    1    1    2  501    0  0.13972868269E+02 -0.27620432384E+02  0.21941228318E+03  0.22158492581E+03  0.00000000000E+00 0. -1.
          3    1    1    2  502    0  0.12319368195E+03 -0.74028010550E+02 -0.77840218316E+03  0.79155971876E+03  0.00000000000E+00 0. -1.
<mgrwt>
<rscale>  0 0.67620059E+02</rscale>
<asrwt>0</asrwt>
<pdfrwt beam="2">  1        2 0.16772668E+00 0.14771991E+03</pdfrwt>
<pdfrwt beam="1">  1        1 0.40596554E-01 0.30953664E+02</pdfrwt>
<totfact> 0.33198087E+02</totfact>
</mgrwt>
</event>
<event>
 5    1  0.8459321E-003  0.4688992E+02  0.7546771E-02  0.1585798E+00
          2   -1    0    0  502    0  0.00000000000E+00  0.00000000000E+00  0.13566849063E+04  0.13566849063E+04  0.00000000000E+00 0. -1.
         -2   -1    0    0    0  501 -0.00000000000E+00 -0.00000000000E+00 -0.29725202538E+02  0.29725202538E+02  0.00000000000E+00 0.  1.
         25    1    1    2    0    0  0.44626513918E+02 -0.15484474555E+02  0.88610369759E+03  0.89612279158E+03  0.12500000000E+03 0.  0.
          1    1    1    2  502    0 -0.11104049917E+02 -0.17449466326E+02  0.44277185197E+03  0.44325466348E+03  0.00000000000E+00 0. -1.
         -1    1    1    2    0  501 -0.33522464001E+02  0.32933940881E+02 -0.19158458201E+01  0.47032653762E+02  0.00000000000E+00 0.  1.
<mgrwt>
<rscale>  0 0.31141950E+02</rscale>
<asrwt>0</asrwt>
<pdfrwt beam="1">  1        2 0.20872071E+00 0.20682935E+02</pdfrwt>
<pdfrwt beam="2">  1       -2 0.45731091E-02 0.46889916E+02</pdfrwt>
<totfact> 0.37494286E+03</totfact>
</mgrwt>
</event>
<event>
 5    1  0.8459321E-003  0.4624730E+02  0.7546771E-02  0.1520661E+00
         -2   -1    0    0    0  501 -0.00000000000E+00  0.00000000000E+00  0.19420603272E+03  0.19420603272E+03  0.00000000000E+00 0.  1.
          2   -1    0    0  502    0  0.00000000000E+00 -0.00000000000E+00 -0.93714589113E+03  0.93714589113E+03  0.00000000000E+00 0. -1.
         25    1    1    2    0    0  0.16350775018E+02  0.75642806032E+02 -0.29374737416E+03  0.32848394447E+03  0.12500000000E+03 0.  0.
          1    1    1    2  502    0 -0.30160418224E+01 -0.31669964909E+02 -0.62263227696E+03  0.62344449272E+03  0.00000000000E+00 0. -1.
         -1    1    1    2    0  501 -0.13334733196E+02 -0.43972841123E+02  0.17343979271E+03  0.17942348665E+03  0.00000000000E+00 0.  1.
<mgrwt>
<rscale>  0 0.38357232E+02</rscale>
<asrwt>0</asrwt>
<pdfrwt beam="2">  1        2 0.14417629E+00 0.31813255E+02</pdfrwt>
<pdfrwt beam="1">  1       -2 0.29877852E-01 0.46247302E+02</pdfrwt>
<totfact> 0.31807268E+02</totfact>
</mgrwt>
</event>
<event>
 5    1  0.8459321E-003  0.7992235E+02  0.7546771E-02  0.1376990E+00
          2   -1    0    0  502    0  0.00000000000E+00  0.00000000000E+00  0.11850066126E+04  0.11850066126E+04  0.00000000000E+00 0. -1.
         -2   -1    0    0    0  501 -0.00000000000E+00 -0.00000000000E+00 -0.19938630891E+03  0.19938630891E+03  0.00000000000E+00 0.  1.
         25    1    1    2    0    0 -0.12013083656E+02  0.42199486280E+02 -0.38956242308E+02  0.13808584155E+03  0.12500000000E+03 0.  0.
          1    1    1    2  502    0 -0.33366304120E+02  0.41551532984E+02  0.11142260974E+04  0.11154997249E+04  0.00000000000E+00 0. -1.
         -1    1    1    2    0  501  0.45379387776E+02 -0.83751019265E+02 -0.89649551415E+02  0.13080735504E+03  0.00000000000E+00 0.  1.
<mgrwt>
<rscale>  0 0.65261582E+02</rscale>
<asrwt>0</asrwt>
<pdfrwt beam="1">  1        2 0.18230870E+00 0.53290151E+02</pdfrwt>
<pdfrwt beam="2">  1       -2 0.30674818E-01 0.79922351E+02</pdfrwt>
<totfact> 0.21876604E+02</totfact>
</mgrwt>
</event>
<event>
 5    1  0.8459321E-003  0.4659545E+03  0.7546771E-02  0.1174670E+00
          2   -1    0    0  502    0  0.00000000000E+00  0.00000000000E+00  0.33783967967E+04  0.33783967967E+04  0.00000000000E+00 0. -1.
          1   -1    0    0  501    0 -0.00000000000E+00 -0.00000000000E+00 -0.33155977944E+03  0.33155977944E+03  0.00000000000E+00 0. -1.
         25    1    1    2    0    0 -0.45498225563E+03  0.18954569701E+03  0.76891059182E+02  0.51427002555E+03  0.12500000000E+03 0.  0.
          2    1    1    2  501    0  0.39732694215E+03 -0.16109399938E+03  0.29606354278E+03  0.52103128213E+03  0.00000000000E+00 0. -1.
          1    1    1    2  502    0  0.57655313479E+02 -0.28451697629E+02  0.26738824153E+04  0.26746552685E+04  0.00000000000E+00 0. -1.
<mgrwt>
<rscale>  0 0.17308314E+03</rscale>
<asrwt>0</asrwt>
<pdfrwt beam="1">  1        2 0.51975333E+00 0.64293345E+02</pdfrwt>
<pdfrwt beam="2">  1        1 0.51009199E-01 0.46595447E+03</pdfrwt>
<totfact> 0.16492297E+01</totfact>
</mgrwt>
</event>
<event>
 5    1  0.8459321E-003  0.1101509E+03  0.7546771E-02  0.1266866E+00
         -2   -1    0    0    0  501 -0.00000000000E+00  0.00000000000E+00  0.61921218170E+03  0.61921218170E+03  0.00000000000E+00 0.  1.
          2   -1    0    0  502    0  0.00000000000E+00 -0.00000000000E+00 -0.27465664947E+04  0.27465664947E+04  0.00000000000E+00 0. -1.
         25    1    1    2    0    0  0.11118934476E+03 -0.46753672741E+02 -0.13614898829E+03  0.22070460647E+03  0.12500000000E+03 0.  0.
          1    1    1    2  502    0 -0.27755763754E+02  0.10765570990E+03 -0.25623009517E+04  0.25647117385E+04  0.00000000000E+00 0. -1.
         -1    1    1    2    0  501 -0.83433581005E+02 -0.60902037157E+02  0.57109562701E+03  0.58036233145E+03  0.00000000000E+00 0.  1.
<mgrwt>
<rscale>  0 0.10666879E+03</rscale>
<asrwt>0</asrwt>
<pdfrwt beam="2">  1        2 0.42254869E+00 0.11015091E+03</pdfrwt>
<pdfrwt beam="1">  1       -2 0.95263412E-01 0.10329676E+03</pdfrwt>
<totfact> 0.33236715E+00</totfact>
</mgrwt>
</event>
<event>
 5    1  0.8459321E-003  0.4810546E+02  0.7546771E-02  0.1516056E+00
          1   -1    0    0  501    0 -0.00000000000E+00  0.00000000000E+00  0.79437251507E+03  0.79437251507E+03  0.00000000000E+00 0. -1.
          2   -1    0    0  502    0  0.00000000000E+00 -0.00000000000E+00 -0.28336497032E+02  0.28336497032E+02  0.00000000000E+00 0. -1.
         25    1    1    2    0    0 -0.26001201271E+02  0.51671252154E+02  0.33824649901E+03  0.36521456003E+03  0.12500000000E+03 0.  0.
          2    1    1    2  501    0  0.31285088739E+02 -0.40243408203E+01  0.40166037085E+03  0.40289701614E+03  0.00000000000E+00 0. -1.
          1    1    1    2  502    0 -0.52838874673E+01 -0.47646911333E+02  0.26129148174E+02  0.54597435935E+02  0.00000000000E+00 0. -1.
<mgrwt>
<rscale>  0 0.38953611E+02</rscale>
<asrwt>0</asrwt>
<pdfrwt beam="2">  1        2 0.43594617E-02 0.48105458E+02</pdfrwt>
<pdfrwt beam="1">  1        1 0.12221114E+00 0.31542861E+02</pdfrwt>
<totfact> 0.56302456E+03</totfact>
</mgrwt>
</event>
<event>
 5    1  0.8459321E-003  0.5150916E+02  0.7546771E-02  0.1549984E+00
          2   -1    0    0  502    0  0.00000000000E+00  0.00000000000E+00  0.95431205132E+03  0.95431205132E+03  0.00000000000E+00 0. -1.
         -2   -1    0    0    0  501 -0.00000000000E+00 -0.00000000000E+00 -0.14989523929E+03  0.14989523929E+03  0.00000000000E+00 0.  1.
         25    1    1    2    0    0 -0.65401929132E+02 -0.28275056988E+02  0.42458681567E+03  0.44830330717E+03  0.12500000000E+03 0.  0.
          1    1    1    2  502    0  0.41892538899E+02  0.26563629478E+02  0.51566175746E+03  0.51804214050E+03  0.00000000000E+00 0. -1.
         -1    1    1    2    0  501  0.23509390233E+02  0.17114275095E+01 -0.13583176111E+03  0.13786184294E+03  0.00000000000E+00 0.  1.
<mgrwt>
<rscale>  0 0.34844704E+02</rscale>
<asrwt>0</asrwt>
<pdfrwt beam="1">  1        2 0.14681723E+00 0.51509160E+02</pdfrwt>
<pdfrwt beam="2">  1       -2 0.23060807E-01 0.23571602E+02</pdfrwt>
<totfact> 0.45702748E+02</totfact>
</mgrwt>
</event>
<event>
 5    1  0.8459321E-003  0.3849486E+02  0.7546771E-02  0.1530929E+00
          2   -1    0    0  502    0  0.00000000000E+00  0.00000000000E+00  0.24745235436E+03  0.24745235436E+03  0.00000000000E+00 0. -1.
          1   -1    0    0  501    0 -0.00000000000E+00 -0.00000000000E+00 -0.61918686648E+03  0.61918686648E+03  0.00000000000E+00 0. -1.
         25    1    1    2    0    0 -0.49722056012E+02  0.11265446747E+02 -0.13007886077E+02  0.13562226309E+03  0.12500000000E+03 0.  0.
          2    1    1    2  501    0  0.20907446561E+02 -0.32347012621E+02 -0.54247070449E+03  0.54383629502E+03  0.00000000000E+00 0. -1.
          1    1    1    2  502    0  0.28814609451E+02  0.21081565874E+02  0.18374407845E+03  0.18718066274E+03  0.00000000000E+00 0. -1.
<mgrwt>
<rscale>  0 0.37072730E+02</rscale>
<asrwt>0</asrwt>
<pdfrwt beam="1">  1        2 0.38069593E-01 0.35703139E+02</pdfrwt>
<pdfrwt beam="2">  1        1 0.95259518E-01 0.38494859E+02</pdfrwt>
<totfact> 0.64173246E+02</totfact>
</mgrwt>
</event>
<event>
 5    1  0.8459321E-003  0.6663551E+02  0.7546771E-02  0.1421193E+00
         -1   -1    0    0    0  501 -0.00000000000E+00  0.00000000000E+00  0.87441751590E+02  0.87441751590E+02  0.00000000000E+00 0.  1.
          1   -1    0    0  502    0  0.00000000000E+00 -0.00000000000E+00 -0.13320067972E+04  0.13320067972E+04  0.00000000000E+00 0. -1.
         25    1    1    2    0    0 -0.89801049091E+02  0.62495998237E+02 -0.42929175834E+03  0.46031119038E+03  0.12500000000E+03 0.  0.
          2    1    1    2  502    0  0.40333953236E+02 -0.19990716280E+02 -0.87172048781E+03  0.87288204552E+03  0.00000000000E+00 0. -1.
         -2    1    1    2    0  501  0.49467095855E+02 -0.42505281957E+02  0.56447200491E+02  0.86255312937E+02  0.00000000000E+00 0.  1.
<mgrwt>
<rscale>  0 0.54769301E+02</rscale>
<asrwt>0</asrwt>
<pdfrwt beam="2">  1        1 0.20492411E+00 0.45016181E+02</pdfrwt>
<pdfrwt beam="1">  1       -1 0.13452578E-01 0.66635515E+02</pdfrwt>
<totfact> 0.38780723E+02</totfact>
</mgrwt>
</event>
<event>
 5    1  0.8459321E-003  0.4702056E+02  0.7546771E-02  0.1496800E+00
          1   -1    0    0  502    0  0.00000000000E+00  0.00000000000E+00  0.13269716184E+03  0.13269716184E+03  0.00000000000E+00 0. -1.
         -1   -1    0    0    0  501 -0.00000000000E+00 -0.00000000000E+00 -0.27210399875E+03  0.27210399875E+03  0.00000000000E+00 0.  1.
         25    1    1    2    0    0  0.27194248179E+02 -0.16229297843E+02  0.26241807395E+01  0.12897598058E+03  0.12500000000E+03 0.  0.
          2    1    1    2  502    0 -0.19358816794E+02 -0.31288726429E+02  0.58765795198E+02  0.69333735472E+02  0.00000000000E+00 0. -1.
         -2    1    1    2    0  501 -0.78354313849E+01  0.47518024272E+02 -0.20079681285E+03  0.20649144454E+03  0.00000000000E+00 0.  1.
<mgrwt>
<rscale>  0 0.41593778E+02</rscale>
<asrwt>0</asrwt>
<pdfrwt beam="1">  1        1 0.20414948E-01 0.36793317E+02</pdfrwt>
<pdfrwt beam="2">  1       -1 0.41862153E-01 0.47020561E+02</pdfrwt>
<totfact> 0.13160553E+03</totfact>
</mgrwt>
</event>
<event>
 5    1  0.8459321E-003  0.4391765E+02  0.7546771E-02  0.1488458E+00
          1   -1    0    0  502    0  0.00000000000E+00  0.00000000000E+00  0.64199152040E+03  0.64199152040E+03  0.00000000000E+00 0. -1.
         -1   -1    0    0    0  501 -0.00000000000E+00 -0.00000000000E+00 -0.29372134543E+02  0.29372134543E+02  0.00000000000E+00 0.  1.
         25    1    1    2    0    0 -0.51391665574E+01 -0.22801568890E+01  0.36508269585E+03  0.38593002599E+03  0.12500000000E+03 0.  0.
          2    1    1    2  502    0 -0.40812624374E+02 -0.87554928885E+01  0.23194301597E+03  0.23566902983E+03  0.00000000000E+00 0. -1.
         -2    1    1    2    0  501  0.45951790932E+02  0.11035649778E+02  0.15593674031E+02  0.49764599120E+02  0.00000000000E+00 0.  1.
<mgrwt>
<rscale>  0 0.42815603E+02</rscale>
<asrwt>0</asrwt>
<pdfrwt beam="1">  1        1 0.98767916E-01 0.41741214E+02</pdfrwt>
<pdfrwt beam="2">  1       -1 0.45187904E-02 0.43917647E+02</pdfrwt>
<totfact> 0.58534839E+03</totfact>
</mgrwt>
</event>
<event>
 5    1  0.8459321E-003  0.1191737E+03  0.7546771E-02  0.1304610E+00
          1   -1    0    0  501    0 -0.00000000000E+00  0.00000000000E+00  0.80988780095E+03  0.80988780095E+03  0.00000000000E+00 0. -1.
          2   -1    0    0  502    0  0.00000000000E+00 -0.00000000000E+00 -0.20424020153E+04  0.20424020153E+04  0.00000000000E+00 0. -1.
         25    1    1    2    0    0  0.12522799938E+02 -0.15861157443E+03 -0.65466375172E+02  0.21266240462E+03  0.12500000000E+03 0.  0.
          2    1    1    2  501    0  0.35999500285E+02  0.11258204660E+03  0.73095337329E+03  0.74044818533E+03  0.00000000000E+00 0. -1.
          1    1    1    2  502    0 -0.48522300223E+02  0.46029527833E+02 -0.18980012124E+04  0.18991792263E+04  0.00000000000E+00 0. -1.
<mgrwt>
<rscale>  0 0.89277715E+02</rscale>
<asrwt>0</asrwt>
<pdfrwt beam="2">  1        2 0.31421569E+00 0.66881470E+02</pdfrwt>
<pdfrwt beam="1">  1        1 0.12459812E+00 0.11917367E+03</pdfrwt>
<totfact> 0.26603543E+01</totfact>
</mgrwt>
</event>
<event>
 5    1  0.8459321E-003  0.5390235E+02  0.7546771E-02  0.1504526E+00
         -2   -1    0    0    0  501 -0.00000000000E+00  0.00000000000E+00  0.11868498475E+03  0.11868498475E+03  0.00000000000E+00 0.  1.
          2   -1    0    0  502    0  0.00000000000E+00 -0.00000000000E+00 -0.45694923909E+03  0.45694923909E+03  0.00000000000E+00 0. -1.
         25    1    1    2    0    0  0.33161370653E+02 -0.66260721336E+02 -0.61386495450E+01  0.14544016885E+03  0.12500000000E+03 0.  0.
          1    1    1    2  502    0 -0.56813868733E+01  0.53172155078E+02 -0.37434582003E+03  0.37814593639E+03  0.00000000000E+00 0. -1.
         -1    1    1    2    0  501 -0.27479983780E+02  0.13088566258E+02  0.42220215239E+02  0.52048118602E+02  0.00000000000E+00 0.  1.
<mgrwt>
<rscale>  0 0.40505178E+02</rscale>
<asrwt>0</asrwt>
<pdfrwt beam="2">  1        2 0.70299883E-01 0.53902353E+02</pdfrwt>
<pdfrwt beam="1">  1       -2 0.18259228E-01 0.30437807E+02</pdfrwt>
<totfact> 0.15603697E+03</totfact>
</mgrwt>
</event>
<event>
 5    1  0.8459321E-003  0.6979285E+02  0.7546771E-02  0.1458417E+00
          1   -1    0    0  501    0 -0.00000000000E+00  0.00000000000E+00  0.48776762381E+03  0.48776762381E+03  0.00000000000E+00 0. -1.
          2   -1    0    0  502    0  0.00000000000E+00 -0.00000000000E+00 -0.84039516793E+03  0.84039516793E+03  0.00000000000E+00 0. -1.
         25    1    1    2    0    0 -0.72734962121E+02  0.71158290650E+02 -0.24092052760E+03  0.28986475754E+03  0.12500000000E+03 0.  0.
          2    1    1    2  501    0  0.51999336565E+02 -0.46081901364E+02  0.46022550281E+03  0.46544063647E+03  0.00000000000E+00 0. -1.
          1    1    1    2  502    0  0.20735625556E+02 -0.25076389286E+02 -0.57193251933E+03  0.57285739773E+03  0.00000000000E+00 0. -1.
<mgrwt>
<rscale>  0 0.47654955E+02</rscale>
<asrwt>0</asrwt>
<pdfrwt beam="2">  1        2 0.12929156E+00 0.32539076E+02</pdfrwt>
<pdfrwt beam="1">  1        1 0.75041173E-01 0.69792847E+02</pdfrwt>
<totfact> 0.23883106E+02</totfact>
</mgrwt>
</event>
<event>
 5    1  0.8459321E-003  0.7379133E+02  0.7546771E-02  0.1396763E+00
          2   -1    0    0  502    0  0.00000000000E+00  0.00000000000E+00  0.41437591414E+04  0.41437591414E+04  0.00000000000E+00 0. -1.
          1   -1    0    0  501    0 -0.00000000000E+00 -0.00000000000E+00 -0.14386541571E+04  0.14386541571E+04  0.00000000000E+00 0. -1.
         25    1    1    2    0    0  0.10359794038E+03 -0.38457304424E+02  0.35384933296E+03  0.39121074621E+03  0.12500000000E+03 0.  0.
          2    1    1    2  501    0 -0.48274509426E+02 -0.95107054814E+01 -0.14191916553E+04  0.14200443079E+04  0.00000000000E+00 0. -1.
          3    1    1    2  502    0 -0.55323430958E+02  0.47968009906E+02  0.37704473067E+04  0.37711582444E+04  0.00000000000E+00 0. -1.
<mgrwt>
<rscale>  0 0.60255413E+02</rscale>
<asrwt>0</asrwt>
<pdfrwt beam="1">  1        2 0.63750140E+00 0.73791330E+02</pdfrwt>
<pdfrwt beam="2">  1        1 0.22133141E+00 0.49202457E+02</pdfrwt>
<totfact> 0.58013003E-01</totfact>
</mgrwt>
</event>
<event>
 5    1  0.8459321E-003  0.8799806E+02  0.7546771E-02  0.1318503E+00
          2   -1    0    0  502    0  0.00000000000E+00  0.00000000000E+00  0.44729411473E+03  0.44729411473E+03  0.00000000000E+00 0. -1.
          1   -1    0    0  501    0 -0.00000000000E+00 -0.00000000000E+00 -0.75756976310E+03  0.75756976310E+03  0.00000000000E+00 0. -1.
         25    1    1    2    0    0 -0.65803085645E+02  0.14796107284E+03  0.48162607314E+01  0.20462336505E+03  0.12500000000E+03 0.  0.
          2    1    1    2  501    0  0.50785291324E+02 -0.69513366473E+02 -0.65013420189E+03  0.65580922104E+03  0.00000000000E+00 0. -1.
          1    1    1    2  502    0  0.15017794321E+02 -0.78447706368E+02  0.33504229278E+03  0.34443129174E+03  0.00000000000E+00 0. -1.
<mgrwt>
<rscale>  0 0.83836767E+02</rscale>
<asrwt>0</asrwt>
<pdfrwt beam="1">  1        2 0.68814479E-01 0.79872253E+02</pdfrwt>
<pdfrwt beam="2">  1        1 0.11654920E+00 0.87998063E+02</pdfrwt>
<totfact> 0.25758114E+02</totfact>
</mgrwt>
</event>
<event>
 5    1  0.8459321E-003  0.7519115E+02  0.7546771E-02  0.1437910E+00
          2   -1    0    0  502    0  0.00000000000E+00  0.00000000000E+00  0.16574503627E+04  0.16574503627E+04  0.00000000000E+00 0. -1.
         -2   -1    0    0    0  501 -0.00000000000E+00 -0.00000000000E+00 -0.11504643044E+02  0.11504643044E+02  0.00000000000E+00 0.  1.
         25    1    1    2    0    0  0.14099902843E+00 -0.48111834930E+02  0.11079150347E+04  0.11159818514E+04  0.12500000000E+03 0.  0.
          1    1    1    2  502    0  0.13559871783E+02 -0.32421368739E+02  0.28312158981E+03  0.28529432152E+03  0.00000000000E+00 0. -1.
         -1    1    1    2    0  501 -0.13700870811E+02  0.80533203669E+02  0.25490909510E+03  0.26767883278E+03  0.00000000000E+00 0.  1.
<mgrwt>
<rscale>  0 0.51404536E+02</rscale>
<asrwt>0</asrwt>
<pdfrwt beam="1">  1        2 0.25499217E+00 0.35142784E+02</pdfrwt>
<pdfrwt beam="2">  1       -2 0.17699464E-02 0.75191149E+02</pdfrwt>
<totfact> 0.10660326E+04</totfact>
</mgrwt>
</event>
<event>
 5    1  0.8459321E-003  0.7725428E+02  0.7546771E-02  0.1430564E+00
         -2   -1    0    0    0  501 -0.00000000000E+00  0.00000000000E+00  0.11865923811E+03  0.11865923811E+03  0.00000000000E+00 0.  1.
          2   -1    0    0  502    0  0.00000000000E+00 -0.00000000000E+00 -0.12903626491E+04  0.12903626491E+04  0.00000000000E+00 0. -1.
         25    1    1    2    0    0 -0.90927166228E+02 -0.32879312280E+02 -0.45945393061E+02  0.16457453593E+03  0.12500000000E+03 0.  0.
          1    1    1    2  502    0  0.58866832680E+02  0.49582754794E+02 -0.11782226749E+04  0.11807338503E+04  0.00000000000E+00 0. -1.
         -1    1    1    2    0  501  0.32060333548E+02 -0.16703442514E+02  0.52464656959E+02  0.63713500993E+02  0.00000000000E+00 0.  1.
<mgrwt>
<rscale>  0 0.52846882E+02</rscale>
<asrwt>0</asrwt>
<pdfrwt beam="2">  1        2 0.19851732E+00 0.77254280E+02</pdfrwt>
<pdfrwt beam="1">  1       -2 0.18255268E-01 0.36150657E+02</pdfrwt>
<totfact> 0.43782791E+02</totfact>
</mgrwt>
</event>
<event>
 5    1  0.8459321E-003  0.6067942E+02  0.7546771E-02  0.1469336E+00
          1   -1    0    0  501    0 -0.00000000000E+00  0.00000000000E+00  0.53714269140E+03  0.53714269140E+03  0.00000000000E+00 0. -1.
          2   -1    0    0  502    0  0.00000000000E+00 -0.00000000000E+00 -0.96553560931E+03  0.96553560931E+03  0.00000000000E+00 0. -1.
         25    1    1    2    0    0  0.72608066925E+02 -0.18841754511E+02 -0.20941962279E+03  0.25516371511E+03  0.12500000000E+03 0.  0.
          2    1    1    2  501    0 -0.27408558478E+02 -0.21095945061E+02  0.51244633127E+03  0.51361221793E+03  0.00000000000E+00 0. -1.
          1    1    1    2  502    0 -0.45199508448E+02  0.39937699572E+02 -0.73141962639E+03  0.73390236767E+03  0.00000000000E+00 0. -1.
<mgrwt>
<rscale>  0 0.45811851E+02</rscale>
<asrwt>0</asrwt>
<pdfrwt beam="2">  1        2 0.14854394E+00 0.60679423E+02</pdfrwt>
<pdfrwt beam="1">  1        1 0.82637338E-01 0.34587107E+02</pdfrwt>
<totfact> 0.17599717E+02</totfact>
</mgrwt>
</event>
<event>
 5    1  0.8459321E-003  0.1566868E+03  0.7546771E-02  0.1283967E+00
          1   -1    0    0  501    0 -0.00000000000E+00  0.00000000000E+00  0.64672515369E+03  0.64672515369E+03  0.00000000000E+00 0. -1.
          2   -1    0    0  502    0  0.00000000000E+00 -0.00000000000E+00 -0.11668051699E+03  0.11668051699E+03  0.00000000000E+00 0. -1.
         25    1    1    2    0    0  0.20218006520E+03  0.37698808019E+02  0.19525156848E+03  0.30991313925E+03  0.12500000000E+03 0.  0.
          2    1    1    2  501    0 -0.14063786664E+03 -0.34261241279E+02  0.35914502747E+03  0.38721827558E+03  0.00000000000E+00 0. -1.
          3    1    1    2  502    0 -0.61542198559E+02 -0.34375667404E+01 -0.24351959250E+02  0.66274255846E+02  0.00000000000E+00 0. -1.
<mgrwt>
<rscale>  0 0.98274521E+02</rscale>
<asrwt>0</asrwt>
<pdfrwt beam="2">  1        2 0.17950849E-01 0.61638130E+02</pdfrwt>
<pdfrwt beam="1">  1        1 0.99496175E-01 0.15668680E+03</pdfrwt>
<totfact> 0.13027855E+03</totfact>
</mgrwt>
</event>
<event>
 5    1  0.8459321E-003  0.1602252E+03  0.7546771E-02  0.1347676E+00
          2   -1    0    0  502    0  0.00000000000E+00  0.00000000000E+00  0.22901937853E+04  0.22901937853E+04  0.00000000000E+00 0. -1.
          1   -1    0    0  501    0 -0.00000000000E+00 -0.00000000000E+00 -0.57701693229E+03  0.57701693229E+03  0.00000000000E+00 0. -1.
         25    1    1    2    0    0  0.79201061585E+02  0.13495890277E+03  0.78497420301E+01  0.20043286169E+03  0.12500000000E+03 0.  0.
          2    1    1    2  501    0 -0.29139520468E+02  0.17476264336E+02 -0.47717648307E+03  0.47838470655E+03  0.00000000000E+00 0. -1.
          1    1    1    2  502    0 -0.50061541117E+02 -0.15243516711E+03  0.21825035941E+04  0.21883931494E+04  0.00000000000E+00 0. -1.
<mgrwt>
<rscale>  0 0.73784800E+02</rscale>
<asrwt>0</asrwt>
<pdfrwt beam="1">  1        2 0.35233750E+00 0.16022523E+03</pdfrwt>
<pdfrwt beam="2">  1        1 0.88771837E-01 0.33978397E+02</pdfrwt>
<totfact> 0.30122566E+01</totfact>
</mgrwt>
</event>
<event>
 5    1  0.8459321E-003  0.6247649E+02  0.7546771E-02  0.1513000E+00
          1   -1    0    0  501    0 -0.00000000000E+00  0.00000000000E+00  0.40860272661E+03  0.40860272661E+03  0.00000000000E+00 0. -1.
          2   -1    0    0  502    0  0.00000000000E+00 -0.00000000000E+00 -0.69869018063E+03  0.69869018063E+03  0.00000000000E+00 0. -1.
         25    1    1    2    0    0  0.56195619148E+02  0.30801772661E+01 -0.10675014214E+03  0.17374702285E+03  0.12500000000E+03 0.  0.
          2    1    1    2  501    0 -0.58847792484E+02  0.21570086169E+02  0.37220772677E+03  0.37744790788E+03  0.00000000000E+00 0. -1.
          1    1    1    2  502    0  0.26521733363E+01 -0.24650263435E+02 -0.55554503865E+03  0.55609797651E+03  0.00000000000E+00 0. -1.
<mgrwt>
<rscale>  0 0.39356704E+02</rscale>
<asrwt>0</asrwt>
<pdfrwt beam="2">  1        2 0.10749080E+00 0.24792529E+02</pdfrwt>
<pdfrwt beam="1">  1        1 0.62861958E-01 0.62476486E+02</pdfrwt>
<totfact> 0.37115952E+02</totfact>
</mgrwt>
</event>
<event>
 5    1  0.8459321E-003  0.6720137E+02  0.7546771E-02  0.1426545E+00
          2   -1    0    0  502    0  0.00000000000E+00  0.00000000000E+00  0.72149185699E+03  0.72149185699E+03  0.00000000000E+00 0. -1.
         -2   -1    0    0    0  501 -0.00000000000E+00 -0.00000000000E+00 -0.47678831791E+03  0.47678831791E+03  0.00000000000E+00 0.  1.
         25    1    1    2    0    0  0.24599011961E+02 -0.84176878170E+02  0.47250531184E+03  0.49656533098E+03  0.12500000000E+03 0.  0.
          1    1    1    2  502    0  0.22593962005E+02  0.36405862467E+02  0.23256364255E+03  0.23647774055E+03  0.00000000000E+00 0. -1.
         -1    1    1    2    0  501 -0.47192973966E+02  0.47771015702E+02 -0.46036541531E+03  0.46523710337E+03  0.00000000000E+00 0.  1.
<mgrwt>
<rscale>  0 0.53659890E+02</rscale>
<asrwt>0</asrwt>
<pdfrwt beam="1">  1        2 0.11099875E+00 0.42847100E+02</pdfrwt>
<pdfrwt beam="2">  1       -2 0.73352049E-01 0.67201370E+02</pdfrwt>
<totfact> 0.76472961E+01</totfact>
</mgrwt>
</event>
<event>
 5    1  0.8459321E-003  0.9335634E+02  0.7546771E-02  0.1414696E+00
          1   -1    0    0  501    0 -0.00000000000E+00  0.00000000000E+00  0.27093608391E+03  0.27093608391E+03  0.00000000000E+00 0. -1.
          2   -1    0    0  502    0  0.00000000000E+00 -0.00000000000E+00 -0.19914381280E+03  0.19914381280E+03  0.00000000000E+00 0. -1.
         25    1    1    2    0    0 -0.61132341341E+02  0.62352050175E+02 -0.56518934898E+02  0.16261713108E+03  0.12500000000E+03 0.  0.
          2    1    1    2  501    0  0.37625621360E+02 -0.86615486878E+02  0.20387878290E+03  0.22468753430E+03  0.00000000000E+00 0. -1.
          1    1    1    2  502    0  0.23506719982E+02  0.24263436704E+02 -0.75567576891E+02  0.82775231333E+02  0.00000000000E+00 0. -1.
<mgrwt>
<rscale>  0 0.56159080E+02</rscale>
<asrwt>0</asrwt>
<pdfrwt beam="2">  1        2 0.30637510E-01 0.33782840E+02</pdfrwt>
<pdfrwt beam="1">  1        1 0.41682475E-01 0.93356339E+02</pdfrwt>
<totfact> 0.21985525E+03</totfact>
</mgrwt>
</event>
<event>
 5    1  0.8459321E-003  0.9351067E+02  0.7546771E-02  0.1352713E+00
          1   -1    0    0  501    0 -0.00000000000E+00  0.00000000000E+00  0.28476935414E+03  0.28476935414E+03  0.00000000000E+00 0. -1.
          2   -1    0    0  502    0  0.00000000000E+00 -0.00000000000E+00 -0.96202398256E+03  0.96202398256E+03  0.00000000000E+00 0. -1.
         25    1    1    2    0    0  0.38747698994E+02 -0.12805959004E+03  0.36016606507E+02  0.18660878523E+03  0.12500000000E+03 0.  0.
          2    1    1    2  501    0  0.25869001110E+00  0.88197066593E+02  0.16129926501E+03  0.18383754342E+03  0.00000000000E+00 0. -1.
          1    1    1    2  502    0 -0.39006389005E+02  0.39862523452E+02 -0.87457049994E+03  0.87634700805E+03  0.00000000000E+00 0. -1.
<mgrwt>
<rscale>  0 0.72216894E+02</rscale>
<asrwt>0</asrwt>
<pdfrwt beam="2">  1        2 0.14800369E+00 0.55772028E+02</pdfrwt>
<pdfrwt beam="1">  1        1 0.43810670E-01 0.93510670E+02</pdfrwt>
<totfact> 0.38215278E+02</totfact>
</mgrwt>
</event>
<event>
 5    1  0.8459321E-003  0.6366662E+02  0.7546771E-02  0.1469166E+00
          2   -1    0    0  502    0  0.00000000000E+00  0.00000000000E+00  0.27886910758E+03  0.27886910758E+03  0.00000000000E+00 0. -1.
          3   -1    0    0  501    0 -0.00000000000E+00 -0.00000000000E+00 -0.68574638773E+03  0.68574638773E+03  0.00000000000E+00 0. -1.
         25    1    1    2    0    0  0.14881613881E+02 -0.28091468471E+02 -0.10513131302E+03  0.16639767429E+03  0.12500000000E+03 0.  0.
          2    1    1    2  501    0  0.19077203636E+02 -0.26932406198E+02 -0.54526389679E+03  0.54626185236E+03  0.00000000000E+00 0. -1.
          1    1    1    2  502    0 -0.33958817516E+02  0.55023874668E+02  0.24351792967E+03  0.25195596865E+03  0.00000000000E+00 0. -1.
<mgrwt>
<rscale>  0 0.45839744E+02</rscale>
<asrwt>0</asrwt>
<pdfrwt beam="1">  1        2 0.42902940E-01 0.63666615E+02</pdfrwt>
<pdfrwt beam="2">  1        3 0.10549944E+00 0.33004457E+02</pdfrwt>
<totfact> 0.55576436E+01</totfact>
</mgrwt>
</event>
<event>
 5    1  0.8459321E-003  0.4497728E+02  0.7546771E-02  0.1550781E+00
         -1   -1    0    0    0  501 -0.00000000000E+00  0.00000000000E+00  0.31100347880E+03  0.31100347880E+03  0.00000000000E+00 0.  1.
          1   -1    0    0  502    0  0.00000000000E+00 -0.00000000000E+00 -0.90504329517E+03  0.90504329517E+03  0.00000000000E+00 0. -1.
         25    1    1    2    0    0 -0.59793158912E+01 -0.63623515231E+02  0.13155517519E+03  0.19239404364E+03  0.12500000000E+03 0.  0.
          2    1    1    2  502    0 -0.11671565202E+02  0.43381379261E+02 -0.87283148580E+03  0.87398682605E+03  0.00000000000E+00 0. -1.
         -2    1    1    2    0  501  0.17650881093E+02  0.20242135970E+02  0.14723649423E+03  0.14966590428E+03  0.00000000000E+00 0.  1.
<mgrwt>
<rscale>  0 0.34755635E+02</rscale>
<asrwt>0</asrwt>
<pdfrwt beam="2">  1        1 0.13923743E+00 0.44977280E+02</pdfrwt>
<pdfrwt beam="1">  1       -1 0.47846690E-01 0.26856986E+02</pdfrwt>
<totfact> 0.95166303E+01</totfact>
</mgrwt>
</event>
<event>
 5    1  0.8459321E-003  0.6839636E+02  0.7546771E-02  0.1468960E+00
          1   -1    0    0  501    0 -0.00000000000E+00  0.00000000000E+00  0.10396728925E+03  0.10396728925E+03  0.00000000000E+00 0. -1.
          2   -1    0    0  502    0  0.00000000000E+00 -0.00000000000E+00 -0.25307389287E+04  0.25307389287E+04  0.00000000000E+00 0. -1.
         25    1    1    2    0    0  0.23541688151E+02 -0.79640668742E+02 -0.48054637209E+03  0.50343486463E+03  0.12500000000E+03 0.  0.
          2    1    1    2  501    0  0.17348134193E+02  0.25410436441E+02  0.89383049974E+02  0.94530300236E+02  0.00000000000E+00 0. -1.
          1    1    1    2  502    0 -0.40889822343E+02  0.54230232302E+02 -0.20356083174E+04  0.20367410531E+04  0.00000000000E+00 0. -1.
<mgrwt>
<rscale>  0 0.45873685E+02</rscale>
<asrwt>0</asrwt>
<pdfrwt beam="2">  1        2 0.38934439E+00 0.68396360E+02</pdfrwt>
<pdfrwt beam="1">  1        1 0.15994970E-01 0.30767646E+02</pdfrwt>
<totfact> 0.19510096E+02</totfact>
</mgrwt>
</event>
<event>
 5    1  0.8459321E-003  0.6398624E+02  0.7546771E-02  0.1517127E+00
          2   -1    0    0  502    0  0.00000000000E+00  0.00000000000E+00  0.32006608237E+03  0.32006608237E+03  0.00000000000E+00 0. -1.
          1   -1    0    0  501    0 -0.00000000000E+00 -0.00000000000E+00 -0.71599819777E+03  0.71599819777E+03  0.00000000000E+00 0. -1.
         25    1    1    2    0    0 -0.36921032131E+02  0.64246045418E+02 -0.56965844468E+03  0.58790004300E+03  0.12500000000E+03 0.  0.
          2    1    1    2  501    0  0.14807511989E+02 -0.56163860187E+02 -0.13059736305E+03  0.14293114719E+03  0.00000000000E+00 0. -1.
          1    1    1    2  502    0  0.22113520142E+02 -0.80821852308E+01  0.30432369232E+03  0.30523308995E+03  0.00000000000E+00 0. -1.
<mgrwt>
<rscale>  0 0.38813722E+02</rscale>
<asrwt>0</asrwt>
<pdfrwt beam="1">  1        2 0.49240937E-01 0.23544203E+02</pdfrwt>
<pdfrwt beam="2">  1        1 0.11015357E+00 0.63986239E+02</pdfrwt>
<totfact> 0.39675991E+02</totfact>
</mgrwt>
</event>
<event>
 5    1  0.8459321E-003  0.1550565E+03  0.7546771E-02  0.1358028E+00
          2   -1    0    0  502    0  0.00000000000E+00  0.00000000000E+00  0.17947673253E+04  0.17947673253E+04  0.00000000000E+00 0. -1.
          1   -1    0    0  501    0 -0.00000000000E+00 -0.00000000000E+00 -0.11837133692E+04  0.11837133692E+04  0.00000000000E+00 0. -1.
         25    1    1    2    0    0 -0.50610137576E+02  0.11334257568E+03  0.64529713357E+03  0.66891054416E+03  0.12500000000E+03 0.  0.
          2    1    1    2  501    0  0.55159532940E+02 -0.14517441606E+03 -0.11665323434E+04  0.11768244956E+04  0.00000000000E+00 0. -1.
          1    1    1    2  502    0 -0.45493953640E+01  0.31831840377E+02  0.11322891660E+04  0.11327456548E+04  0.00000000000E+00 0. -1.
<mgrwt>
<rscale>  0 0.70610826E+02</rscale>
<asrwt>0</asrwt>
<pdfrwt beam="1">  1        2 0.27611805E+00 0.32155296E+02</pdfrwt>
<pdfrwt beam="2">  1        1 0.18210975E+00 0.15505654E+03</pdfrwt>
<totfact> 0.19872169E+01</totfact>
</mgrwt>
</event>
<event>
 5    1  0.8459321E-003  0.2134203E+03  0.7546771E-02  0.1300748E+00
          2   -1    0    0  502    0  0.00000000000E+00  0.00000000000E+00  0.19087561402E+04  0.19087561402E+04  0.00000000000E+00 0. -1.
          1   -1    0    0  501    0 -0.00000000000E+00 -0.00000000000E+00 -0.55442573440E+03  0.55442573440E+03  0.00000000000E+00 0. -1.
         25    1    1    2    0    0  0.17129126331E+03  0.82893859806E+02 -0.12369280453E+03  0.25910808319E+03  0.12500000000E+03 0.  0.
          2    1    1    2  501    0 -0.20998329883E+03 -0.82472591034E+02 -0.32774899139E+03  0.39788706365E+03  0.00000000000E+00 0. -1.
          1    1    1    2  502    0  0.38692035522E+02 -0.42126877156E+00  0.18057722017E+04  0.18061867278E+04  0.00000000000E+00 0. -1.
<mgrwt>
<rscale>  0 0.90874383E+02</rscale>
<asrwt>0</asrwt>
<pdfrwt beam="1">  1        2 0.29365479E+00 0.38694329E+02</pdfrwt>
<pdfrwt beam="2">  1        1 0.85296268E-01 0.21342026E+03</pdfrwt>
<totfact> 0.55207443E+01</totfact>
</mgrwt>
</event>
<event>
 5    1  0.8459321E-003  0.1670873E+03  0.7546771E-02  0.1233449E+00
          1   -1    0    0  501    0 -0.00000000000E+00  0.00000000000E+00  0.80568461734E+03  0.80568461734E+03  0.00000000000E+00 0. -1.
          2   -1    0    0  502    0  0.00000000000E+00 -0.00000000000E+00 -0.79836044690E+03  0.79836044690E+03  0.00000000000E+00 0. -1.
         25    1    1    2    0    0  0.55788655585E+02  0.93956085099E+02 -0.10116047876E+03  0.19441852402E+03  0.12500000000E+03 0.  0.
          2    1    1    2  501    0 -0.30561093014E+02  0.90034402244E+02  0.74270963115E+03  0.74877083957E+03  0.00000000000E+00 0. -1.
          1    1    1    2  502    0 -0.25227562570E+02 -0.18399048734E+03 -0.63422498194E+03  0.66085570064E+03  0.00000000000E+00 0. -1.
<mgrwt>
<rscale>  0 0.12604218E+03</rscale>
<asrwt>0</asrwt>
<pdfrwt beam="2">  1        2 0.12282468E+00 0.16708730E+03</pdfrwt>
<pdfrwt beam="1">  1        1 0.12395148E+00 0.95079830E+02</pdfrwt>
<totfact> 0.11924249E+02</totfact>
</mgrwt>
</event>
<event>
 5    1  0.8459321E-003  0.6372006E+02  0.7546771E-02  0.1396121E+00
          2   -1    0    0  502    0  0.00000000000E+00  0.00000000000E+00  0.86476392584E+03  0.86476392584E+03  0.00000000000E+00 0. -1.
          1   -1    0    0  501    0 -0.00000000000E+00 -0.00000000000E+00 -0.33975267531E+03  0.33975267531E+03  0.00000000000E+00 0. -1.
         25    1    1    2    0    0 -0.13120539379E+02  0.74065709942E+01  0.10198506364E+03  0.16202764904E+03  0.12500000000E+03 0.  0.
          2    1    1    2  501    0 -0.50091141680E+02 -0.27764246826E+02 -0.30556085079E+03  0.31088166464E+03  0.00000000000E+00 0. -1.
          1    1    1    2  502    0  0.63211681058E+02  0.20357675832E+02  0.72858703769E+03  0.73160728747E+03  0.00000000000E+00 0. -1.
<mgrwt>
<rscale>  0 0.60409570E+02</rscale>
<asrwt>0</asrwt>
<pdfrwt beam="1">  1        2 0.13304060E+00 0.63720058E+02</pdfrwt>
<pdfrwt beam="2">  1        1 0.52269643E-01 0.57271074E+02</pdfrwt>
<totfact> 0.35076581E+02</totfact>
</mgrwt>
</event>
<event>
 5    1  0.8459321E-003  0.5055537E+02  0.7546771E-02  0.1518548E+00
          1   -1    0    0  502    0  0.00000000000E+00  0.00000000000E+00  0.27224630007E+04  0.27224630007E+04  0.00000000000E+00 0. -1.
         -1   -1    0    0    0  501 -0.00000000000E+00 -0.00000000000E+00 -0.47684810301E+01  0.47684810301E+01  0.00000000000E+00 0.  1.
         25    1    1    2    0    0  0.17343865419E+02  0.21490898010E+02  0.15829625238E+04  0.15881303536E+04  0.12500000000E+03 0.  0.
          2    1    1    2  502    0  0.22928226767E+02  0.18588067522E+02  0.70651178493E+03  0.70712808040E+03  0.00000000000E+00 0. -1.
         -2    1    1    2    0  501 -0.40272092185E+02 -0.40078965532E+02  0.42822021094E+03  0.43197304771E+03  0.00000000000E+00 0.  1.
<mgrwt>
<rscale>  0 0.38629190E+02</rscale>
<asrwt>0</asrwt>
<pdfrwt beam="1">  1        1 0.41883922E+00 0.29516433E+02</pdfrwt>
<pdfrwt beam="2">  1       -1 0.73361464E-03 0.50555373E+02</pdfrwt>
<totfact> 0.35978366E+03</totfact>
</mgrwt>
</event>
<event>
 5    1  0.8459321E-003  0.9368410E+02  0.7546771E-02  0.1459315E+00
          1   -1    0    0  501    0 -0.00000000000E+00  0.00000000000E+00  0.33838246509E+02  0.33838246509E+02  0.00000000000E+00 0. -1.
          2   -1    0    0  502    0  0.00000000000E+00 -0.00000000000E+00 -0.20469187536E+04  0.20469187536E+04  0.00000000000E+00 0. -1.
         25    1    1    2    0    0  0.18286764961E+02  0.11424182958E+03 -0.97147688938E+03  0.98629506132E+03  0.12500000000E+03 0.  0.
          2    1    1    2  501    0 -0.17680020400E+02 -0.90166480082E+02 -0.54024134329E+02  0.10658885655E+03  0.00000000000E+00 0. -1.
          1    1    1    2  502    0 -0.60674456049E+00 -0.24075349502E+02 -0.98757948343E+03  0.98787308228E+03  0.00000000000E+00 0. -1.
<mgrwt>
<rscale>  0 0.47499406E+02</rscale>
<asrwt>0</asrwt>
<pdfrwt beam="2">  1        2 0.31491063E+00 0.24082994E+02</pdfrwt>
<pdfrwt beam="1">  1        1 0.52058831E-02 0.93684099E+02</pdfrwt>
<totfact> 0.18147567E+03</totfact>
</mgrwt>
</event>
<event>
 5    1  0.8459321E-003  0.6877514E+02  0.7546771E-02  0.1397490E+00
         -2   -1    0    0    0  501 -0.00000000000E+00  0.00000000000E+00  0.11375159489E+03  0.11375159489E+03  0.00000000000E+00 0.  1.
          2   -1    0    0  502    0  0.00000000000E+00 -0.00000000000E+00 -0.50528070256E+03  0.50528070256E+03  0.00000000000E+00 0. -1.
         25    1    1    2    0    0 -0.10961468660E+03 -0.39441651748E+02 -0.10365912176E+03  0.19985303834E+03  0.12500000000E+03 0.  0.
          1    1    1    2  502    0  0.64505307807E+02  0.12608555597E+02 -0.33935222714E+03  0.34565856633E+03  0.00000000000E+00 0. -1.
         -1    1    1    2    0  501  0.45109378794E+02  0.26833096152E+02  0.51482241228E+02  0.73520692775E+02  0.00000000000E+00 0.  1.
<mgrwt>
<rscale>  0 0.60081543E+02</rscale>
<asrwt>0</asrwt>
<pdfrwt beam="2">  1        2 0.77735493E-01 0.68775145E+02</pdfrwt>
<pdfrwt beam="1">  1       -2 0.17500245E-01 0.52486866E+02</pdfrwt>
<totfact> 0.15485016E+03</totfact>
</mgrwt>
</event>
<event>
 5    1  0.8459321E-003  0.7019266E+02  0.7546771E-02  0.1368079E+00
          1   -1    0    0  501    0 -0.00000000000E+00  0.00000000000E+00  0.14070119610E+03  0.14070119610E+03  0.00000000000E+00 0. -1.
          2   -1    0    0  502    0  0.00000000000E+00 -0.00000000000E+00 -0.11286019416E+04  0.11286019416E+04  0.00000000000E+00 0. -1.
         25    1    1    2    0    0 -0.44519113691E+02  0.49993051349E+02 -0.25348263088E+03  0.29044741490E+03  0.12500000000E+03 0.  0.
          2    1    1    2  501    0  0.70762804546E+02  0.98055912044E+01  0.11041063837E+03  0.13150678002E+03  0.00000000000E+00 0. -1.
          1    1    1    2  502    0 -0.26243690855E+02 -0.59798642553E+02 -0.84482875301E+03  0.84734894281E+03  0.00000000000E+00 0. -1.
<mgrwt>
<rscale>  0 0.67704208E+02</rscale>
<asrwt>0</asrwt>
<pdfrwt beam="2">  1        2 0.17363107E+00 0.65303974E+02</pdfrwt>
<pdfrwt beam="1">  1        1 0.21646338E-01 0.70192662E+02</pdfrwt>
<totfact> 0.72002590E+02</totfact>
</mgrwt>
</event>
<event>
 5    1  0.8459321E-003  0.2391974E+03  0.7546771E-02  0.1267994E+00
          1   -1    0    0  501    0 -0.00000000000E+00  0.00000000000E+00  0.37674756028E+03  0.37674756028E+03  0.00000000000E+00 0. -1.
          2   -1    0    0  502    0  0.00000000000E+00 -0.00000000000E+00 -0.17670053476E+04  0.17670053476E+04  0.00000000000E+00 0. -1.
         25    1    1    2    0    0  0.27296791145E+03 -0.70759029936E+02 -0.15412998920E+03  0.34481788609E+03  0.12500000000E+03 0.  0.
          2    1    1    2  501    0 -0.44498798017E+02  0.15283761161E+02  0.27025266856E+03  0.27431777420E+03  0.00000000000E+00 0. -1.
          1    1    1    2  502    0 -0.22846911343E+03  0.55475268774E+02 -0.15063804667E+04  0.15246172476E+04  0.00000000000E+00 0. -1.
<mgrwt>
<rscale>  0 0.10608639E+03</rscale>
<asrwt>0</asrwt>
<pdfrwt beam="2">  1        2 0.27184698E+00 0.23919738E+03</pdfrwt>
<pdfrwt beam="1">  1        1 0.57961162E-01 0.47050360E+02</pdfrwt>
<totfact> 0.90997661E+01</totfact>
</mgrwt>
</event>
<event>
 5    1  0.8459321E-003  0.1282654E+03  0.7546771E-02  0.1378270E+00
          1   -1    0    0  501    0 -0.00000000000E+00  0.00000000000E+00  0.11165557841E+04  0.11165557841E+04  0.00000000000E+00 0. -1.
          2   -1    0    0  502    0  0.00000000000E+00 -0.00000000000E+00 -0.11407529360E+04  0.11407529360E+04  0.00000000000E+00 0. -1.
         25    1    1    2    0    0 -0.19553478763E+02  0.15926961595E+03 -0.91874355213E+03  0.94099089458E+03  0.12500000000E+03 0.  0.
          2    1    1    2  501    0  0.20818442531E+02 -0.12643473754E+03  0.11004114798E+04  0.11078468194E+04  0.00000000000E+00 0. -1.
          1    1    1    2  502    0 -0.12649637685E+01 -0.32834878409E+02 -0.20586507961E+03  0.20847100608E+03  0.00000000000E+00 0. -1.
<mgrwt>
<rscale>  0 0.64920752E+02</rscale>
<asrwt>0</asrwt>
<pdfrwt beam="2">  1        2 0.17550045E+00 0.32859236E+02</pdfrwt>
<pdfrwt beam="1">  1        1 0.17177781E+00 0.12826543E+03</pdfrwt>
<totfact> 0.46752483E+01</totfact>
</mgrwt>
</event>
<event>
 5    1  0.8459321E-003  0.1051936E+03  0.7546771E-02  0.1322924E+00
          2   -1    0    0  502    0  0.00000000000E+00  0.00000000000E+00  0.26491511701E+03  0.26491511701E+03  0.00000000000E+00 0. -1.
          1   -1    0    0  501    0 -0.00000000000E+00 -0.00000000000E+00 -0.65016387727E+03  0.65016387727E+03  0.00000000000E+00 0. -1.
         25    1    1    2    0    0 -0.13657071726E+03 -0.87208221335E+01 -0.21175318236E+03  0.28141077412E+03  0.12500000000E+03 0.  0.
          2    1    1    2  501    0  0.40641544325E+02  0.49738555640E+02 -0.38898429418E+03  0.39425174719E+03  0.00000000000E+00 0. -1.
          1    1    1    2  502    0  0.95929172932E+02 -0.41017733506E+02  0.21548871628E+03  0.23941647296E+03  0.00000000000E+00 0. -1.
<mgrwt>
<rscale>  0 0.82199285E+02</rscale>
<asrwt>0</asrwt>
<pdfrwt beam="1">  1        2 0.40756172E-01 0.10519362E+03</pdfrwt>
<pdfrwt beam="2">  1        1 0.10002521E+00 0.64231293E+02</pdfrwt>
<totfact> 0.56020115E+02</totfact>
</mgrwt>
</event>
<event>
 5    1  0.8459321E-003  0.4901021E+02  0.7546771E-02  0.1524508E+00
         -2   -1    0    0    0  501  0.00000000000E+00  0.00000000000E+00  0.35892357403E+03  0.35892357403E+03  0.00000000000E+00 0.  1.
         -1   -1    0    0    0  502 -0.00000000000E+00 -0.00000000000E+00 -0.84715382980E+02  0.84715382980E+02  0.00000000000E+00 0.  1.
         25    1    1    2    0    0 -0.29736654585E+01 -0.44672438016E+02  0.43384880039E+02  0.13968434852E+03  0.12500000000E+03 0.  0.
         -2    1    1    2    0  502  0.29150654348E+02  0.25278492897E+01 -0.27952446539E+02  0.40465910820E+02  0.00000000000E+00 0.  1.
         -1    1    1    2    0  501 -0.26176988890E+02  0.42144588727E+02  0.25877575755E+03  0.26348869767E+03  0.00000000000E+00 0.  1.
<mgrwt>
<rscale>  0 0.37868736E+02</rscale>
<asrwt>0</asrwt>
<pdfrwt beam="1">  1       -2 0.55219011E-01 0.49010206E+02</pdfrwt>
<pdfrwt beam="2">  1       -1 0.13033136E-01 0.29260052E+02</pdfrwt>
<totfact> 0.82481238E+02</totfact>
</mgrwt>
</event>
<event>
 5    1  0.8459321E-003  0.1004224E+03  0.7546771E-02  0.1303153E+00
         -2   -1    0    0    0  501 -0.00000000000E+00  0.00000000000E+00  0.55749455156E+02  0.55749455156E+02  0.00000000000E+00 0.  1.
          2   -1    0    0  502    0  0.00000000000E+00 -0.00000000000E+00 -0.13706534473E+04  0.13706534473E+04  0.00000000000E+00 0. -1.
         25    1    1    2    0    0  0.10552569597E+02 -0.55350145290E+01 -0.47410979475E+03  0.49045600270E+03  0.12500000000E+03 0.  0.
          1    1    1    2  502    0 -0.10444823965E+03  0.41147738776E+02 -0.82699629984E+03  0.83458100333E+03  0.00000000000E+00 0. -1.
         -1    1    1    2    0  501  0.93895670054E+02 -0.35612724247E+02 -0.13797897572E+02  0.10136589644E+03  0.00000000000E+00 0.  1.
<mgrwt>
<rscale>  0 0.89875761E+02</rscale>
<asrwt>0</asrwt>
<pdfrwt beam="2">  1        2 0.21086975E+00 0.80436741E+02</pdfrwt>
<pdfrwt beam="1">  1       -2 0.85768396E-02 0.10042242E+03</pdfrwt>
<totfact> 0.13919227E+03</totfact>
</mgrwt>
</event>
<event>
 5    1  0.8459321E-003  0.9355593E+02  0.7546771E-02  0.1315271E+00
          1   -1    0    0  501    0 -0.00000000000E+00  0.00000000000E+00  0.17797805365E+03  0.17797805365E+03  0.00000000000E+00 0. -1.
          2   -1    0    0  502    0  0.00000000000E+00 -0.00000000000E+00 -0.13541436567E+04  0.13541436567E+04  0.00000000000E+00 0. -1.
         25    1    1    2    0    0  0.49543722102E+02  0.17682707000E+02 -0.23914913403E+03  0.27492647533E+03  0.12500000000E+03 0.  0.
          2    1    1    2  501    0 -0.29692684572E+02 -0.92430479702E+02  0.14386116318E+03  0.17355426634E+03  0.00000000000E+00 0. -1.
          1    1    1    2  502    0 -0.19851037530E+02  0.74747772702E+02 -0.10808776322E+04  0.10836409687E+04  0.00000000000E+00 0. -1.
<mgrwt>
<rscale>  0 0.85061776E+02</rscale>
<asrwt>0</asrwt>
<pdfrwt beam="2">  1        2 0.20832980E+00 0.77338821E+02</pdfrwt>
<pdfrwt beam="1">  1        1 0.27381238E-01 0.93555934E+02</pdfrwt>
<totfact> 0.40733520E+02</totfact>
</mgrwt>
</event>
<event>
 5    1  0.8459321E-003  0.8185213E+02  0.7546771E-02  0.1352449E+00
          2   -1    0    0  502    0  0.00000000000E+00  0.00000000000E+00  0.86168410084E+03  0.86168410084E+03  0.00000000000E+00 0. -1.
          1   -1    0    0  501    0 -0.00000000000E+00 -0.00000000000E+00 -0.19116452503E+03  0.19116452503E+03  0.00000000000E+00 0. -1.
         25    1    1    2    0    0  0.12821671006E+03 -0.16471066594E+02 -0.50641360598E+02  0.18681640232E+03  0.12500000000E+03 0.  0.
          2    1    1    2  501    0 -0.69835894590E+02 -0.94055478315E+01 -0.53667930777E+02  0.88576313409E+02  0.00000000000E+00 0. -1.
          1    1    1    2  502    0 -0.58380815467E+02  0.25876614425E+02  0.77482886719E+03  0.77745591014E+03  0.00000000000E+00 0. -1.
<mgrwt>
<rscale>  0 0.72297726E+02</rscale>
<asrwt>0</asrwt>
<pdfrwt beam="1">  1        2 0.13256678E+00 0.63858584E+02</pdfrwt>
<pdfrwt beam="2">  1        1 0.29409927E-01 0.81852132E+02</pdfrwt>
<totfact> 0.70891886E+02</totfact>
</mgrwt>
</event>
<event>
 5    1  0.8459321E-003  0.5248471E+02  0.7546771E-02  0.1438407E+00
          1   -1    0    0  502    0  0.00000000000E+00  0.00000000000E+00  0.39317596596E+03  0.39317596596E+03  0.00000000000E+00 0. -1.
         -1   -1    0    0    0  501 -0.00000000000E+00 -0.00000000000E+00 -0.38257965498E+02  0.38257965498E+02  0.00000000000E+00 0.  1.
         25    1    1    2    0    0  0.35910919815E+02 -0.42770518130E+02  0.17947630319E+03  0.22573359252E+03  0.12500000000E+03 0.  0.
          2    1    1    2  502    0 -0.54199000035E+02 -0.64249139297E+01  0.97455105835E+02  0.11169739826E+03  0.00000000000E+00 0. -1.
         -2    1    1    2    0  501  0.18288080221E+02  0.49195432060E+02  0.77986591431E+02  0.94002940682E+02  0.00000000000E+00 0.  1.
<mgrwt>
<rscale>  0 0.51308936E+02</rscale>
<asrwt>0</asrwt>
<pdfrwt beam="1">  1        1 0.60488608E-01 0.50159505E+02</pdfrwt>
<pdfrwt beam="2">  1       -1 0.58858411E-02 0.52484706E+02</pdfrwt>
<totfact> 0.75255937E+03</totfact>
</mgrwt>
</event>
<event>
 5    1  0.8459321E-003  0.4825818E+02  0.7546771E-02  0.1541214E+00
          1   -1    0    0  501    0 -0.00000000000E+00  0.00000000000E+00  0.98891822489E+03  0.98891822489E+03  0.00000000000E+00 0. -1.
          2   -1    0    0  502    0  0.00000000000E+00 -0.00000000000E+00 -0.49255027223E+03  0.49255027223E+03  0.00000000000E+00 0. -1.
         25    1    1    2    0    0 -0.40255287031E+02  0.59747179077E+02  0.12772640673E+02  0.14483906204E+03  0.12500000000E+03 0.  0.
          2    1    1    2  501    0  0.34100134509E+02 -0.33842159603E+02  0.90906189687E+03  0.91033051321E+03  0.00000000000E+00 0. -1.
          3    1    1    2  502    0  0.61551525212E+01 -0.25905019474E+02 -0.42546658488E+03  0.42629892187E+03  0.00000000000E+00 0. -1.
<mgrwt>
<rscale>  0 0.35845964E+02</rscale>
<asrwt>0</asrwt>
<pdfrwt beam="2">  1        2 0.75776966E-01 0.26626226E+02</pdfrwt>
<pdfrwt beam="1">  1        1 0.15214126E+00 0.48258176E+02</pdfrwt>
<totfact> 0.16231502E+02</totfact>
</mgrwt>
</event>
<event>
 5    1  0.9006960E-003  0.9160439E+02  0.7546771E-02  0.1372041E+00
          2   -1    0    0  502    0  0.00000000000E+00  0.00000000000E+00  0.19569919393E+04  0.19569919393E+04  0.00000000000E+00 0. -1.
         -2   -1    0    0    0  501 -0.00000000000E+00 -0.00000000000E+00 -0.37420852634E+03  0.37420852634E+03  0.00000000000E+00 0.  1.
         25    1    1    2    0    0  0.28527094560E+02 -0.32945812662E+02 -0.10778158252E+03  0.17070761912E+03  0.12500000000E+03 0.  0.
          1    1    1    2  502    0 -0.58613993814E+02  0.70890253342E+02  0.19219221545E+04  0.19241220846E+04  0.00000000000E+00 0. -1.
         -1    1    1    2    0  501  0.30086899254E+02 -0.37944440680E+02 -0.23135715902E+03  0.23637076197E+03  0.00000000000E+00 0.  1.
<mgrwt>
<rscale>  0 0.66603025E+02</rscale>
<asrwt>0</asrwt>
<pdfrwt beam="1">  1        2 0.30107568E+00 0.91604390E+02</pdfrwt>
<pdfrwt beam="2">  1       -2 0.57570543E-01 0.48425222E+02</pdfrwt>
<totfact> 0.25802238E+01</totfact>
</mgrwt>
</event>
<event>
 5    1  0.8459321E-003  0.7894635E+02  0.7546771E-02  0.1366168E+00
          2   -1    0    0  502    0  0.00000000000E+00  0.00000000000E+00  0.88298430910E+02  0.88298430910E+02  0.00000000000E+00 0. -1.
          1   -1    0    0  501    0 -0.00000000000E+00 -0.00000000000E+00 -0.13092328415E+04  0.13092328415E+04  0.00000000000E+00 0. -1.
         25    1    1    2    0    0  0.69966992748E+02 -0.10093607144E+03 -0.34659735972E+03  0.38837893913E+03  0.12500000000E+03 0.  0.
          2    1    1    2  501    0 -0.17363953546E+02  0.74233051592E+02 -0.92696605093E+03  0.93009575443E+03  0.00000000000E+00 0. -1.
          1    1    1    2  502    0 -0.52603039202E+02  0.26703019850E+02  0.52629000099E+02  0.79056578814E+02  0.00000000000E+00 0. -1.
<mgrwt>
<rscale>  0 0.68244072E+02</rscale>
<asrwt>0</asrwt>
<pdfrwt beam="1">  1        2 0.13584377E-01 0.58992635E+02</pdfrwt>
<pdfrwt beam="2">  1        1 0.20142040E+00 0.78946353E+02</pdfrwt>
<totfact> 0.58984293E+02</totfact>
</mgrwt>
</event>
<event>
 5    1  0.8459321E-003  0.8347320E+02  0.7546771E-02  0.1333466E+00
          2   -1    0    0  502    0  0.00000000000E+00  0.00000000000E+00  0.25147250038E+04  0.25147250038E+04  0.00000000000E+00 0. -1.
          1   -1    0    0  501    0 -0.00000000000E+00 -0.00000000000E+00 -0.52613596636E+02  0.52613596636E+02  0.00000000000E+00 0. -1.
         25    1    1    2    0    0  0.94706712466E+02 -0.11242992598E+03  0.59208120554E+03  0.62273188741E+03  0.12500000000E+03 0.  0.
          2    1    1    2  501    0 -0.65521686748E+02  0.44693447673E+02  0.64582594328E+01  0.79575780323E+02  0.00000000000E+00 0. -1.
          1    1    1    2  502    0 -0.29185025718E+02  0.67736478305E+02  0.18635719422E+04  0.18650309327E+04  0.00000000000E+00 0. -1.
<mgrwt>
<rscale>  0 0.78464493E+02</rscale>
<asrwt>0</asrwt>
<pdfrwt beam="1">  1        2 0.38688068E+00 0.73756330E+02</pdfrwt>
<pdfrwt beam="2">  1        1 0.80944014E-02 0.83473197E+02</pdfrwt>
<totfact> 0.50189453E+02</totfact>
</mgrwt>
</event>
<event>
 5    1  0.8459321E-003  0.1271045E+03  0.7546771E-02  0.1340109E+00
          1   -1    0    0  501    0 -0.00000000000E+00  0.00000000000E+00  0.12039419857E+04  0.12039419857E+04  0.00000000000E+00 0. -1.
          2   -1    0    0  502    0  0.00000000000E+00 -0.00000000000E+00 -0.15649469208E+04  0.15649469208E+04  0.00000000000E+00 0. -1.
         25    1    1    2    0    0 -0.10696776234E+03  0.24999673501E+02 -0.31371420419E+03  0.35511785053E+03  0.12500000000E+03 0.  0.
          2    1    1    2  501    0  0.10592257886E+03 -0.70704229892E+02  0.11793863778E+04  0.11862423484E+04  0.00000000000E+00 0. -1.
          1    1    1    2  502    0  0.10451834816E+01  0.45704556391E+02 -0.12266771088E+04  0.12275287076E+04  0.00000000000E+00 0. -1.
<mgrwt>
<rscale>  0 0.76228443E+02</rscale>
<asrwt>0</asrwt>
<pdfrwt beam="2">  1        2 0.24076107E+00 0.45716506E+02</pdfrwt>
<pdfrwt beam="1">  1        1 0.18522184E+00 0.12710454E+03</pdfrwt>
<totfact> 0.24305503E+01</totfact>
</mgrwt>
</event>
<event>
 5    1  0.8459321E-003  0.3356116E+02  0.7546771E-02  0.1608584E+00
          2   -1    0    0  502    0  0.00000000000E+00  0.00000000000E+00  0.41023221315E+03  0.41023221315E+03  0.00000000000E+00 0. -1.
         -2   -1    0    0    0  501 -0.00000000000E+00 -0.00000000000E+00 -0.48036290437E+02  0.48036290437E+02  0.00000000000E+00 0.  1.
         25    1    1    2    0    0 -0.17675108206E+02 -0.36410148663E+01  0.10670128405E+03  0.16533550876E+03  0.12500000000E+03 0.  0.
          3    1    1    2  502    0 -0.47229580568E+01 -0.24735663138E+02  0.25554395661E+03  0.25678176167E+03  0.00000000000E+00 0. -1.
         -1    1    1    2    0  501  0.22398066263E+02  0.28376678004E+02 -0.49317946041E-01  0.36151233162E+02  0.00000000000E+00 0.  1.
<mgrwt>
<rscale>  0 0.29071544E+02</rscale>
<asrwt>0</asrwt>
<pdfrwt beam="1">  1        2 0.63112646E-01 0.25182521E+02</pdfrwt>
<pdfrwt beam="2">  1       -2 0.73901988E-02 0.33561163E+02</pdfrwt>
<totfact> 0.70346962E+03</totfact>
</mgrwt>
</event>
<event>
 5    1  0.8459321E-003  0.1633353E+03  0.7546771E-02  0.1241866E+00
          1   -1    0    0  501    0 -0.00000000000E+00  0.00000000000E+00  0.65180552456E+03  0.65180552456E+03  0.00000000000E+00 0. -1.
          2   -1    0    0  502    0  0.00000000000E+00 -0.00000000000E+00 -0.11369896486E+04  0.11369896486E+04  0.00000000000E+00 0. -1.
         25    1    1    2    0    0  0.10516339480E+03 -0.10564626795E+03 -0.16624374855E+03  0.25589540338E+03  0.12500000000E+03 0.  0.
          2    1    1    2  501    0 -0.66856257197E+02 -0.59150140339E+02  0.59589845567E+03  0.60254748170E+03  0.00000000000E+00 0. -1.
          1    1    1    2  502    0 -0.38307137599E+02  0.16479640829E+03 -0.91483883115E+03  0.93035228810E+03  0.00000000000E+00 0. -1.
<mgrwt>
<rscale>  0 0.12074916E+03</rscale>
<asrwt>0</asrwt>
<pdfrwt beam="2">  1        2 0.17492148E+00 0.16333527E+03</pdfrwt>
<pdfrwt beam="1">  1        1 0.10027777E+00 0.89266445E+02</pdfrwt>
<totfact> 0.10014220E+02</totfact>
</mgrwt>
</event>
<event>
 5    1  0.8459321E-003  0.5724727E+02  0.7546771E-02  0.1418502E+00
          1   -1    0    0  501    0 -0.00000000000E+00  0.00000000000E+00  0.35895556189E+03  0.35895556189E+03  0.00000000000E+00 0. -1.
          2   -1    0    0  502    0  0.00000000000E+00 -0.00000000000E+00 -0.17774775738E+03  0.17774775738E+03  0.00000000000E+00 0. -1.
         25    1    1    2    0    0  0.10688378829E+02 -0.69922319174E+01  0.28715373566E+02  0.12889028446E+03  0.12500000000E+03 0.  0.
          2    1    1    2  501    0  0.28285457866E+02  0.49771305357E+02  0.27044030720E+03  0.27643301127E+03  0.00000000000E+00 0. -1.
          1    1    1    2  502    0 -0.38973836695E+02 -0.42779073440E+02 -0.11794787626E+03  0.13138002354E+03  0.00000000000E+00 0. -1.
<mgrwt>
<rscale>  0 0.55339034E+02</rscale>
<asrwt>0</asrwt>
<pdfrwt beam="2">  1        2 0.27345809E-01 0.53494405E+02</pdfrwt>
<pdfrwt beam="1">  1        1 0.55223933E-01 0.57247270E+02</pdfrwt>
<totfact> 0.17862152E+03</totfact>
</mgrwt>
</event>
<event>
 5    1  0.8459321E-003  0.1543546E+03  0.7546771E-02  0.1242403E+00
          1   -1    0    0  502    0  0.00000000000E+00  0.00000000000E+00  0.37399038683E+03  0.37399038683E+03  0.00000000000E+00 0. -1.
         -1   -1    0    0    0  501 -0.00000000000E+00 -0.00000000000E+00 -0.96174262156E+03  0.96174262156E+03  0.00000000000E+00 0.  1.
         25    1    1    2    0    0 -0.12304719604E+03 -0.30481331340E+02  0.17046644116E+03  0.24648231494E+03  0.12500000000E+03 0.  0.
          2    1    1    2  502    0  0.17681202202E+03  0.10752401755E+03  0.97241091416E+02  0.22864762264E+03  0.00000000000E+00 0. -1.
         -2    1    1    2    0  501 -0.53764825980E+02 -0.77042686206E+02 -0.85545976730E+03  0.86060307081E+03  0.00000000000E+00 0.  1.
<mgrwt>
<rscale>  0 0.12042140E+03</rscale>
<asrwt>0</asrwt>
<pdfrwt beam="1">  1        1 0.57536982E-01 0.15435464E+03</pdfrwt>
<pdfrwt beam="2">  1       -1 0.14796040E+00 0.93948028E+02</pdfrwt>
<totfact> 0.28255901E+01</totfact>
</mgrwt>
</event>
<event>
 5    1  0.8459321E-003  0.2476239E+02  0.7546771E-02  0.1678256E+00
          2   -1    0    0  502    0  0.00000000000E+00  0.00000000000E+00  0.16908756737E+04  0.16908756737E+04  0.00000000000E+00 0. -1.
          1   -1    0    0  501    0 -0.00000000000E+00 -0.00000000000E+00 -0.19833650114E+03  0.19833650114E+03  0.00000000000E+00 0. -1.
         25    1    1    2    0    0  0.34376726049E+02 -0.92170797259E+01  0.38278263783E+02  0.13548778296E+03  0.12500000000E+03 0.  0.
          2    1    1    2  501    0 -0.11910286679E+02  0.19618205952E+02 -0.14875614194E+03  0.15051617420E+03  0.00000000000E+00 0. -1.
          1    1    1    2  502    0 -0.22466439371E+02 -0.10401126226E+02  0.16030170507E+04  0.16032082176E+04  0.00000000000E+00 0. -1.
<mgrwt>
<rscale>  0 0.23839274E+02</rscale>
<asrwt>0</asrwt>
<pdfrwt beam="1">  1        2 0.26013471E+00 0.24762385E+02</pdfrwt>
<pdfrwt beam="2">  1        1 0.30513309E-01 0.22950576E+02</pdfrwt>
<totfact> 0.26048330E+02</totfact>
</mgrwt>
</event>
<event>
 5    1  0.8459321E-003  0.1017143E+03  0.7546771E-02  0.1348825E+00
          1   -1    0    0  501    0 -0.00000000000E+00  0.00000000000E+00  0.73501886731E+03  0.73501886731E+03  0.00000000000E+00 0. -1.
          2   -1    0    0  502    0  0.00000000000E+00 -0.00000000000E+00 -0.22907637918E+03  0.22907637918E+03  0.00000000000E+00 0. -1.
         25    1    1    2    0    0  0.12294484110E+03 -0.55891004119E+02  0.55937695405E+03  0.58886909837E+03  0.12500000000E+03 0.  0.
          2    1    1    2  501    0 -0.50816601987E+02 -0.15059357898E+02  0.14396356113E+03  0.15340996784E+03  0.00000000000E+00 0. -1.
          1    1    1    2  502    0 -0.72128239115E+02  0.70950362017E+02 -0.19739802706E+03  0.22181618028E+03  0.00000000000E+00 0. -1.
<mgrwt>
<rscale>  0 0.73423195E+02</rscale>
<asrwt>0</asrwt>
<pdfrwt beam="2">  1        2 0.35242520E-01 0.10171432E+03</pdfrwt>
<pdfrwt beam="1">  1        1 0.11307983E+00 0.53001050E+02</pdfrwt>
<totfact> 0.55605552E+02</totfact>
</mgrwt>
</event>
<event>
 5    1  0.8459321E-003  0.2211566E+02  0.7546771E-02  0.1711877E+00
          1   -1    0    0  501    0 -0.00000000000E+00  0.00000000000E+00  0.25689097619E+03  0.25689097619E+03  0.00000000000E+00 0. -1.
          2   -1    0    0  502    0  0.00000000000E+00 -0.00000000000E+00 -0.10657640641E+04  0.10657640641E+04  0.00000000000E+00 0. -1.
         25    1    1    2    0    0  0.33618771248E+02 -0.25194021484E+02 -0.16878629054E+03  0.21419330609E+03  0.12500000000E+03 0.  0.
          2    1    1    2  501    0 -0.13235910699E+02  0.16908272007E+02  0.23355645438E+03  0.23454145982E+03  0.00000000000E+00 0. -1.
          1    1    1    2  502    0 -0.20382860549E+02  0.82857494774E+01 -0.87364325176E+03  0.87392027439E+03  0.00000000000E+00 0. -1.
<mgrwt>
<rscale>  0 0.21791836E+02</rscale>
<asrwt>0</asrwt>
<pdfrwt beam="2">  1        2 0.16396370E+00 0.22115664E+02</pdfrwt>
<pdfrwt beam="1">  1        1 0.39521688E-01 0.21472750E+02</pdfrwt>
<totfact> 0.39176587E+02</totfact>
</mgrwt>
</event>
<event>
 5    1  0.8459321E-003  0.1141558E+03  0.7546771E-02  0.1303092E+00
          1   -1    0    0  501    0 -0.00000000000E+00  0.00000000000E+00  0.84434664815E+02  0.84434664815E+02  0.00000000000E+00 0. -1.
          2   -1    0    0  502    0  0.00000000000E+00 -0.00000000000E+00 -0.93914983707E+03  0.93914983707E+03  0.00000000000E+00 0. -1.
         25    1    1    2    0    0 -0.32786488476E+02 -0.42549310679E+02 -0.68763378194E+02  0.15244277565E+03  0.12500000000E+03 0.  0.
          2    1    1    2  501    0 -0.64230300069E+02 -0.29782624706E+02  0.50099828468E+01  0.70976306677E+02  0.00000000000E+00 0. -1.
          1    1    1    2  502    0  0.97016788545E+02  0.72331935385E+02 -0.79096177691E+03  0.80016541957E+03  0.00000000000E+00 0. -1.
<mgrwt>
<rscale>  0 0.89900747E+02</rscale>
<asrwt>0</asrwt>
<pdfrwt beam="2">  1        2 0.14448461E+00 0.11415576E+03</pdfrwt>
<pdfrwt beam="1">  1        1 0.12989947E-01 0.70799267E+02</pdfrwt>
<totfact> 0.17101521E+03</totfact>
</mgrwt>
</event>
<event>
 5    1  0.8459321E-003  0.8931651E+02  0.7546771E-02  0.1322529E+00
         -1   -1    0    0    0  501 -0.00000000000E+00  0.00000000000E+00  0.25506304815E+03  0.25506304815E+03  0.00000000000E+00 0.  1.
          1   -1    0    0  502    0  0.00000000000E+00 -0.00000000000E+00 -0.50673357038E+03  0.50673357038E+03  0.00000000000E+00 0. -1.
         25    1    1    2    0    0  0.13141037315E+03  0.85229429511E+02 -0.25878886232E+02  0.20205805745E+03  0.12500000000E+03 0.  0.
          2    1    1    2  502    0 -0.54930675217E+02 -0.52399604193E+02 -0.37838405187E+03  0.38592432977E+03  0.00000000000E+00 0. -1.
         -2    1    1    2    0  501 -0.76479697936E+02 -0.32829825318E+02  0.15259241587E+03  0.17381423132E+03  0.00000000000E+00 0.  1.
<mgrwt>
<rscale>  0 0.82343604E+02</rscale>
<asrwt>0</asrwt>
<pdfrwt beam="2">  1        1 0.77959010E-01 0.75915068E+02</pdfrwt>
<pdfrwt beam="1">  1       -1 0.39240469E-01 0.89316512E+02</pdfrwt>
<totfact> 0.29390755E+02</totfact>
</mgrwt>
</event>
<event>
 5    1  0.8459321E-003  0.7544397E+02  0.7546771E-02  0.1425823E+00
          2   -1    0    0  502    0  0.00000000000E+00  0.00000000000E+00  0.72808993329E+03  0.72808993329E+03  0.00000000000E+00 0. -1.
          1   -1    0    0  501    0 -0.00000000000E+00 -0.00000000000E+00 -0.31852719584E+03  0.31852719584E+03  0.00000000000E+00 0. -1.
         25    1    1    2    0    0 -0.10701479285E+02 -0.54280042885E+02  0.48006438692E+03  0.49914693258E+03  0.12500000000E+03 0.  0.
          2    1    1    2  501    0  0.48918453140E+02  0.57772896128E+02 -0.30275083189E+03  0.31207176866E+03  0.00000000000E+00 0. -1.
          1    1    1    2  502    0 -0.38216973854E+02 -0.34928532434E+01  0.23224918243E+03  0.23539842789E+03  0.00000000000E+00 0. -1.
<mgrwt>
<rscale>  0 0.53807594E+02</rscale>
<asrwt>0</asrwt>
<pdfrwt beam="1">  1        2 0.11201384E+00 0.38376257E+02</pdfrwt>
<pdfrwt beam="2">  1        1 0.49004184E-01 0.75443969E+02</pdfrwt>
<totfact> 0.47352489E+02</totfact>
</mgrwt>
</event>
<event>
 5    1  0.8459321E-003  0.2979929E+02  0.7546771E-02  0.1635010E+00
          1   -1    0    0  501    0 -0.00000000000E+00  0.00000000000E+00  0.17898404877E+04  0.17898404877E+04  0.00000000000E+00 0. -1.
          2   -1    0    0  502    0  0.00000000000E+00 -0.00000000000E+00 -0.19233411564E+04  0.19233411564E+04  0.00000000000E+00 0. -1.
         25    1    1    2    0    0  0.75149294037E+00  0.50578969865E+02 -0.70892799247E+02  0.15234692619E+03  0.12500000000E+03 0.  0.
          2    1    1    2  501    0  0.91224836947E+01 -0.22520849753E+02  0.17489069384E+04  0.17490757238E+04  0.00000000000E+00 0. -1.
          1    1    1    2  502    0 -0.98739766351E+01 -0.28058120112E+02 -0.18115148079E+04  0.18117589941E+04  0.00000000000E+00 0. -1.
<mgrwt>
<rscale>  0 0.26908599E+02</rscale>
<asrwt>0</asrwt>
<pdfrwt beam="2">  1        2 0.29589864E+00 0.29799289E+02</pdfrwt>
<pdfrwt beam="1">  1        1 0.27536008E+00 0.24298321E+02</pdfrwt>
<totfact> 0.87011729E+00</totfact>
</mgrwt>
</event>
<event>
 5    1  0.8459321E-003  0.1139000E+03  0.7546771E-02  0.1263827E+00
          1   -1    0    0  501    0 -0.00000000000E+00  0.00000000000E+00  0.15043735694E+04  0.15043735694E+04  0.00000000000E+00 0. -1.
          2   -1    0    0  502    0  0.00000000000E+00 -0.00000000000E+00 -0.11574793147E+03  0.11574793147E+03  0.00000000000E+00 0. -1.
         25    1    1    2    0    0 -0.10888193944E+01 -0.28133598154E+02  0.16681598753E+03  0.21034556941E+03  0.12500000000E+03 0.  0.
          2    1    1    2  501    0  0.65310759344E+02  0.10853091616E+03  0.12835439096E+04  0.12897788271E+04  0.00000000000E+00 0. -1.
          1    1    1    2  502    0 -0.64221939949E+02 -0.80397318001E+02 -0.61734259132E+02  0.11999710440E+03  0.00000000000E+00 0. -1.
<mgrwt>
<rscale>  0 0.10825981E+03</rscale>
<asrwt>0</asrwt>
<pdfrwt beam="2">  1        2 0.17807375E-01 0.10289891E+03</pdfrwt>
<pdfrwt beam="1">  1        1 0.23144207E+00 0.11390001E+03</pdfrwt>
<totfact> 0.32151555E+02</totfact>
</mgrwt>
</event>
<event>
 5    1  0.8459321E-003  0.2146655E+03  0.7546771E-02  0.1310408E+00
         -2   -1    0    0    0  501 -0.00000000000E+00  0.00000000000E+00  0.48821154307E+02  0.48821154307E+02  0.00000000000E+00 0.  1.
          2   -1    0    0  502    0  0.00000000000E+00 -0.00000000000E+00 -0.16078791322E+04  0.16078791322E+04  0.00000000000E+00 0. -1.
         25    1    1    2    0    0 -0.19128933778E+03 -0.14391831568E+03 -0.51393881413E+03  0.58057057884E+03  0.12500000000E+03 0.  0.
          1    1    1    2  502    0  0.15748612800E+03  0.13403049303E+03 -0.98481970369E+03  0.10062981180E+04  0.00000000000E+00 0. -1.
         -1    1    1    2    0  501  0.33803209776E+02  0.98878226535E+01 -0.60299460103E+02  0.69831589676E+02  0.00000000000E+00 0.  1.
<mgrwt>
<rscale>  0 0.86950859E+02</rscale>
<asrwt>0</asrwt>
<pdfrwt beam="2">  1        2 0.24736606E+00 0.21466553E+03</pdfrwt>
<pdfrwt beam="1">  1       -2 0.75109457E-02 0.35219682E+02</pdfrwt>
<totfact> 0.10805644E+03</totfact>
</mgrwt>
</event>
<event>
 5    1  0.8459321E-003  0.7310990E+02  0.7546771E-02  0.1364484E+00
         -1   -1    0    0    0  501 -0.00000000000E+00  0.00000000000E+00  0.57730779723E+02  0.57730779723E+02  0.00000000000E+00 0.  1.
          1   -1    0    0  502    0  0.00000000000E+00 -0.00000000000E+00 -0.21990913163E+04  0.21990913163E+04  0.00000000000E+00 0. -1.
         25    1    1    2    0    0  0.58322331219E+02 -0.13656722077E+02 -0.17785288952E+04  0.17839220923E+04  0.12500000000E+03 0.  0.
          2    1    1    2  502    0 -0.49001040518E+01  0.64416552988E+02 -0.38928112316E+03  0.39460524093E+03  0.00000000000E+00 0. -1.
         -2    1    1    2    0  501 -0.53422227167E+02 -0.50759830911E+02  0.26449481798E+02  0.78294762769E+02  0.00000000000E+00 0.  1.
<mgrwt>
<rscale>  0 0.68724767E+02</rscale>
<asrwt>0</asrwt>
<pdfrwt beam="2">  1        1 0.33832171E+00 0.64602657E+02</pdfrwt>
<pdfrwt beam="1">  1       -1 0.88816593E-02 0.73109897E+02</pdfrwt>
<totfact> 0.20320760E+02</totfact>
</mgrwt>
</event>
<event>
 5    1  0.8459321E-003  0.1056534E+03  0.7546771E-02  0.1364268E+00
          2   -1    0    0  502    0  0.00000000000E+00  0.00000000000E+00  0.40919690997E+03  0.40919690997E+03  0.00000000000E+00 0. -1.
         -2   -1    0    0    0  501 -0.00000000000E+00 -0.00000000000E+00 -0.88631560064E+03  0.88631560064E+03  0.00000000000E+00 0.  1.
         25    1    1    2    0    0 -0.95927964669E+01  0.10369272380E+03 -0.54663424007E+02  0.17163126940E+03  0.12500000000E+03 0.  0.
          1    1    1    2  502    0  0.44659788937E+02 -0.33382321606E+01  0.34560734811E+03  0.34849688608E+03  0.00000000000E+00 0. -1.
         -1    1    1    2    0  501 -0.35066992470E+02 -0.10035449163E+03 -0.76806261478E+03  0.77538435513E+03  0.00000000000E+00 0.  1.
<mgrwt>
<rscale>  0 0.68786777E+02</rscale>
<asrwt>0</asrwt>
<pdfrwt beam="1">  1        2 0.62953372E-01 0.44784378E+02</pdfrwt>
<pdfrwt beam="2">  1       -2 0.13635624E+00 0.10565337E+03</pdfrwt>
<totfact> 0.33536615E+01</totfact>
</mgrwt>
</event>
<event>
 5    1  0.8459321E-003  0.2543455E+02  0.7546771E-02  0.1690937E+00
         -2   -1    0    0    0  501 -0.00000000000E+00  0.00000000000E+00  0.13752555188E+04  0.13752555188E+04  0.00000000000E+00 0.  1.
          2   -1    0    0  502    0  0.00000000000E+00 -0.00000000000E+00 -0.13678461931E+04  0.13678461931E+04  0.00000000000E+00 0. -1.
         25    1    1    2    0    0 -0.45519356096E+02 -0.57184969310E+01  0.10935816740E+03  0.17230473517E+03  0.12500000000E+03 0.  0.
          1    1    1    2  502    0  0.25416910858E+02  0.13842544655E+00 -0.13361638884E+04  0.13364056178E+04  0.00000000000E+00 0. -1.
         -1    1    1    2    0  501  0.20102445238E+02  0.55800714845E+01  0.12342150468E+04  0.12343913590E+04  0.00000000000E+00 0.  1.
<mgrwt>
<rscale>  0 0.23035392E+02</rscale>
<asrwt>0</asrwt>
<pdfrwt beam="2">  1        2 0.21043788E+00 0.25434552E+02</pdfrwt>
<pdfrwt beam="1">  1       -2 0.21157777E+00 0.20862538E+02</pdfrwt>
<totfact> 0.28747448E+00</totfact>
</mgrwt>
</event>
<event>
 5    1  0.8459321E-003  0.9284665E+02  0.7546771E-02  0.1399675E+00
         -2   -1    0    0    0  501 -0.00000000000E+00  0.00000000000E+00  0.18864486609E+03  0.18864486609E+03  0.00000000000E+00 0.  1.
          2   -1    0    0  502    0  0.00000000000E+00 -0.00000000000E+00 -0.19200583670E+04  0.19200583670E+04  0.00000000000E+00 0. -1.
         25    1    1    2    0    0  0.99860597811E+02  0.30614132579E+01 -0.22466390918E+03  0.27582672701E+03  0.12500000000E+03 0.  0.
          1    1    1    2  502    0 -0.86844155612E+02  0.32864127929E+02 -0.16662640558E+04  0.16688492628E+04  0.00000000000E+00 0. -1.
         -1    1    1    2    0  501 -0.13016442199E+02 -0.35925541187E+02  0.15951446410E+03  0.16402724326E+03  0.00000000000E+00 0.  1.
<mgrwt>
<rscale>  0 0.59563021E+02</rscale>
<asrwt>0</asrwt>
<pdfrwt beam="2">  1        2 0.29539360E+00 0.92846655E+02</pdfrwt>
<pdfrwt beam="1">  1       -2 0.29022286E-01 0.38210892E+02</pdfrwt>
<totfact> 0.95431836E+01</totfact>
</mgrwt>
</event>
<event>
 5    1  0.8459321E-003  0.6762571E+02  0.7546771E-02  0.1504717E+00
          2   -1    0    0  502    0  0.00000000000E+00  0.00000000000E+00  0.37345197694E+04  0.37345197694E+04  0.00000000000E+00 0. -1.
         -2   -1    0    0    0  501 -0.00000000000E+00 -0.00000000000E+00 -0.78994274647E+02  0.78994274647E+02  0.00000000000E+00 0.  1.
         25    1    1    2    0    0  0.24258745983E+02  0.42466968959E+02  0.59563719894E+03  0.61057399467E+03  0.12500000000E+03 0.  0.
          1    1    1    2  502    0 -0.47401079067E+02 -0.49643451497E+02  0.31289749872E+04  0.31297277525E+04  0.00000000000E+00 0. -1.
         -1    1    1    2    0  501  0.23142333083E+02  0.71764825379E+01 -0.69086691377E+02  0.73212296833E+02  0.00000000000E+00 0.  1.
<mgrwt>
<rscale>  0 0.40478863E+02</rscale>
<asrwt>0</asrwt>
<pdfrwt beam="1">  1        2 0.57454137E+00 0.67625713E+02</pdfrwt>
<pdfrwt beam="2">  1       -2 0.12152968E-01 0.24229517E+02</pdfrwt>
<totfact> 0.38204455E+01</totfact>
</mgrwt>
</event>
<event>
 5    1  0.8459321E-003  0.5346869E+02  0.7546771E-02  0.1460062E+00
         -2   -1    0    0    0  501  0.00000000000E+00  0.00000000000E+00  0.32137318451E+03  0.32137318451E+03  0.00000000000E+00 0.  1.
         -1   -1    0    0    0  502 -0.00000000000E+00 -0.00000000000E+00 -0.11856362499E+03  0.11856362499E+03  0.00000000000E+00 0.  1.
         25    1    1    2    0    0 -0.21573383778E+02 -0.23436627433E+02  0.99453334452E+02  0.16288232601E+03  0.12500000000E+03 0.  0.
         -2    1    1    2    0  502  0.24170304928E+02 -0.34309286496E+02 -0.76981952814E+02  0.87678685204E+02  0.00000000000E+00 0.  1.
         -1    1    1    2    0  501 -0.25969211501E+01  0.57745913929E+02  0.18033817788E+03  0.18937579829E+03  0.00000000000E+00 0.  1.
<mgrwt>
<rscale>  0 0.47370720E+02</rscale>
<asrwt>0</asrwt>
<pdfrwt beam="1">  1       -2 0.49442028E-01 0.53468686E+02</pdfrwt>
<pdfrwt beam="2">  1       -1 0.18240558E-01 0.41968212E+02</pdfrwt>
<totfact> 0.63215287E+02</totfact>
</mgrwt>
</event>
<event>
 5    1  0.8459321E-003  0.8719376E+02  0.7546771E-02  0.1331053E+00
         -2   -1    0    0    0  501 -0.00000000000E+00  0.00000000000E+00  0.15968216842E+03  0.15968216842E+03  0.00000000000E+00 0.  1.
          2   -1    0    0  502    0  0.00000000000E+00 -0.00000000000E+00 -0.20526399131E+04  0.20526399131E+04  0.00000000000E+00 0. -1.
         25    1    1    2    0    0 -0.73051652705E+02  0.28635056328E+02 -0.50436835105E+03  0.52551778653E+03  0.12500000000E+03 0.  0.
          3    1    1    2  502    0 -0.36676219004E+01 -0.72025491296E+02 -0.15237439136E+04  0.15254496507E+04  0.00000000000E+00 0. -1.
         -1    1    1    2    0  501  0.76719274606E+02  0.43390434967E+02  0.13515451996E+03  0.16135464421E+03  0.00000000000E+00 0.  1.
<mgrwt>
<rscale>  0 0.79298867E+02</rscale>
<asrwt>0</asrwt>
<pdfrwt beam="2">  1        2 0.31579074E+00 0.72118811E+02</pdfrwt>
<pdfrwt beam="1">  1       -2 0.24566489E-01 0.87193760E+02</pdfrwt>
<totfact> 0.11557991E+02</totfact>
</mgrwt>
</event>
<event>
 5    1  0.8459321E-003  0.7861081E+02  0.7546771E-02  0.1479656E+00
          1   -1    0    0  501    0 -0.00000000000E+00  0.00000000000E+00  0.89965565679E+03  0.89965565679E+03  0.00000000000E+00 0. -1.
          2   -1    0    0  502    0  0.00000000000E+00 -0.00000000000E+00 -0.28645368758E+04  0.28645368758E+04  0.00000000000E+00 0. -1.
         25    1    1    2    0    0  0.89494230440E+02  0.37265875093E+02 -0.37594023619E+03  0.40786520312E+03  0.12500000000E+03 0.  0.
          2    1    1    2  501    0 -0.24219035692E+02  0.53686821184E+01  0.88290433128E+03  0.88325276259E+03  0.00000000000E+00 0. -1.
          1    1    1    2  502    0 -0.65275194748E+02 -0.42634557211E+02 -0.24718453141E+04  0.24730745669E+04  0.00000000000E+00 0. -1.
<mgrwt>
<rscale>  0 0.44159867E+02</rscale>
<asrwt>0</asrwt>
<pdfrwt beam="2">  1        2 0.44069798E+00 0.78610807E+02</pdfrwt>
<pdfrwt beam="1">  1        1 0.13840856E+00 0.24806943E+02</pdfrwt>
<totfact> 0.90913175E+00</totfact>
</mgrwt>
</event>
<event>
 5    1  0.8459321E-003  0.6691509E+02  0.7546771E-02  0.1511608E+00
          1   -1    0    0  502    0  0.00000000000E+00  0.00000000000E+00  0.73902013090E+03  0.73902013090E+03  0.00000000000E+00 0. -1.
         -1   -1    0    0    0  501 -0.00000000000E+00 -0.00000000000E+00 -0.19951755399E+03  0.19951755399E+03  0.00000000000E+00 0.  1.
         25    1    1    2    0    0 -0.53166815426E+01 -0.73149558570E+02  0.19804859858E+03  0.24541265742E+03  0.12500000000E+03 0.  0.
          2    1    1    2  502    0  0.25591190020E+02  0.61533128330E+02  0.51435394233E+03  0.51865326845E+03  0.00000000000E+00 0. -1.
         -2    1    1    2    0  501 -0.20274508478E+02  0.11616430240E+02 -0.17289996400E+03  0.17447175902E+03  0.00000000000E+00 0.  1.
<mgrwt>
<rscale>  0 0.39542089E+02</rscale>
<asrwt>0</asrwt>
<pdfrwt beam="1">  1        1 0.11369540E+00 0.66915085E+02</pdfrwt>
<pdfrwt beam="2">  1       -1 0.30695009E-01 0.23366582E+02</pdfrwt>
<totfact> 0.26058199E+02</totfact>
</mgrwt>
</event>
<event>
 5    1  0.8459321E-003  0.1326478E+03  0.7546771E-02  0.1320964E+00
          2   -1    0    0  502    0  0.00000000000E+00  0.00000000000E+00  0.71051895837E+03  0.71051895837E+03  0.00000000000E+00 0. -1.
          1   -1    0    0  501    0 -0.00000000000E+00 -0.00000000000E+00 -0.53031235623E+02  0.53031235623E+02  0.00000000000E+00 0. -1.
         25    1    1    2    0    0 -0.10692365741E+03  0.31961545636E+02  0.30687171958E+03  0.34964190423E+03  0.12500000000E+03 0.  0.
          2    1    1    2  501    0 -0.22139552665E+02  0.46868111837E+02  0.31201508832E+02  0.60500527706E+02  0.00000000000E+00 0. -1.
          1    1    1    2  502    0  0.12906321008E+03 -0.78829657473E+02  0.31941449433E+03  0.35340776206E+03  0.00000000000E+00 0. -1.
<mgrwt>
<rscale>  0 0.82919764E+02</rscale>
<asrwt>0</asrwt>
<pdfrwt beam="1">  1        2 0.10931060E+00 0.13264781E+03</pdfrwt>
<pdfrwt beam="2">  1        1 0.81586521E-02 0.51834156E+02</pdfrwt>
<totfact> 0.42973094E+03</totfact>
</mgrwt>
</event>
<event>
 5    1  0.8459321E-003  0.4571577E+02  0.7546771E-02  0.1496868E+00
          1   -1    0    0  501    0 -0.00000000000E+00  0.00000000000E+00  0.71829852902E+02  0.71829852902E+02  0.00000000000E+00 0. -1.
          2   -1    0    0  502    0  0.00000000000E+00 -0.00000000000E+00 -0.15064829620E+04  0.15064829620E+04  0.00000000000E+00 0. -1.
         25    1    1    2    0    0  0.51805504513E+02 -0.10093440188E+02 -0.15218338018E+03  0.20388837396E+03  0.12500000000E+03 0.  0.
          2    1    1    2  501    0 -0.25806529663E+02 -0.27655197169E+02  0.37731906888E+02  0.53427368465E+02  0.00000000000E+00 0. -1.
          1    1    1    2  502    0 -0.25998974850E+02  0.37748637357E+02 -0.13202016358E+04  0.13209970724E+04  0.00000000000E+00 0. -1.
<mgrwt>
<rscale>  0 0.41584049E+02</rscale>
<asrwt>0</asrwt>
<pdfrwt beam="2">  1        2 0.23176661E+00 0.45715774E+02</pdfrwt>
<pdfrwt beam="1">  1        1 0.11050747E-01 0.37825744E+02</pdfrwt>
<totfact> 0.10587726E+03</totfact>
</mgrwt>
</event>
<event>
 5    1  0.8459321E-003  0.7519495E+02  0.7546771E-02  0.1400465E+00
          1   -1    0    0  502    0  0.00000000000E+00  0.00000000000E+00  0.62388553536E+03  0.62388553536E+03  0.00000000000E+00 0. -1.
         -1   -1    0    0    0  501 -0.00000000000E+00 -0.00000000000E+00 -0.76022727438E+03  0.76022727438E+03  0.00000000000E+00 0.  1.
         25    1    1    2    0    0  0.55072247076E+02  0.26297658940E+02 -0.22539330993E+03  0.26486159296E+03  0.12500000000E+03 0.  0.
          2    1    1    2  502    0  0.22548008600E+02 -0.41108915628E+02  0.60020110798E+03  0.60202967174E+03  0.00000000000E+00 0. -1.
         -2    1    1    2    0  501 -0.77620255676E+02  0.14811256689E+02 -0.51114953707E+03  0.51722154505E+03  0.00000000000E+00 0.  1.
<mgrwt>
<rscale>  0 0.59377078E+02</rscale>
<asrwt>0</asrwt>
<pdfrwt beam="1">  1        1 0.95982389E-01 0.46886625E+02</pdfrwt>
<pdfrwt beam="2">  1       -1 0.11695804E+00 0.75194948E+02</pdfrwt>
<totfact> 0.26960262E+01</totfact>
</mgrwt>
</event>
<event>
 5    1  0.8459321E-003  0.1647703E+03  0.7546771E-02  0.1183430E+00
          1   -1    0    0  501    0 -0.00000000000E+00  0.00000000000E+00  0.18910584354E+03  0.18910584354E+03  0.00000000000E+00 0. -1.
          2   -1    0    0  502    0  0.00000000000E+00 -0.00000000000E+00 -0.56602096257E+03  0.56602096257E+03  0.00000000000E+00 0. -1.
         25    1    1    2    0    0  0.85410458629E+02  0.11139289840E+03 -0.13632847454E+03  0.23219340479E+03  0.12500000000E+03 0.  0.
          2    1    1    2  501    0 -0.19672431549E+03  0.10052755825E+02  0.36728258771E+02  0.20037584485E+03  0.00000000000E+00 0. -1.
          1    1    1    2  502    0  0.11131385687E+03 -0.12144565423E+03 -0.27731490326E+03  0.32255755646E+03  0.00000000000E+00 0. -1.
<mgrwt>
<rscale>  0 0.16475600E+03</rscale>
<asrwt>0</asrwt>
<pdfrwt beam="2">  1        2 0.87080148E-01 0.16474168E+03</pdfrwt>
<pdfrwt beam="1">  1        1 0.29093207E-01 0.16477033E+03</pdfrwt>
<totfact> 0.11583531E+03</totfact>
</mgrwt>
</event>
<event>
 5    1  0.8459321E-003  0.7446776E+02  0.7546771E-02  0.1398813E+00
          1   -1    0    0  501    0 -0.00000000000E+00  0.00000000000E+00  0.51232665428E+03  0.51232665428E+03  0.00000000000E+00 0. -1.
          2   -1    0    0  502    0  0.00000000000E+00 -0.00000000000E+00 -0.81121459570E+03  0.81121459570E+03  0.00000000000E+00 0. -1.
         25    1    1    2    0    0 -0.33873890348E+02 -0.65514608658E+02 -0.17579833674E+03  0.22796854957E+03  0.12500000000E+03 0.  0.
          2    1    1    2  501    0  0.47091793440E+02 -0.91270658605E+01  0.48269059993E+03  0.48506819686E+03  0.00000000000E+00 0. -1.
          1    1    1    2  502    0 -0.13217903092E+02  0.74641674519E+02 -0.60578020462E+03  0.61050450354E+03  0.00000000000E+00 0. -1.
<mgrwt>
<rscale>  0 0.59766865E+02</rscale>
<asrwt>0</asrwt>
<pdfrwt beam="2">  1        2 0.12480225E+00 0.74467757E+02</pdfrwt>
<pdfrwt beam="1">  1        1 0.78819485E-01 0.47968118E+02</pdfrwt>
<totfact> 0.22847474E+02</totfact>
</mgrwt>
</event>
<event>
 5    1  0.8459321E-003  0.4699274E+02  0.7546771E-02  0.1531818E+00
          2   -1    0    0  502    0  0.00000000000E+00  0.00000000000E+00  0.66695464378E+03  0.66695464378E+03  0.00000000000E+00 0. -1.
         -2   -1    0    0    0  501 -0.00000000000E+00 -0.00000000000E+00 -0.25915465536E+03  0.25915465536E+03  0.00000000000E+00 0.  1.
         25    1    1    2    0    0  0.21032350827E+02  0.21209709410E+02 -0.90265755262E+02  0.15705132323E+03  0.12500000000E+03 0.  0.
          1    1    1    2  502    0  0.27492398252E+02 -0.94649091906E+01  0.62861537414E+03  0.62928745822E+03  0.00000000000E+00 0. -1.
         -1    1    1    2    0  501 -0.48524749079E+02 -0.11744800219E+02 -0.13054963045E+03  0.13977051770E+03  0.00000000000E+00 0.  1.
<mgrwt>
<rscale>  0 0.36964347E+02</rscale>
<asrwt>0</asrwt>
<pdfrwt beam="1">  1        2 0.10260841E+00 0.29076046E+02</pdfrwt>
<pdfrwt beam="2">  1       -2 0.39869947E-01 0.46992736E+02</pdfrwt>
<totfact> 0.28124196E+02</totfact>
</mgrwt>
</event>
<event>
 5    1  0.8459321E-003  0.8327267E+02  0.7546771E-02  0.1382110E+00
          2   -1    0    0  502    0  0.00000000000E+00  0.00000000000E+00  0.11353693248E+04  0.11353693248E+04  0.00000000000E+00 0. -1.
          1   -1    0    0  501    0 -0.00000000000E+00 -0.00000000000E+00 -0.56468352843E+03  0.56468352843E+03  0.00000000000E+00 0. -1.
         25    1    1    2    0    0 -0.35128903345E+02  0.67568148096E+01  0.14487463885E+03  0.19466215703E+03  0.12500000000E+03 0.  0.
          2    1    1    2  501    0  0.84104405259E+02 -0.39983749662E+01 -0.53587738033E+03  0.54245193772E+03  0.00000000000E+00 0. -1.
          1    1    1    2  502    0 -0.48975501915E+02 -0.27584398433E+01  0.96168853788E+03  0.96293875853E+03  0.00000000000E+00 0. -1.
<mgrwt>
<rscale>  0 0.63912320E+02</rscale>
<asrwt>0</asrwt>
<pdfrwt beam="1">  1        2 0.17467220E+00 0.49053122E+02</pdfrwt>
<pdfrwt beam="2">  1        1 0.86874389E-01 0.83272674E+02</pdfrwt>
<totfact> 0.13105341E+02</totfact>
</mgrwt>
</event>
<event>
 5    1  0.8459321E-003  0.1403622E+03  0.7546771E-02  0.1268571E+00
          1   -1    0    0  501    0 -0.00000000000E+00  0.00000000000E+00  0.66901634427E+02  0.66901634427E+02  0.00000000000E+00 0. -1.
          2   -1    0    0  502    0  0.00000000000E+00 -0.00000000000E+00 -0.15618780830E+04  0.15618780830E+04  0.00000000000E+00 0. -1.
         25    1    1    2    0    0  0.78382735828E+02  0.53267853591E+02 -0.55946680514E+03  0.58104167110E+03  0.12500000000E+03 0.  0.
          2    1    1    2  501    0  0.72804246962E+02  0.32510939512E+02  0.15284239871E+02  0.81185143666E+02  0.00000000000E+00 0. -1.
          1    1    1    2  502    0 -0.15118698279E+03 -0.85778793104E+02 -0.95079388327E+03  0.96655290263E+03  0.00000000000E+00 0. -1.
<mgrwt>
<rscale>  0 0.10579017E+03</rscale>
<asrwt>0</asrwt>
<pdfrwt beam="2">  1        2 0.24028894E+00 0.14036221E+03</pdfrwt>
<pdfrwt beam="1">  1        1 0.10292559E-01 0.79733428E+02</pdfrwt>
<totfact> 0.10421450E+03</totfact>
</mgrwt>
</event>
<event>
 5    1  0.8459321E-003  0.7623119E+02  0.7546771E-02  0.1397741E+00
          2   -1    0    0  502    0  0.00000000000E+00  0.00000000000E+00  0.25800970498E+03  0.25800970498E+03  0.00000000000E+00 0. -1.
          1   -1    0    0  501    0 -0.00000000000E+00 -0.00000000000E+00 -0.18544433329E+03  0.18544433329E+03  0.00000000000E+00 0. -1.
         25    1    1    2    0    0  0.61871153232E+02 -0.71669580491E+01  0.60619507499E+02  0.15224693619E+03  0.12500000000E+03 0.  0.
          2    1    1    2  501    0  0.10410608498E+02  0.46097805252E+02 -0.12382896898E+03  0.13254056729E+03  0.00000000000E+00 0. -1.
          1    1    1    2  502    0 -0.72281761730E+02 -0.38930847203E+02  0.13577483317E+03  0.15866653480E+03  0.00000000000E+00 0. -1.
<mgrwt>
<rscale>  0 0.60021580E+02</rscale>
<asrwt>0</asrwt>
<pdfrwt beam="1">  1        2 0.39693801E-01 0.76231193E+02</pdfrwt>
<pdfrwt beam="2">  1        1 0.28529897E-01 0.47258739E+02</pdfrwt>
<totfact> 0.26826077E+03</totfact>
</mgrwt>
</event>
<event>
 5    1  0.8459321E-003  0.3183865E+02  0.7546771E-02  0.1588749E+00
         -1   -1    0    0    0  501 -0.00000000000E+00  0.00000000000E+00  0.10835939854E+03  0.10835939854E+03  0.00000000000E+00 0.  1.
          1   -1    0    0  502    0  0.00000000000E+00 -0.00000000000E+00 -0.75438586052E+03  0.75438586052E+03  0.00000000000E+00 0. -1.
         25    1    1    2    0    0 -0.10092462788E+02 -0.52394134090E+02 -0.25049456283E+02  0.13820086234E+03  0.12500000000E+03 0.  0.
          2    1    1    2  502    0  0.20404409200E+02  0.24311947077E+02 -0.66803164337E+03  0.66878523251E+03  0.00000000000E+00 0. -1.
         -2    1    1    2    0  501 -0.10311946412E+02  0.28082187013E+02  0.47054637675E+02  0.55759164207E+02  0.00000000000E+00 0.  1.
<mgrwt>
<rscale>  0 0.30862170E+02</rscale>
<asrwt>0</asrwt>
<pdfrwt beam="2">  1        1 0.11605936E+00 0.31838649E+02</pdfrwt>
<pdfrwt beam="1">  1       -1 0.16670677E-01 0.29915639E+02</pdfrwt>
<totfact> 0.68328953E+02</totfact>
</mgrwt>
</event>
<event>
 5    1  0.8459321E-003  0.1843817E+03  0.7546771E-02  0.1251979E+00
          1   -1    0    0  501    0 -0.00000000000E+00  0.00000000000E+00  0.21521138589E+03  0.21521138589E+03  0.00000000000E+00 0. -1.
          2   -1    0    0  502    0  0.00000000000E+00 -0.00000000000E+00 -0.60719316404E+03  0.60719316404E+03  0.00000000000E+00 0. -1.
         25    1    1    2    0    0  0.53353449245E+02 -0.19397988596E+03 -0.16598222577E+03  0.28922290016E+03  0.12500000000E+03 0.  0.
          2    1    1    2  501    0 -0.10774673467E+03  0.14766092918E+03  0.93831163899E+02  0.20546872306E+03  0.00000000000E+00 0. -1.
          1    1    1    2  502    0  0.54393285427E+02  0.46318956783E+02 -0.31983071628E+03  0.32771292671E+03  0.00000000000E+00 0. -1.
<mgrwt>
<rscale>  0 0.11477260E+03</rscale>
<asrwt>0</asrwt>
<pdfrwt beam="2">  1        2 0.93414334E-01 0.71442811E+02</pdfrwt>
<pdfrwt beam="1">  1        1 0.33109444E-01 0.18438174E+03</pdfrwt>
<totfact> 0.92836985E+02</totfact>
</mgrwt>
</event>
<event>
 5    1  0.8459321E-003  0.7022018E+02  0.7546771E-02  0.1380831E+00
          2   -1    0    0  502    0  0.00000000000E+00  0.00000000000E+00  0.10601422612E+04  0.10601422612E+04  0.00000000000E+00 0. -1.
          1   -1    0    0  501    0 -0.00000000000E+00 -0.00000000000E+00 -0.89100079354E+03  0.89100079354E+03  0.00000000000E+00 0. -1.
         25    1    1    2    0    0 -0.40850355567E+02  0.11212132344E+02 -0.54093073411E+03  0.55679935576E+03  0.12500000000E+03 0.  0.
          2    1    1    2  501    0 -0.12062467035E+02 -0.57528807625E+02 -0.33842465018E+03  0.34349135457E+03  0.00000000000E+00 0. -1.
          1    1    1    2  502    0  0.52912822603E+02  0.46316675282E+02  0.10484968520E+04  0.10508523444E+04  0.00000000000E+00 0. -1.
<mgrwt>
<rscale>  0 0.64245849E+02</rscale>
<asrwt>0</asrwt>
<pdfrwt beam="1">  1        2 0.16309881E+00 0.70220177E+02</pdfrwt>
<pdfrwt beam="2">  1        1 0.13707705E+00 0.58779816E+02</pdfrwt>
<totfact> 0.75461493E+01</totfact>
</mgrwt>
</event>
<event>
 5    1  0.8459321E-003  0.1377958E+03  0.7546771E-02  0.1270734E+00
          2   -1    0    0  502    0  0.00000000000E+00  0.00000000000E+00  0.88618936234E+03  0.88618936234E+03  0.00000000000E+00 0. -1.
          1   -1    0    0  501    0 -0.00000000000E+00 -0.00000000000E+00 -0.16858774832E+04  0.16858774832E+04  0.00000000000E+00 0. -1.
         25    1    1    2    0    0  0.74301284261E+02 -0.13268774244E+03 -0.46867919430E+03  0.50834231085E+03  0.12500000000E+03 0.  0.
          2    1    1    2  501    0  0.50199521140E+01  0.13852663462E+03 -0.11915147337E+04  0.11995508281E+04  0.00000000000E+00 0. -1.
          3    1    1    2  502    0 -0.79321236375E+02 -0.58388921790E+01  0.86050580712E+03  0.86417370666E+03  0.00000000000E+00 0. -1.
<mgrwt>
<rscale>  0 0.10468860E+03</rscale>
<asrwt>0</asrwt>
<pdfrwt beam="1">  1        2 0.13633683E+00 0.79535849E+02</pdfrwt>
<pdfrwt beam="2">  1        1 0.25936576E+00 0.13779577E+03</pdfrwt>
<totfact> 0.25991136E+01</totfact>
</mgrwt>
</event>
<event>
 5    1  0.8459321E-003  0.4664899E+02  0.7546771E-02  0.1494782E+00
          2   -1    0    0  502    0  0.00000000000E+00  0.00000000000E+00  0.52341487032E+02  0.52341487032E+02  0.00000000000E+00 0. -1.
          1   -1    0    0  501    0 -0.00000000000E+00 -0.00000000000E+00 -0.56136165066E+03  0.56136165066E+03  0.00000000000E+00 0. -1.
         25    1    1    2    0    0 -0.77992243569E+02 -0.88052433060E+01 -0.11972285144E+03  0.19004968699E+03  0.12500000000E+03 0.  0.
          2    1    1    2  501    0  0.36693605719E+02  0.82397419646E+01 -0.37929791883E+03  0.38115774330E+03  0.00000000000E+00 0. -1.
          1    1    1    2  502    0  0.41298637850E+02  0.56550134134E+00 -0.99993933514E+01  0.42495707400E+02  0.00000000000E+00 0. -1.
<mgrwt>
<rscale>  0 0.41884910E+02</rscale>
<asrwt>0</asrwt>
<pdfrwt beam="1">  1        2 0.80525361E-02 0.46648991E+02</pdfrwt>
<pdfrwt beam="2">  1        1 0.86363335E-01 0.37607367E+02</pdfrwt>
<totfact> 0.41187077E+03</totfact>
</mgrwt>
</event>
<event>
 5    1  0.8459321E-003  0.5562329E+02  0.7546771E-02  0.1422208E+00
          2   -1    0    0  502    0  0.00000000000E+00  0.00000000000E+00  0.47182883532E+03  0.47182883532E+03  0.00000000000E+00 0. -1.
          1   -1    0    0  501    0 -0.00000000000E+00 -0.00000000000E+00 -0.70035727823E+03  0.70035727823E+03  0.00000000000E+00 0. -1.
         25    1    1    2    0    0  0.52368374239E+02 -0.17711998248E+02 -0.31683636733E+03  0.34506006023E+03  0.12500000000E+03 0.  0.
          2    1    1    2  501    0 -0.16102026902E+02  0.57057978363E+02 -0.36544803640E+03  0.37022581687E+03  0.00000000000E+00 0. -1.
          1    1    1    2  502    0 -0.36266347337E+02 -0.39345980115E+02  0.45375596082E+03  0.45690023646E+03  0.00000000000E+00 0. -1.
<mgrwt>
<rscale>  0 0.54556573E+02</rscale>
<asrwt>0</asrwt>
<pdfrwt beam="1">  1        2 0.72589052E-01 0.53510318E+02</pdfrwt>
<pdfrwt beam="2">  1        1 0.10774727E+00 0.55623285E+02</pdfrwt>
<totfact> 0.27860193E+02</totfact>
</mgrwt>
</event>
<event>
 5    1  0.8459321E-003  0.6469300E+02  0.7546771E-02  0.1383188E+00
          2   -1    0    0  502    0  0.00000000000E+00  0.00000000000E+00  0.51158752403E+03  0.51158752403E+03  0.00000000000E+00 0. -1.
          1   -1    0    0  501    0 -0.00000000000E+00 -0.00000000000E+00 -0.30761106980E+03  0.30761106980E+03  0.00000000000E+00 0. -1.
         25    1    1    2    0    0 -0.39980931405E+02  0.10511060147E+02 -0.18611178031E+03  0.22797270019E+03  0.12500000000E+03 0.  0.
          2    1    1    2  501    0  0.65751495081E+02 -0.67550149769E+02 -0.75917154657E+02  0.12103592942E+03  0.00000000000E+00 0. -1.
          1    1    1    2  502    0 -0.25770563677E+02  0.57039089622E+02  0.46600538920E+03  0.47018996423E+03  0.00000000000E+00 0. -1.
<mgrwt>
<rscale>  0 0.63633103E+02</rscale>
<asrwt>0</asrwt>
<pdfrwt beam="1">  1        2 0.78705773E-01 0.62590572E+02</pdfrwt>
<pdfrwt beam="2">  1        1 0.47324780E-01 0.64692998E+02</pdfrwt>
<totfact> 0.71878365E+02</totfact>
</mgrwt>
</event>
<event>
 5    1  0.8459321E-003  0.8230441E+02  0.7546771E-02  0.1371276E+00
          2   -1    0    0  502    0  0.00000000000E+00  0.00000000000E+00  0.13586996594E+04  0.13586996594E+04  0.00000000000E+00 0. -1.
          1   -1    0    0  501    0 -0.00000000000E+00 -0.00000000000E+00 -0.16400833398E+03  0.16400833398E+03  0.00000000000E+00 0. -1.
         25    1    1    2    0    0 -0.24599919359E+01  0.13002048089E+03  0.75699941480E+02  0.19561916612E+03  0.12500000000E+03 0.  0.
          2    1    1    2  501    0  0.11226964468E+02 -0.76495326439E+02 -0.88993258933E+02  0.11788714872E+03  0.00000000000E+00 0. -1.
          1    1    1    2  502    0 -0.87669725325E+01 -0.53525154455E+02  0.12079846429E+04  0.12092016785E+04  0.00000000000E+00 0. -1.
<mgrwt>
<rscale>  0 0.66813607E+02</rscale>
<asrwt>0</asrwt>
<pdfrwt beam="1">  1        2 0.20903071E+00 0.54238381E+02</pdfrwt>
<pdfrwt beam="2">  1        1 0.25232052E-01 0.82304413E+02</pdfrwt>
<totfact> 0.45895426E+02</totfact>
</mgrwt>
</event>
<event>
 5    1  0.8459321E-003  0.2014096E+03  0.7546771E-02  0.1243854E+00
         -2   -1    0    0    0  501 -0.00000000000E+00  0.00000000000E+00  0.72965640833E+03  0.72965640833E+03  0.00000000000E+00 0.  1.
          2   -1    0    0  502    0  0.00000000000E+00 -0.00000000000E+00 -0.20944468757E+04  0.20944468757E+04  0.00000000000E+00 0. -1.
         25    1    1    2    0    0  0.90823258417E+02 -0.21641634882E+03 -0.47404660216E+03  0.54353480231E+03  0.12500000000E+03 0.  0.
          1    1    1    2  502    0 -0.68912080496E+02  0.16888911029E+02 -0.15703433180E+04  0.15719453701E+04  0.00000000000E+00 0. -1.
         -1    1    1    2    0  501 -0.21911177921E+02  0.19952743779E+03  0.67959945277E+03  0.70862311164E+03  0.00000000000E+00 0.  1.
<mgrwt>
<rscale>  0 0.11954206E+03</rscale>
<asrwt>0</asrwt>
<pdfrwt beam="2">  1        2 0.32222260E+00 0.70951463E+02</pdfrwt>
<pdfrwt beam="1">  1       -2 0.11225483E+00 0.20140956E+03</pdfrwt>
<totfact> 0.51560347E+00</totfact>
</mgrwt>
</event>
<event>
 5    1  0.8459321E-003  0.5333682E+02  0.7546771E-02  0.1457391E+00
          2   -1    0    0  502    0  0.00000000000E+00  0.00000000000E+00  0.75690397428E+03  0.75690397428E+03  0.00000000000E+00 0. -1.
          1   -1    0    0  501    0 -0.00000000000E+00 -0.00000000000E+00 -0.27694820935E+02  0.27694820935E+02  0.00000000000E+00 0. -1.
         25    1    1    2    0    0 -0.54978168995E+02 -0.52386711093E+02  0.41276939771E+03  0.43791613610E+03  0.12500000000E+03 0.  0.
          2    1    1    2  501    0  0.48593927502E+01  0.42621594196E+02  0.22691552539E+02  0.48529584238E+02  0.00000000000E+00 0. -1.
          1    1    1    2  502    0  0.50118776245E+02  0.97651168972E+01  0.29374820309E+03  0.29815307488E+03  0.00000000000E+00 0. -1.
<mgrwt>
<rscale>  0 0.47833332E+02</rscale>
<asrwt>0</asrwt>
<pdfrwt beam="1">  1        2 0.11644675E+00 0.53336818E+02</pdfrwt>
<pdfrwt beam="2">  1        1 0.42607423E-02 0.42897715E+02</pdfrwt>
<totfact> 0.94514171E+03</totfact>
</mgrwt>
</event>
<event>
 5    1  0.8459321E-003  0.9047799E+02  0.7546771E-02  0.1310823E+00
          1   -1    0    0  501    0 -0.00000000000E+00  0.00000000000E+00  0.11255116848E+03  0.11255116848E+03  0.00000000000E+00 0. -1.
          2   -1    0    0  502    0  0.00000000000E+00 -0.00000000000E+00 -0.10152434350E+04  0.10152434350E+04  0.00000000000E+00 0. -1.
         25    1    1    2    0    0  0.66828351617E+01 -0.39574943092E+02 -0.13293131616E+03  0.18683300357E+03  0.12500000000E+03 0.  0.
          2    1    1    2  501    0  0.83631796466E+02  0.45009433003E+02  0.56002537611E+02  0.11025611393E+03  0.00000000000E+00 0. -1.
          1    1    1    2  502    0 -0.90314631627E+02 -0.54344899116E+01 -0.82576348802E+03  0.83070548602E+03  0.00000000000E+00 0. -1.
<mgrwt>
<rscale>  0 0.86787475E+02</rscale>
<asrwt>0</asrwt>
<pdfrwt beam="2">  1        2 0.15619130E+00 0.90477988E+02</pdfrwt>
<pdfrwt beam="1">  1        1 0.17315564E-01 0.83247495E+02</pdfrwt>
<totfact> 0.10898237E+03</totfact>
</mgrwt>
</event>
<event>
 5    1  0.8459321E-003  0.5593477E+02  0.7546771E-02  0.1476520E+00
          1   -1    0    0  501    0 -0.00000000000E+00  0.00000000000E+00  0.46202101871E+03  0.46202101871E+03  0.00000000000E+00 0. -1.
          2   -1    0    0  502    0  0.00000000000E+00 -0.00000000000E+00 -0.57834841735E+03  0.57834841735E+03  0.00000000000E+00 0. -1.
         25    1    1    2    0    0  0.78731788884E+01 -0.23772201739E+02  0.39826463146E+02  0.13355991797E+03  0.12500000000E+03 0.  0.
          2    1    1    2  501    0  0.31408946233E+02 -0.16856747768E+02  0.37297333273E+03  0.37467289571E+03  0.00000000000E+00 0. -1.
          1    1    1    2  502    0 -0.39282125122E+02  0.40628949507E+02 -0.52912719452E+03  0.53213662237E+03  0.00000000000E+00 0. -1.
<mgrwt>
<rscale>  0 0.44652861E+02</rscale>
<asrwt>0</asrwt>
<pdfrwt beam="2">  1        2 0.88976679E-01 0.55934773E+02</pdfrwt>
<pdfrwt beam="1">  1        1 0.71080157E-01 0.35646484E+02</pdfrwt>
<totfact> 0.38777847E+02</totfact>
</mgrwt>
</event>
<event>
 5    1  0.8459321E-003  0.6724361E+02  0.7546771E-02  0.1398861E+00
         -2   -1    0    0    0  501 -0.00000000000E+00  0.00000000000E+00  0.91537934879E+02  0.91537934879E+02  0.00000000000E+00 0.  1.
          2   -1    0    0  502    0  0.00000000000E+00 -0.00000000000E+00 -0.71882041176E+03  0.71882041176E+03  0.00000000000E+00 0. -1.
         25    1    1    2    0    0  0.18886689149E+02 -0.10950347367E+02 -0.11463903371E+03  0.17100796819E+03  0.12500000000E+03 0.  0.
          1    1    1    2  502    0  0.37320600309E+02 -0.37774476168E+02 -0.55244072464E+03  0.55498693003E+03  0.00000000000E+00 0. -1.
         -1    1    1    2    0  501 -0.56207289458E+02  0.48724823536E+02  0.39797281472E+02  0.84363448420E+02  0.00000000000E+00 0.  1.
<mgrwt>
<rscale>  0 0.59755477E+02</rscale>
<asrwt>0</asrwt>
<pdfrwt beam="2">  1        2 0.11058775E+00 0.53101208E+02</pdfrwt>
<pdfrwt beam="1">  1       -2 0.14082759E-01 0.67243611E+02</pdfrwt>
<totfact> 0.15188124E+03</totfact>
</mgrwt>
</event>
<event>
 5    1  0.8459321E-003  0.4730969E+02  0.7546771E-02  0.1500626E+00
         -2   -1    0    0    0  501 -0.00000000000E+00  0.00000000000E+00  0.18333789983E+03  0.18333789983E+03  0.00000000000E+00 0.  1.
          2   -1    0    0  502    0  0.00000000000E+00 -0.00000000000E+00 -0.22060009926E+04  0.22060009926E+04  0.00000000000E+00 0. -1.
         25    1    1    2    0    0 -0.70188440778E+02 -0.16120453282E+02 -0.30459596576E+03  0.33703113891E+03  0.12500000000E+03 0.  0.
          1    1    1    2  502    0  0.33153606490E+02 -0.13018609792E+02 -0.18816935969E+04  0.18820306688E+04  0.00000000000E+00 0. -1.
         -1    1    1    2    0  501  0.37034834288E+02  0.29139063074E+02  0.16362646985E+03  0.17027708473E+03  0.00000000000E+00 0.  1.
<mgrwt>
<rscale>  0 0.41049714E+02</rscale>
<asrwt>0</asrwt>
<pdfrwt beam="2">  1        2 0.33938477E+00 0.35618055E+02</pdfrwt>
<pdfrwt beam="1">  1       -2 0.28205830E-01 0.47309688E+02</pdfrwt>
<totfact> 0.81941517E+01</totfact>
</mgrwt>
</event>
<event>
 5    1  0.8459321E-003  0.9929968E+02  0.7546771E-02  0.1379135E+00
          1   -1    0    0  501    0 -0.00000000000E+00  0.00000000000E+00  0.16584407520E+03  0.16584407520E+03  0.00000000000E+00 0. -1.
          2   -1    0    0  502    0  0.00000000000E+00 -0.00000000000E+00 -0.13737671634E+04  0.13737671634E+04  0.00000000000E+00 0. -1.
         25    1    1    2    0    0 -0.63215011983E+02 -0.74519394783E+01 -0.26075750466E+03  0.29609313633E+03  0.12500000000E+03 0.  0.
          2    1    1    2  501    0  0.10102009036E+03 -0.11175947042E+02  0.13028718928E+03  0.16524137538E+03  0.00000000000E+00 0. -1.
          1    1    1    2  502    0 -0.37805078377E+02  0.18627886521E+02 -0.10774527728E+04  0.10782767269E+04  0.00000000000E+00 0. -1.
<mgrwt>
<rscale>  0 0.64691654E+02</rscale>
<asrwt>0</asrwt>
<pdfrwt beam="2">  1        2 0.21134879E+00 0.42145250E+02</pdfrwt>
<pdfrwt beam="1">  1        1 0.25514474E-01 0.99299685E+02</pdfrwt>
<totfact> 0.45589639E+02</totfact>
</mgrwt>
</event>
<event>
 5    1  0.1125638E-002  0.1243016E+03  0.7546771E-02  0.1276191E+00
          2   -1    0    0  502    0  0.00000000000E+00  0.00000000000E+00  0.14766257473E+04  0.14766257473E+04  0.00000000000E+00 0. -1.
         -2   -1    0    0    0  501 -0.00000000000E+00 -0.00000000000E+00 -0.30558546308E+02  0.30558546308E+02  0.00000000000E+00 0.  1.
         25    1    1    2    0    0  0.99489577732E+02  0.14658321002E+03  0.89934014436E+03  0.92510675535E+03  0.12500000000E+03 0.  0.
          1    1    1    2  502    0 -0.75599112972E+02 -0.66403435430E+02  0.40668377677E+03  0.41894669877E+03  0.00000000000E+00 0. -1.
         -1    1    1    2    0  501 -0.23890464761E+02 -0.80179774592E+02  0.14004327989E+03  0.16313083952E+03  0.00000000000E+00 0.  1.
<mgrwt>
<rscale>  0 0.10197788E+03</rscale>
<asrwt>0</asrwt>
<pdfrwt beam="1">  1        2 0.22717314E+00 0.12430164E+03</pdfrwt>
<pdfrwt beam="2">  1       -2 0.47013160E-02 0.83663317E+02</pdfrwt>
<totfact> 0.28885864E+03</totfact>
</mgrwt>
</event>
<event>
 5    1  0.8459321E-003  0.1970066E+03  0.7546771E-02  0.1218288E+00
          2   -1    0    0  502    0  0.00000000000E+00  0.00000000000E+00  0.10746904919E+04  0.10746904919E+04  0.00000000000E+00 0. -1.
         -2   -1    0    0    0  501 -0.00000000000E+00 -0.00000000000E+00 -0.12512513535E+03  0.12512513535E+03  0.00000000000E+00 0.  1.
         25    1    1    2    0    0  0.54996962504E+02  0.24800490575E+03  0.64789751862E+03  0.70705536827E+03  0.12500000000E+03 0.  0.
          1    1    1    2  502    0  0.41900008877E+02 -0.84599747468E+02  0.28710512661E+03  0.30222852569E+03  0.00000000000E+00 0. -1.
         -1    1    1    2    0  501 -0.96896971381E+02 -0.16340515828E+03  0.14562711277E+02  0.19053173325E+03  0.00000000000E+00 0.  1.
<mgrwt>
<rscale>  0 0.13637761E+03</rscale>
<asrwt>0</asrwt>
<pdfrwt beam="1">  1        2 0.16533699E+00 0.94407246E+02</pdfrwt>
<pdfrwt beam="2">  1       -2 0.19250022E-01 0.19700662E+03</pdfrwt>
<totfact> 0.55941526E+02</totfact>
</mgrwt>
</event>
<event>
 5    1  0.8459321E-003  0.5940135E+02  0.7546771E-02  0.1502688E+00
          2   -1    0    0  502    0  0.00000000000E+00  0.00000000000E+00  0.32107554064E+03  0.32107554064E+03  0.00000000000E+00 0. -1.
          1   -1    0    0  501    0 -0.00000000000E+00 -0.00000000000E+00 -0.13773374934E+03  0.13773374934E+03  0.00000000000E+00 0. -1.
         25    1    1    2    0    0  0.34485477675E+02  0.24594131757E+02  0.13319076448E+03  0.18750706448E+03  0.12500000000E+03 0.  0.
          2    1    1    2  501    0  0.27038961071E+02 -0.71539907910E+01 -0.10226160279E+03  0.10601754762E+03  0.00000000000E+00 0. -1.
          1    1    1    2  502    0 -0.61524438746E+02 -0.17440140966E+02  0.15241262960E+03  0.16528467788E+03  0.00000000000E+00 0. -1.
<mgrwt>
<rscale>  0 0.40760490E+02</rscale>
<asrwt>0</asrwt>
<pdfrwt beam="1">  1        2 0.49396237E-01 0.59401347E+02</pdfrwt>
<pdfrwt beam="2">  1        1 0.21189808E-01 0.27969358E+02</pdfrwt>
<totfact> 0.29871739E+03</totfact>
</mgrwt>
</event>
<event>
 5    1  0.8459321E-003  0.7494482E+02  0.7546771E-02  0.1427045E+00
          1   -1    0    0  501    0 -0.00000000000E+00  0.00000000000E+00  0.43200466788E+03  0.43200466788E+03  0.00000000000E+00 0. -1.
          2   -1    0    0  502    0  0.00000000000E+00 -0.00000000000E+00 -0.64052106056E+03  0.64052106056E+03  0.00000000000E+00 0. -1.
         25    1    1    2    0    0 -0.40149229917E+02 -0.10519662662E+03 -0.17790104221E+03  0.24485112157E+03  0.12500000000E+03 0.  0.
          2    1    1    2  501    0  0.26823635903E+02  0.69317201924E+02  0.39419630496E+03  0.40114225503E+03  0.00000000000E+00 0. -1.
          1    1    1    2  502    0  0.13325594014E+02  0.35879424699E+02 -0.42481165543E+03  0.42653235184E+03  0.00000000000E+00 0. -1.
<mgrwt>
<rscale>  0 0.53557851E+02</rscale>
<asrwt>0</asrwt>
<pdfrwt beam="2">  1        2 0.98541701E-01 0.38274072E+02</pdfrwt>
<pdfrwt beam="1">  1        1 0.66462257E-01 0.74944819E+02</pdfrwt>
<totfact> 0.37560807E+02</totfact>
</mgrwt>
</event>
<event>
 5    1  0.8459321E-003  0.1632670E+03  0.7546771E-02  0.1331875E+00
          1   -1    0    0  501    0 -0.00000000000E+00  0.00000000000E+00  0.16054528754E+03  0.16054528754E+03  0.00000000000E+00 0. -1.
          2   -1    0    0  502    0  0.00000000000E+00 -0.00000000000E+00 -0.24064071418E+04  0.24064071418E+04  0.00000000000E+00 0. -1.
         25    1    1    2    0    0  0.85151631859E+02  0.98359156453E+02 -0.18552098352E+04  0.18639618710E+04  0.12500000000E+03 0.  0.
          2    1    1    2  501    0 -0.91715434716E+02 -0.13603009286E+03  0.11215436171E+03  0.19873225198E+03  0.00000000000E+00 0. -1.
          1    1    1    2  502    0  0.65638028573E+01  0.37670936405E+02 -0.50280638073E+03  0.50425830629E+03  0.00000000000E+00 0. -1.
<mgrwt>
<rscale>  0 0.79013204E+02</rscale>
<asrwt>0</asrwt>
<pdfrwt beam="2">  1        2 0.37021649E+00 0.38238501E+02</pdfrwt>
<pdfrwt beam="1">  1        1 0.24699275E-01 0.16326703E+03</pdfrwt>
<totfact> 0.15282505E+02</totfact>
</mgrwt>
</event>
<event>
 5    1  0.8459321E-003  0.5649683E+02  0.7546771E-02  0.1450547E+00
         -2   -1    0    0    0  501 -0.00000000000E+00  0.00000000000E+00  0.10937655508E+03  0.10937655508E+03  0.00000000000E+00 0.  1.
          2   -1    0    0  502    0  0.00000000000E+00 -0.00000000000E+00 -0.66859977867E+03  0.66859977867E+03  0.00000000000E+00 0. -1.
         25    1    1    2    0    0 -0.19105688527E+02  0.32749529603E+02 -0.12480918041E+03  0.18066513371E+03  0.12500000000E+03 0.  0.
          1    1    1    2  502    0 -0.16652300585E+02 -0.55868026162E+02 -0.50851593666E+03  0.51184665017E+03  0.00000000000E+00 0. -1.
         -1    1    1    2    0  501  0.35757989112E+02  0.23118496559E+02  0.74101893476E+02  0.85464549875E+02  0.00000000000E+00 0.  1.
<mgrwt>
<rscale>  0 0.49047561E+02</rscale>
<asrwt>0</asrwt>
<pdfrwt beam="2">  1        2 0.10286150E+00 0.56496834E+02</pdfrwt>
<pdfrwt beam="1">  1       -2 0.16827163E-01 0.42580496E+02</pdfrwt>
<totfact> 0.12044705E+03</totfact>
</mgrwt>
</event>
<event>
 5    1  0.8459321E-003  0.3999926E+02  0.7546771E-02  0.1520956E+00
         -2   -1    0    0    0  501 -0.00000000000E+00  0.00000000000E+00  0.67517984321E+02  0.67517984321E+02  0.00000000000E+00 0.  1.
          2   -1    0    0  502    0  0.00000000000E+00 -0.00000000000E+00 -0.60652821726E+03  0.60652821726E+03  0.00000000000E+00 0. -1.
         25    1    1    2    0    0  0.13067351183E+01 -0.37538979106E+02 -0.13834046954E+03  0.19019455308E+03  0.12500000000E+03 0.  0.
          1    1    1    2  502    0  0.32825250206E+02  0.24024654196E+02 -0.43301697498E+03  0.43492342048E+03  0.00000000000E+00 0. -1.
         -1    1    1    2    0  501 -0.34131985325E+02  0.13514324910E+02  0.32347211582E+02  0.48928228019E+02  0.00000000000E+00 0.  1.
<mgrwt>
<rscale>  0 0.38319391E+02</rscale>
<asrwt>0</asrwt>
<pdfrwt beam="2">  1        2 0.93312034E-01 0.39999261E+02</pdfrwt>
<pdfrwt beam="1">  1       -2 0.10387382E-01 0.36710072E+02</pdfrwt>
<totfact> 0.28378055E+03</totfact>
</mgrwt>
</event>
<event>
 5    1  0.8459321E-003  0.3652929E+02  0.7546771E-02  0.1602104E+00
          2   -1    0    0  502    0  0.00000000000E+00  0.00000000000E+00  0.77720738426E+02  0.77720738426E+02  0.00000000000E+00 0. -1.
          1   -1    0    0  501    0 -0.00000000000E+00 -0.00000000000E+00 -0.41295432283E+03  0.41295432283E+03  0.00000000000E+00 0. -1.
         25    1    1    2    0    0 -0.27447478770E+02 -0.21032137542E+02 -0.10471811398E+03  0.16669312612E+03  0.12500000000E+03 0.  0.
          2    1    1    2  501    0  0.36892701610E+02 -0.10853195705E+01 -0.27282744729E+03  0.27531266834E+03  0.00000000000E+00 0. -1.
          1    1    1    2  502    0 -0.94452228393E+01  0.22117457112E+02  0.42311976871E+02  0.48669266795E+02  0.00000000000E+00 0. -1.
<mgrwt>
<rscale>  0 0.29639889E+02</rscale>
<asrwt>0</asrwt>
<pdfrwt beam="1">  1        2 0.11957036E-01 0.24049826E+02</pdfrwt>
<pdfrwt beam="2">  1        1 0.63531435E-01 0.36529288E+02</pdfrwt>
<totfact> 0.35739950E+03</totfact>
</mgrwt>
</event>
<event>
 5    1  0.8459321E-003  0.1310427E+03  0.7546771E-02  0.1285444E+00
          2   -1    0    0  502    0  0.00000000000E+00  0.00000000000E+00  0.13428496630E+03  0.13428496630E+03  0.00000000000E+00 0. -1.
          1   -1    0    0  501    0 -0.00000000000E+00 -0.00000000000E+00 -0.11003741092E+04  0.11003741092E+04  0.00000000000E+00 0. -1.
         25    1    1    2    0    0 -0.59156663364E+02  0.38450745570E+02 -0.13853221161E+03  0.19948469693E+03  0.12500000000E+03 0.  0.
          2    1    1    2  501    0  0.10800389432E+03 -0.92267045131E+02 -0.91243795787E+03  0.92342897711E+03  0.00000000000E+00 0. -1.
          1    1    1    2  502    0 -0.48847230957E+02  0.53816299561E+02  0.84881026588E+02  0.11174540145E+03  0.00000000000E+00 0. -1.
<mgrwt>
<rscale>  0 0.97591294E+02</rscale>
<asrwt>0</asrwt>
<pdfrwt beam="1">  1        2 0.20659227E-01 0.72679062E+02</pdfrwt>
<pdfrwt beam="2">  1        1 0.16928831E+00 0.13104270E+03</pdfrwt>
<totfact> 0.49413406E+02</totfact>
</mgrwt>
</event>
<event>
 5    1  0.8459321E-003  0.6897982E+02  0.7546771E-02  0.1388204E+00
          1   -1    0    0  501    0 -0.00000000000E+00  0.00000000000E+00  0.58245106080E+03  0.58245106080E+03  0.00000000000E+00 0. -1.
          2   -1    0    0  502    0  0.00000000000E+00 -0.00000000000E+00 -0.72671255462E+03  0.72671255462E+03  0.00000000000E+00 0. -1.
         25    1    1    2    0    0  0.39330414244E+02  0.36911588515E+02 -0.11562861229E+03  0.17861781219E+03  0.12500000000E+03 0.  0.
          2    1    1    2  501    0 -0.68598782829E+02  0.11261682792E+02  0.54738242555E+03  0.55177906657E+03  0.00000000000E+00 0. -1.
          1    1    1    2  502    0  0.29268368585E+02 -0.48173271306E+02 -0.57601530708E+03  0.57876673665E+03  0.00000000000E+00 0. -1.
<mgrwt>
<rscale>  0 0.62355627E+02</rscale>
<asrwt>0</asrwt>
<pdfrwt beam="2">  1        2 0.11180193E+00 0.56367557E+02</pdfrwt>
<pdfrwt beam="1">  1        1 0.89607856E-01 0.68979825E+02</pdfrwt>
<totfact> 0.22072111E+02</totfact>
</mgrwt>
</event>
<event>
 5    1  0.8459321E-003  0.5380850E+02  0.7546771E-02  0.1515882E+00
          2   -1    0    0  502    0  0.00000000000E+00  0.00000000000E+00  0.92882426543E+03  0.92882426543E+03  0.00000000000E+00 0. -1.
          1   -1    0    0  501    0 -0.00000000000E+00 -0.00000000000E+00 -0.29552704720E+03  0.29552704720E+03  0.00000000000E+00 0. -1.
         25    1    1    2    0    0  0.49448397769E+02 -0.47814007182E+02  0.25987196585E+03  0.29646207507E+03  0.12500000000E+03 0.  0.
          2    1    1    2  501    0 -0.50019056867E+02  0.19586991819E+02 -0.27431949533E+03  0.27952950080E+03  0.00000000000E+00 0. -1.
          1    1    1    2  502    0  0.57065909888E+00  0.28227015362E+02  0.64774474772E+03  0.64835973675E+03  0.00000000000E+00 0. -1.
<mgrwt>
<rscale>  0 0.38976450E+02</rscale>
<asrwt>0</asrwt>
<pdfrwt beam="1">  1        2 0.14289604E+00 0.28232783E+02</pdfrwt>
<pdfrwt beam="2">  1        1 0.45465700E-01 0.53808499E+02</pdfrwt>
<totfact> 0.39422271E+02</totfact>
</mgrwt>
</event>
<event>
 5    1  0.8459321E-003  0.1002643E+03  0.7546771E-02  0.1329850E+00
          2   -1    0    0  502    0  0.00000000000E+00  0.00000000000E+00  0.19854823136E+04  0.19854823136E+04  0.00000000000E+00 0. -1.
         -2   -1    0    0    0  501 -0.00000000000E+00 -0.00000000000E+00 -0.72855661109E+03  0.72855661109E+03  0.00000000000E+00 0.  1.
         25    1    1    2    0    0 -0.55645895992E+02 -0.30287499161E+02  0.38505960893E+03  0.40976786205E+03  0.12500000000E+03 0.  0.
          1    1    1    2  502    0  0.51892180300E+02  0.93560371041E+02  0.15848591350E+04  0.15884661844E+04  0.00000000000E+00 0. -1.
         -1    1    1    2    0  501  0.37537156919E+01 -0.63272871879E+02 -0.71299304135E+03  0.71580487824E+03  0.00000000000E+00 0.  1.
<mgrwt>
<rscale>  0 0.79719277E+02</rscale>
<asrwt>0</asrwt>
<pdfrwt beam="1">  1        2 0.30545882E+00 0.10026428E+03</pdfrwt>
<pdfrwt beam="2">  1       -2 0.11208563E+00 0.63384120E+02</pdfrwt>
<totfact> 0.58595469E+00</totfact>
</mgrwt>
</event>
<event>
 5    1  0.8459321E-003  0.5953446E+02  0.7546771E-02  0.1485367E+00
          2   -1    0    0  502    0  0.00000000000E+00  0.00000000000E+00  0.17746248715E+02  0.17746248715E+02  0.00000000000E+00 0. -1.
         -2   -1    0    0    0  501 -0.00000000000E+00 -0.00000000000E+00 -0.29861528194E+04  0.29861528194E+04  0.00000000000E+00 0.  1.
         25    1    1    2    0    0  0.39809474152E+02 -0.39813786022E+02 -0.18564357137E+04  0.18614909322E+04  0.12500000000E+03 0.  0.
          1    1    1    2  502    0 -0.14255738921E+02  0.58172627258E+02 -0.44854135511E+02  0.74827629434E+02  0.00000000000E+00 0. -1.
         -1    1    1    2    0  501 -0.25553735231E+02 -0.18358841236E+02 -0.10671167215E+04  0.10675805064E+04  0.00000000000E+00 0.  1.
<mgrwt>
<rscale>  0 0.43281016E+02</rscale>
<asrwt>0</asrwt>
<pdfrwt beam="1">  1        2 0.27301948E-02 0.59534460E+02</pdfrwt>
<pdfrwt beam="2">  1       -2 0.45940768E+00 0.31464908E+02</pdfrwt>
<totfact> 0.16275110E+01</totfact>
</mgrwt>
</event>
<event>
 5    1  0.8459321E-003  0.5095498E+02  0.7546771E-02  0.1447849E+00
          2   -1    0    0  502    0  0.00000000000E+00  0.00000000000E+00  0.66984801508E+03  0.66984801508E+03  0.00000000000E+00 0. -1.
         -2   -1    0    0    0  501 -0.00000000000E+00 -0.00000000000E+00 -0.22313197685E+02  0.22313197685E+02  0.00000000000E+00 0.  1.
         25    1    1    2    0    0 -0.49898726250E+02 -0.23246826489E+02  0.30163055375E+03  0.33111370974E+03  0.12500000000E+03 0.  0.
          1    1    1    2  502    0  0.74111458759E+01  0.51375376638E+02  0.15503492892E+03  0.16349368059E+03  0.00000000000E+00 0. -1.
         -1    1    1    2    0  501  0.42487580374E+02 -0.28128550149E+02  0.19086933472E+03  0.19755382243E+03  0.00000000000E+00 0.  1.
<mgrwt>
<rscale>  0 0.49538146E+02</rscale>
<asrwt>0</asrwt>
<pdfrwt beam="1">  1        2 0.10305353E+00 0.48160709E+02</pdfrwt>
<pdfrwt beam="2">  1       -2 0.34328001E-02 0.50954978E+02</pdfrwt>
<totfact> 0.13381587E+04</totfact>
</mgrwt>
</event>
<event>
 5    1  0.8459321E-003  0.3563774E+02  0.7546771E-02  0.1546618E+00
          2   -1    0    0  502    0  0.00000000000E+00  0.00000000000E+00  0.20174687149E+04  0.20174687149E+04  0.00000000000E+00 0. -1.
          3   -1    0    0  501    0 -0.00000000000E+00 -0.00000000000E+00 -0.56174297814E+01  0.56174297814E+01  0.00000000000E+00 0. -1.
         25    1    1    2    0    0 -0.40624863352E+02  0.23669080663E+01  0.10061750412E+04  0.10147261677E+04  0.12500000000E+03 0.  0.
          2    1    1    2  501    0  0.25339794786E+02  0.28913877262E+02  0.48544937943E+03  0.48696942151E+03  0.00000000000E+00 0. -1.
          3    1    1    2  502    0  0.15285068566E+02 -0.31280785329E+02  0.52022686443E+03  0.52139055546E+03  0.00000000000E+00 0. -1.
<mgrwt>
<rscale>  0 0.35224232E+02</rscale>
<asrwt>0</asrwt>
<pdfrwt beam="1">  1        2 0.31037922E+00 0.34815526E+02</pdfrwt>
<pdfrwt beam="2">  1        3 0.86422158E-03 0.35637735E+02</pdfrwt>
<totfact> 0.13196079E+04</totfact>
</mgrwt>
</event>
<event>
 5    1  0.8459321E-003  0.3741071E+02  0.7546771E-02  0.1548237E+00
         -2   -1    0    0    0  501 -0.00000000000E+00  0.00000000000E+00  0.74230969687E+03  0.74230969687E+03  0.00000000000E+00 0.  1.
          2   -1    0    0  502    0  0.00000000000E+00 -0.00000000000E+00 -0.41041746868E+03  0.41041746868E+03  0.00000000000E+00 0. -1.
         25    1    1    2    0    0 -0.58037963579E+02  0.14399372338E+02 -0.12126801576E+02  0.13909639268E+03  0.12500000000E+03 0.  0.
          1    1    1    2  502    0  0.30863506791E+02  0.11166248326E+02 -0.33348698013E+03  0.33509820511E+03  0.00000000000E+00 0. -1.
         -1    1    1    2    0  501  0.27174456787E+02 -0.25565620664E+02  0.67750600990E+03  0.67853256776E+03  0.00000000000E+00 0.  1.
<mgrwt>
<rscale>  0 0.35040978E+02</rscale>
<asrwt>0</asrwt>
<pdfrwt beam="2">  1        2 0.63141149E-01 0.32821352E+02</pdfrwt>
<pdfrwt beam="1">  1       -2 0.11420149E+00 0.37410712E+02</pdfrwt>
<totfact> 0.52955872E+01</totfact>
</mgrwt>
</event>
<event>
 5    1  0.8459321E-003  0.1330133E+03  0.7546771E-02  0.1273758E+00
          1   -1    0    0  501    0 -0.00000000000E+00  0.00000000000E+00  0.38872927760E+03  0.38872927760E+03  0.00000000000E+00 0. -1.
          2   -1    0    0  502    0  0.00000000000E+00 -0.00000000000E+00 -0.77242804964E+03  0.77242804964E+03  0.00000000000E+00 0. -1.
         25    1    1    2    0    0 -0.48270249183E+02  0.12850110903E+03 -0.29661389824E+03  0.34992478708E+03  0.12500000000E+03 0.  0.
          2    1    1    2  501    0  0.79809338092E+02  0.59326857210E+01  0.34679514817E+03  0.35590954188E+03  0.00000000000E+00 0. -1.
          1    1    1    2  502    0 -0.31539088909E+02 -0.13443379475E+03 -0.43388002197E+03  0.45532299828E+03  0.00000000000E+00 0. -1.
<mgrwt>
<rscale>  0 0.10317458E+03</rscale>
<asrwt>0</asrwt>
<pdfrwt beam="2">  1        2 0.11883508E+00 0.13301331E+03</pdfrwt>
<pdfrwt beam="1">  1        1 0.59804504E-01 0.80029540E+02</pdfrwt>
<totfact> 0.33174563E+02</totfact>
</mgrwt>
</event>
<event>
 5    1  0.8459321E-003  0.8339101E+02  0.7546771E-02  0.1331642E+00
         -2   -1    0    0    0  501  0.00000000000E+00  0.00000000000E+00  0.19670859622E+04  0.19670859622E+04  0.00000000000E+00 0.  1.
         -1   -1    0    0    0  502 -0.00000000000E+00 -0.00000000000E+00 -0.78869992569E+02  0.78869992569E+02  0.00000000000E+00 0.  1.
         25    1    1    2    0    0  0.35713339015E+02  0.13632488690E+03  0.57654661398E+03  0.60654011859E+03  0.12500000000E+03 0.  0.
         -2    1    1    2    0  502 -0.48077657014E+02 -0.57587282171E+02 -0.40260172153E+02  0.85138931363E+02  0.00000000000E+00 0.  1.
         -1    1    1    2    0  501  0.12364317999E+02 -0.78737604734E+02  0.13519295278E+04  0.13542769049E+04  0.00000000000E+00 0.  1.
<mgrwt>
<rscale>  0 0.79093980E+02</rscale>
<asrwt>0</asrwt>
<pdfrwt beam="1">  1       -2 0.30262857E+00 0.83391007E+02</pdfrwt>
<pdfrwt beam="2">  1       -1 0.12133847E-01 0.75018372E+02</pdfrwt>
<totfact> 0.12560688E+01</totfact>
</mgrwt>
</event>
<event>
 5    1  0.8459321E-003  0.1273463E+03  0.7546771E-02  0.1244368E+00
          1   -1    0    0  501    0 -0.00000000000E+00  0.00000000000E+00  0.27161720960E+04  0.27161720960E+04  0.00000000000E+00 0. -1.
          2   -1    0    0  502    0  0.00000000000E+00 -0.00000000000E+00 -0.46075030470E+03  0.46075030470E+03  0.00000000000E+00 0. -1.
         25    1    1    2    0    0  0.73862025643E+02 -0.93938915971E+02 -0.13522555342E+03  0.21952464341E+03  0.12500000000E+03 0.  0.
          2    1    1    2  501    0 -0.12777368042E+03 -0.38171583237E+01  0.26614337489E+04  0.26645018829E+04  0.00000000000E+00 0. -1.
          1    1    1    2  502    0  0.53911654778E+02  0.97756074294E+02 -0.27078640416E+03  0.29289587443E+03  0.00000000000E+00 0. -1.
<mgrwt>
<rscale>  0 0.11923295E+03</rscale>
<asrwt>0</asrwt>
<pdfrwt beam="2">  1        2 0.70884664E-01 0.11163654E+03</pdfrwt>
<pdfrwt beam="1">  1        1 0.41787262E+00 0.12734626E+03</pdfrwt>
<totfact> 0.11999218E+01</totfact>
</mgrwt>
</event>
<event>
 5    1  0.8459321E-003  0.1976050E+03  0.7546771E-02  0.1330803E+00
          1   -1    0    0  502    0  0.00000000000E+00  0.00000000000E+00  0.27772556090E+03  0.27772556090E+03  0.00000000000E+00 0. -1.
         -1   -1    0    0    0  501 -0.00000000000E+00 -0.00000000000E+00 -0.62305314857E+03  0.62305314857E+03  0.00000000000E+00 0.  1.
         25    1    1    2    0    0  0.12299085488E+03  0.17562101660E+03  0.75037066184E+02  0.25927794576E+03  0.12500000000E+03 0.  0.
          2    1    1    2  502    0  0.88310431766E+01 -0.30645445428E+02  0.89642722928E+02  0.95146983258E+02  0.00000000000E+00 0. -1.
         -2    1    1    2    0  501 -0.13182189806E+03 -0.14497557117E+03 -0.51000737678E+03  0.54635378046E+03  0.00000000000E+00 0.  1.
<mgrwt>
<rscale>  0 0.79385851E+02</rscale>
<asrwt>0</asrwt>
<pdfrwt beam="1">  1        1 0.42727010E-01 0.31892486E+02</pdfrwt>
<pdfrwt beam="2">  1       -1 0.95854330E-01 0.19760496E+03</pdfrwt>
<totfact> 0.10839380E+02</totfact>
</mgrwt>
</event>
<event>
 5    1  0.8459321E-003  0.1351560E+03  0.7546771E-02  0.1253767E+00
          1   -1    0    0  502    0  0.00000000000E+00  0.00000000000E+00  0.33260047591E+04  0.33260047591E+04  0.00000000000E+00 0. -1.
         -1   -1    0    0    0  501 -0.00000000000E+00 -0.00000000000E+00 -0.38933161578E+02  0.38933161578E+02  0.00000000000E+00 0.  1.
         25    1    1    2    0    0  0.89837066038E+02 -0.56218291997E+01  0.93908652615E+03  0.95163585840E+03  0.12500000000E+03 0.  0.
          2    1    1    2  502    0 -0.14111379837E+03 -0.75236094959E+02  0.23011766195E+04  0.23067265569E+04  0.00000000000E+00 0. -1.
         -2    1    1    2    0  501  0.51276732327E+02  0.80857924158E+02  0.46808451813E+02  0.10657550534E+03  0.00000000000E+00 0.  1.
<mgrwt>
<rscale>  0 0.11375697E+03</rscale>
<asrwt>0</asrwt>
<pdfrwt beam="1">  1        1 0.51169282E+00 0.13515595E+03</pdfrwt>
<pdfrwt beam="2">  1       -1 0.59897198E-02 0.95746056E+02</pdfrwt>
<totfact> 0.58959694E+01</totfact>
</mgrwt>
</event>
<event>
 5    1  0.8459321E-003  0.5981503E+02  0.7546771E-02  0.1402016E+00
         -2   -1    0    0    0  501  0.00000000000E+00  0.00000000000E+00  0.13872826123E+03  0.13872826123E+03  0.00000000000E+00 0.  1.
         -3   -1    0    0    0  502 -0.00000000000E+00 -0.00000000000E+00 -0.13627010350E+03  0.13627010350E+03  0.00000000000E+00 0.  1.
         25    1    1    2    0    0  0.30972113466E+02 -0.18441154935E+02 -0.19150768422E+02  0.13149562707E+03  0.12500000000E+03 0.  0.
         -2    1    1    2    0  502 -0.80528106136E+02 -0.15055726401E+02  0.94768976828E+01  0.82469766370E+02  0.00000000000E+00 0.  1.
         -1    1    1    2    0  501  0.49555992670E+02  0.33496881336E+02  0.12132028469E+02  0.61032971282E+02  0.00000000000E+00 0.  1.
<mgrwt>
<rscale>  0 0.59014232E+02</rscale>
<asrwt>0</asrwt>
<pdfrwt beam="1">  1       -2 0.21342810E-01 0.59815027E+02</pdfrwt>
<pdfrwt beam="2">  1       -3 0.20964631E-01 0.58224158E+02</pdfrwt>
<totfact> 0.13159833E+03</totfact>
</mgrwt>
</event>
<event>
 5    1  0.8459321E-003  0.9168684E+02  0.7546771E-02  0.1415214E+00
          2   -1    0    0  502    0  0.00000000000E+00  0.00000000000E+00  0.42615616150E+03  0.42615616150E+03  0.00000000000E+00 0. -1.
          1   -1    0    0  501    0 -0.00000000000E+00 -0.00000000000E+00 -0.40487701641E+03  0.40487701641E+03  0.00000000000E+00 0. -1.
         25    1    1    2    0    0  0.76968570175E+02  0.63210191690E+02  0.53653114101E+02  0.16859224710E+03  0.12500000000E+03 0.  0.
          2    1    1    2  501    0  0.92822446225E+01 -0.32978765299E+02 -0.33989937544E+03  0.34162163932E+03  0.00000000000E+00 0. -1.
          1    1    1    2  502    0 -0.86250814798E+02 -0.30231426391E+02  0.30752540643E+03  0.32081929150E+03  0.00000000000E+00 0. -1.
<mgrwt>
<rscale>  0 0.56046468E+02</rscale>
<asrwt>0</asrwt>
<pdfrwt beam="1">  1        2 0.65562487E-01 0.91686844E+02</pdfrwt>
<pdfrwt beam="2">  1        1 0.62288771E-01 0.34260167E+02</pdfrwt>
<totfact> 0.62658728E+02</totfact>
</mgrwt>
</event>
<event>
 5    1  0.8459321E-003  0.7454615E+02  0.7546771E-02  0.1486256E+00
          2   -1    0    0  502    0  0.00000000000E+00  0.00000000000E+00  0.11844866646E+04  0.11844866646E+04  0.00000000000E+00 0. -1.
          1   -1    0    0  501    0 -0.00000000000E+00 -0.00000000000E+00 -0.83480860530E+02  0.83480860530E+02  0.00000000000E+00 0. -1.
         25    1    1    2    0    0 -0.46995568478E+02 -0.70162013952E+02  0.12516771657E+03  0.19601849130E+03  0.12500000000E+03 0.  0.
          2    1    1    2  501    0  0.24960121734E+02 -0.79157044185E+00 -0.43364995903E+02  0.50041554037E+02  0.00000000000E+00 0. -1.
          1    1    1    2  502    0  0.22035446743E+02  0.70953584394E+02  0.10192030834E+04  0.10219074798E+04  0.00000000000E+00 0. -1.
<mgrwt>
<rscale>  0 0.43146455E+02</rscale>
<asrwt>0</asrwt>
<pdfrwt beam="1">  1        2 0.18222871E+00 0.74546155E+02</pdfrwt>
<pdfrwt beam="2">  1        1 0.12843210E-01 0.24972670E+02</pdfrwt>
<totfact> 0.11976849E+03</totfact>
</mgrwt>
</event>
<event>
 5    1  0.8459321E-003  0.6330009E+02  0.7546771E-02  0.1452404E+00
          2   -1    0    0  502    0  0.00000000000E+00  0.00000000000E+00  0.10391170241E+03  0.10391170241E+03  0.00000000000E+00 0. -1.
          1   -1    0    0  501    0 -0.00000000000E+00 -0.00000000000E+00 -0.42152467933E+03  0.42152467933E+03  0.00000000000E+00 0. -1.
         25    1    1    2    0    0 -0.33567142703E+02 -0.16965881396E+02 -0.13515307142E+03  0.18789876773E+03  0.12500000000E+03 0.  0.
          2    1    1    2  501    0  0.68236393603E+02  0.27022185761E+01 -0.25061496761E+03  0.25975251566E+03  0.00000000000E+00 0. -1.
          1    1    1    2  502    0 -0.34669250900E+02  0.14263662820E+02  0.68155062113E+02  0.77785098358E+02  0.00000000000E+00 0. -1.
<mgrwt>
<rscale>  0 0.48713896E+02</rscale>
<asrwt>0</asrwt>
<pdfrwt beam="1">  1        2 0.15986416E-01 0.37488785E+02</pdfrwt>
<pdfrwt beam="2">  1        1 0.64849951E-01 0.63300095E+02</pdfrwt>
<totfact> 0.25826258E+03</totfact>
</mgrwt>
</event>
<event>
 5    1  0.8459321E-003  0.8582062E+02  0.7546771E-02  0.1352529E+00
          1   -1    0    0  501    0 -0.00000000000E+00  0.00000000000E+00  0.21723873284E+03  0.21723873284E+03  0.00000000000E+00 0. -1.
          2   -1    0    0  502    0  0.00000000000E+00 -0.00000000000E+00 -0.16925770818E+04  0.16925770818E+04  0.00000000000E+00 0. -1.
         25    1    1    2    0    0  0.54289104281E+02 -0.10799601069E+03 -0.37885233744E+03  0.41685073917E+03  0.12500000000E+03 0.  0.
          2    1    1    2  501    0  0.21861275662E+01  0.85302043487E+02  0.18830326420E+03  0.20673494404E+03  0.00000000000E+00 0. -1.
          1    1    1    2  502    0 -0.56475231847E+02  0.22693967205E+02 -0.12847892757E+04  0.12862301314E+04  0.00000000000E+00 0. -1.
<mgrwt>
<rscale>  0 0.72273202E+02</rscale>
<asrwt>0</asrwt>
<pdfrwt beam="2">  1        2 0.26039646E+00 0.60864341E+02</pdfrwt>
<pdfrwt beam="1">  1        1 0.33421345E-01 0.85820624E+02</pdfrwt>
<totfact> 0.21954786E+02</totfact>
</mgrwt>
</event>
<event>
 5    1  0.8459321E-003  0.7521575E+02  0.7546771E-02  0.1447123E+00
          1   -1    0    0  501    0 -0.00000000000E+00  0.00000000000E+00  0.23416235206E+04  0.23416235206E+04  0.00000000000E+00 0. -1.
          2   -1    0    0  502    0  0.00000000000E+00 -0.00000000000E+00 -0.21893403716E+02  0.21893403716E+02  0.00000000000E+00 0. -1.
         25    1    1    2    0    0  0.34219835360E+02  0.58940754920E+02  0.78103397931E+03  0.79390433086E+03  0.12500000000E+03 0.  0.
          2    1    1    2  501    0 -0.63395805118E+02 -0.43949728265E+02  0.15346208968E+04  0.15365584609E+04  0.00000000000E+00 0. -1.
          1    1    1    2  502    0  0.29175969758E+02 -0.14991026655E+02  0.40752407183E+01  0.33054132547E+02  0.00000000000E+00 0. -1.
<mgrwt>
<rscale>  0 0.49671152E+02</rscale>
<asrwt>0</asrwt>
<pdfrwt beam="2">  1        2 0.33682178E-02 0.32801953E+02</pdfrwt>
<pdfrwt beam="1">  1        1 0.36024957E+00 0.75215748E+02</pdfrwt>
<totfact> 0.69112570E+02</totfact>
</mgrwt>
</event>
<event>
 5    1  0.8459321E-003  0.8141893E+02  0.7546771E-02  0.1330133E+00
          2   -1    0    0  502    0  0.00000000000E+00  0.00000000000E+00  0.39009161085E+03  0.39009161085E+03  0.00000000000E+00 0. -1.
         -2   -1    0    0    0  501 -0.00000000000E+00 -0.00000000000E+00 -0.12188702211E+04  0.12188702211E+04  0.00000000000E+00 0.  1.
         25    1    1    2    0    0 -0.24222636031E+01 -0.41034549339E+01  0.21144834256E+03  0.24567887022E+03  0.12500000000E+03 0.  0.
          1    1    1    2  502    0 -0.69766997537E+02 -0.34567871446E+02  0.15065647227E+03  0.16958698157E+03  0.00000000000E+00 0. -1.
         -1    1    1    2    0  501  0.72189261140E+02  0.38671326380E+02 -0.11908834251E+04  0.11936959802E+04  0.00000000000E+00 0.  1.
<mgrwt>
<rscale>  0 0.79620214E+02</rscale>
<asrwt>0</asrwt>
<pdfrwt beam="1">  1        2 0.60014093E-01 0.77861233E+02</pdfrwt>
<pdfrwt beam="2">  1       -2 0.18751850E+00 0.81418932E+02</pdfrwt>
<totfact> 0.15620910E+01</totfact>
</mgrwt>
</event>
<event>
 5    1  0.8459321E-003  0.9267699E+02  0.7546771E-02  0.1457260E+00
         -1   -1    0    0    0  501 -0.00000000000E+00  0.00000000000E+00  0.10400897235E+03  0.10400897235E+03  0.00000000000E+00 0.  1.
          1   -1    0    0  502    0  0.00000000000E+00 -0.00000000000E+00 -0.31883301827E+03  0.31883301827E+03  0.00000000000E+00 0. -1.
         25    1    1    2    0    0  0.91626917260E+02 -0.60048471472E+02 -0.95123081754E+00  0.16621436681E+03  0.12500000000E+03 0.  0.
          2    1    1    2  502    0 -0.66958566447E+02  0.61513218856E+02 -0.21334241053E+03  0.23191013312E+03  0.00000000000E+00 0. -1.
         -2    1    1    2    0  501 -0.24668350813E+02 -0.14647473844E+01 -0.53040457622E+00  0.24717490684E+02  0.00000000000E+00 0.  1.
<mgrwt>
<rscale>  0 0.47856192E+02</rscale>
<asrwt>0</asrwt>
<pdfrwt beam="2">  1        1 0.49051233E-01 0.92676987E+02</pdfrwt>
<pdfrwt beam="1">  1       -1 0.16001381E-01 0.24711799E+02</pdfrwt>
<totfact> 0.20864799E+03</totfact>
</mgrwt>
</event>
<event>
 5    1  0.8459321E-003  0.7939812E+02  0.7546771E-02  0.1409512E+00
          1   -1    0    0  501    0 -0.00000000000E+00  0.00000000000E+00  0.25500049744E+03  0.25500049744E+03  0.00000000000E+00 0. -1.
          2   -1    0    0  502    0  0.00000000000E+00 -0.00000000000E+00 -0.83583881552E+03  0.83583881552E+03  0.00000000000E+00 0. -1.
         25    1    1    2    0    0  0.68784990976E+02  0.67854691947E+02 -0.47786115922E+03  0.50330102493E+03  0.12500000000E+03 0.  0.
          2    1    1    2  501    0  0.21168566852E+01 -0.41302084987E+02  0.23631249681E+03  0.23990402134E+03  0.00000000000E+00 0. -1.
          1    1    1    2  502    0 -0.70901847661E+02 -0.26552606960E+02 -0.33928965567E+03  0.34763426669E+03  0.00000000000E+00 0. -1.
<mgrwt>
<rscale>  0 0.57302812E+02</rscale>
<asrwt>0</asrwt>
<pdfrwt beam="2">  1        2 0.12859059E+00 0.79398121E+02</pdfrwt>
<pdfrwt beam="1">  1        1 0.39230846E-01 0.41356297E+02</pdfrwt>
<totfact> 0.50954529E+02</totfact>
</mgrwt>
</event>
<event>
 5    1  0.8459321E-003  0.6671517E+02  0.7546771E-02  0.1385815E+00
          1   -1    0    0  501    0 -0.00000000000E+00  0.00000000000E+00  0.56307031552E+03  0.56307031552E+03  0.00000000000E+00 0. -1.
          2   -1    0    0  502    0  0.00000000000E+00 -0.00000000000E+00 -0.36380128679E+04  0.36380128679E+04  0.00000000000E+00 0. -1.
         25    1    1    2    0    0  0.11503184615E+03 -0.32940243242E+01 -0.59046920595E+03  0.61442823779E+03  0.12500000000E+03 0.  0.
          2    1    1    2  501    0 -0.60705280984E+02  0.27352660864E+02  0.54878766091E+03  0.55281208016E+03  0.00000000000E+00 0. -1.
          1    1    1    2  502    0 -0.54326565170E+02 -0.24058636539E+02 -0.30332610073E+04  0.30338428654E+04  0.00000000000E+00 0. -1.
<mgrwt>
<rscale>  0 0.62959596E+02</rscale>
<asrwt>0</asrwt>
<pdfrwt beam="2">  1        2 0.55969430E+00 0.59415433E+02</pdfrwt>
<pdfrwt beam="1">  1        1 0.86626201E-01 0.66715171E+02</pdfrwt>
<totfact> 0.60227733E+00</totfact>
</mgrwt>
</event>
<event>
 5    1  0.8459321E-003  0.5430680E+02  0.7546771E-02  0.1459418E+00
          1   -1    0    0  501    0 -0.00000000000E+00  0.00000000000E+00  0.56518091498E+03  0.56518091498E+03  0.00000000000E+00 0. -1.
          2   -1    0    0  502    0  0.00000000000E+00 -0.00000000000E+00 -0.92544892363E+02  0.92544892363E+02  0.00000000000E+00 0. -1.
         25    1    1    2    0    0 -0.12189249282E+01 -0.92194785378E+02  0.24124881152E+03  0.28692743558E+03  0.12500000000E+03 0.  0.
          2    1    1    2  501    0  0.38723259430E+00  0.50688819656E+02  0.29253246590E+03  0.29689181530E+03  0.00000000000E+00 0. -1.
          1    1    1    2  502    0  0.83169233386E+00  0.41505965723E+02 -0.61145254804E+02  0.73906556460E+02  0.00000000000E+00 0. -1.
<mgrwt>
<rscale>  0 0.47481666E+02</rscale>
<asrwt>0</asrwt>
<pdfrwt beam="2">  1        2 0.14237676E-01 0.41514298E+02</pdfrwt>
<pdfrwt beam="1">  1        1 0.86950908E-01 0.54306799E+02</pdfrwt>
<totfact> 0.20533734E+03</totfact>
</mgrwt>
</event>
<event>
 5    1  0.1114865E-002  0.1041091E+03  0.7546771E-02  0.1319701E+00
          1   -1    0    0  501    0 -0.00000000000E+00  0.00000000000E+00  0.23521051542E+04  0.23521051542E+04  0.00000000000E+00 0. -1.
          2   -1    0    0  502    0  0.00000000000E+00 -0.00000000000E+00 -0.10851070526E+04  0.10851070526E+04  0.00000000000E+00 0. -1.
         25    1    1    2    0    0  0.16060071538E+03  0.23569753465E+02  0.93375088277E+03  0.95596225560E+03  0.12500000000E+03 0.  0.
          2    1    1    2  501    0 -0.94218372919E+02 -0.16184783979E+02  0.14045838018E+04  0.14078333372E+04  0.00000000000E+00 0. -1.
          1    1    1    2  502    0 -0.66382342466E+02 -0.73849694856E+01 -0.10713365830E+04  0.10734166140E+04  0.00000000000E+00 0. -1.
<mgrwt>
<rscale>  0 0.83388511E+02</rscale>
<asrwt>0</asrwt>
<pdfrwt beam="2">  1        2 0.16693955E+00 0.66791865E+02</pdfrwt>
<pdfrwt beam="1">  1        1 0.36186233E+00 0.10410914E+03</pdfrwt>
<totfact> 0.78307511E+00</totfact>
</mgrwt>
</event>
<event>
 5    1  0.8459321E-003  0.9980816E+02  0.7546771E-02  0.1328972E+00
          2   -1    0    0  502    0  0.00000000000E+00  0.00000000000E+00  0.55983710276E+03  0.55983710276E+03  0.00000000000E+00 0. -1.
          3   -1    0    0  501    0 -0.00000000000E+00 -0.00000000000E+00 -0.86798438914E+02  0.86798438914E+02  0.00000000000E+00 0. -1.
         25    1    1    2    0    0  0.35309868339E+02  0.41576275263E+02  0.13576879316E+03  0.19244100047E+03  0.12500000000E+03 0.  0.
          2    1    1    2  501    0 -0.90256883910E+02 -0.74717414222E+02  0.66003733920E+01  0.11735655930E+03  0.00000000000E+00 0. -1.
          1    1    1    2  502    0  0.54947015571E+02  0.33141138959E+02  0.33066949729E+03  0.33683798190E+03  0.00000000000E+00 0. -1.
<mgrwt>
<rscale>  0 0.80027947E+02</rscale>
<asrwt>0</asrwt>
<pdfrwt beam="1">  1        2 0.86128783E-01 0.64167824E+02</pdfrwt>
<pdfrwt beam="2">  1        3 0.13353606E-01 0.99808157E+02</pdfrwt>
<totfact> 0.14693170E+03</totfact>
</mgrwt>
</event>
<event>
 5    1  0.8459321E-003  0.7719437E+02  0.7546771E-02  0.1395599E+00
          1   -1    0    0  501    0 -0.00000000000E+00  0.00000000000E+00  0.82796967019E+02  0.82796967019E+02  0.00000000000E+00 0. -1.
          2   -1    0    0  502    0  0.00000000000E+00 -0.00000000000E+00 -0.31469250297E+04  0.31469250297E+04  0.00000000000E+00 0. -1.
         25    1    1    2    0    0  0.61587173154E+02 -0.39671342183E+02 -0.44194664703E+03  0.46508992045E+03  0.12500000000E+03 0.  0.
          2    1    1    2  501    0 -0.77874703689E+02 -0.49183740865E+01  0.49579910423E+02  0.92449052974E+02  0.00000000000E+00 0. -1.
          1    1    1    2  502    0  0.16287530535E+02  0.44589716270E+02 -0.26717613261E+04  0.26721830233E+04  0.00000000000E+00 0. -1.
<mgrwt>
<rscale>  0 0.60535269E+02</rscale>
<asrwt>0</asrwt>
<pdfrwt beam="2">  1        2 0.48414235E+00 0.47471322E+02</pdfrwt>
<pdfrwt beam="1">  1        1 0.12737994E-01 0.77194369E+02</pdfrwt>
<totfact> 0.13487335E+02</totfact>
</mgrwt>
</event>
<event>
 5    1  0.8459321E-003  0.6832620E+02  0.7546771E-02  0.1447999E+00
         -2   -1    0    0    0  501  0.00000000000E+00  0.00000000000E+00  0.28300939669E+03  0.28300939669E+03  0.00000000000E+00 0.  1.
         -1   -1    0    0    0  502 -0.00000000000E+00 -0.00000000000E+00 -0.81796736471E+02  0.81796736471E+02  0.00000000000E+00 0.  1.
         25    1    1    2    0    0 -0.17811878215E+02 -0.62722729574E+02  0.51596300214E+02  0.15012855160E+03  0.12500000000E+03 0.  0.
         -2    1    1    2    0  502  0.35532950776E+02 -0.49538015768E+01 -0.12595206483E+02  0.38023281911E+02  0.00000000000E+00 0.  1.
         -3    1    1    2    0  501 -0.17721072561E+02  0.67676531150E+02  0.16221156649E+03  0.17665429965E+03  0.00000000000E+00 0.  1.
<mgrwt>
<rscale>  0 0.49510726E+02</rscale>
<asrwt>0</asrwt>
<pdfrwt beam="1">  1       -2 0.43539907E-01 0.68326199E+02</pdfrwt>
<pdfrwt beam="2">  1       -1 0.12584113E-01 0.35876604E+02</pdfrwt>
<totfact> 0.14019536E+03</totfact>
</mgrwt>
</event>
<event>
 5    1  0.8459321E-003  0.1048337E+03  0.7546771E-02  0.1370627E+00
          2   -1    0    0  502    0  0.00000000000E+00  0.00000000000E+00  0.17695346919E+03  0.17695346919E+03  0.00000000000E+00 0. -1.
          1   -1    0    0  501    0 -0.00000000000E+00 -0.00000000000E+00 -0.13787561497E+04  0.13787561497E+04  0.00000000000E+00 0. -1.
         25    1    1    2    0    0 -0.78526228461E+02 -0.99795519623E+02 -0.44869152142E+03  0.48277799835E+03  0.12500000000E+03 0.  0.
          2    1    1    2  501    0  0.35940947814E+02  0.95399738041E+02 -0.90724904540E+03  0.91295875708E+03  0.00000000000E+00 0. -1.
          1    1    1    2  502    0  0.42585280648E+02  0.43957815827E+01  0.15413788635E+03  0.15997286342E+03  0.00000000000E+00 0. -1.
<mgrwt>
<rscale>  0 0.66993247E+02</rscale>
<asrwt>0</asrwt>
<pdfrwt beam="1">  1        2 0.27223610E-01 0.42811552E+02</pdfrwt>
<pdfrwt beam="2">  1        1 0.21211634E+00 0.10483374E+03</pdfrwt>
<totfact> 0.23764137E+02</totfact>
</mgrwt>
</event>
<event>
 5    1  0.8459321E-003  0.1262342E+03  0.7546771E-02  0.1311835E+00
          2   -1    0    0  502    0  0.00000000000E+00  0.00000000000E+00  0.30181163314E+04  0.30181163314E+04  0.00000000000E+00 0. -1.
          1   -1    0    0  501    0 -0.00000000000E+00 -0.00000000000E+00 -0.92169785062E+02  0.92169785062E+02  0.00000000000E+00 0. -1.
         25    1    1    2    0    0 -0.78658565563E+02 -0.68170554287E+02  0.20927089990E+03  0.26505415287E+03  0.12500000000E+03 0.  0.
          2    1    1    2  501    0  0.56330563295E+02  0.12291565079E+03  0.75055927109E+01  0.13541685084E+03  0.00000000000E+00 0. -1.
          1    1    1    2  502    0  0.22328002268E+02 -0.54745096504E+02  0.27091700538E+04  0.27098151128E+04  0.00000000000E+00 0. -1.
<mgrwt>
<rscale>  0 0.86390876E+02</rscale>
<asrwt>0</asrwt>
<pdfrwt beam="1">  1        2 0.46432551E+00 0.59123306E+02</pdfrwt>
<pdfrwt beam="2">  1        1 0.14179969E-01 0.12623420E+03</pdfrwt>
<totfact> 0.13679307E+02</totfact>
</mgrwt>
</event>
<event>
 5    1  0.8459321E-003  0.1174880E+03  0.7546771E-02  0.1320029E+00
          1   -1    0    0  501    0 -0.00000000000E+00  0.00000000000E+00  0.59474103723E+03  0.59474103723E+03  0.00000000000E+00 0. -1.
          2   -1    0    0  502    0  0.00000000000E+00 -0.00000000000E+00 -0.72414951989E+02  0.72414951989E+02  0.00000000000E+00 0. -1.
         25    1    1    2    0    0 -0.71381121434E+02  0.57291634076E+01  0.36657780373E+03  0.39386847297E+03  0.12500000000E+03 0.  0.
          2    1    1    2  501    0 -0.50306690184E+02  0.30851153959E+02  0.13121365584E+03  0.14387348698E+03  0.00000000000E+00 0. -1.
          1    1    1    2  502    0  0.12168781162E+03 -0.36580317367E+02  0.24534625673E+02  0.12941402927E+03  0.00000000000E+00 0. -1.
<mgrwt>
<rscale>  0 0.83266697E+02</rscale>
<asrwt>0</asrwt>
<pdfrwt beam="2">  1        2 0.11140762E-01 0.11748802E+03</pdfrwt>
<pdfrwt beam="1">  1        1 0.91498618E-01 0.59013192E+02</pdfrwt>
<totfact> 0.27155550E+03</totfact>
</mgrwt>
</event>
<event>
 5    1  0.8459321E-003  0.5048347E+02  0.7546771E-02  0.1533497E+00
         -2   -1    0    0    0  501 -0.00000000000E+00  0.00000000000E+00  0.53886248329E+02  0.53886248329E+02  0.00000000000E+00 0.  1.
          2   -1    0    0  502    0  0.00000000000E+00 -0.00000000000E+00 -0.11544494649E+04  0.11544494649E+04  0.00000000000E+00 0. -1.
         25    1    1    2    0    0 -0.12774044505E+02 -0.23395931477E+02 -0.69340954897E+02  0.14540878188E+03  0.12500000000E+03 0.  0.
          1    1    1    2  502    0  0.36839829730E+02  0.35117379677E+02 -0.10346844080E+04  0.10359354360E+04  0.00000000000E+00 0. -1.
         -1    1    1    2    0  501 -0.24065785225E+02 -0.11721448199E+02  0.34621462810E+01  0.26991495388E+02  0.00000000000E+00 0.  1.
<mgrwt>
<rscale>  0 0.36760964E+02</rscale>
<asrwt>0</asrwt>
<pdfrwt beam="2">  1        2 0.17760762E+00 0.50483470E+02</pdfrwt>
<pdfrwt beam="1">  1       -2 0.82901914E-02 0.26768533E+02</pdfrwt>
<totfact> 0.17452387E+03</totfact>
</mgrwt>
</event>
<event>
 5    1  0.8459321E-003  0.1018546E+03  0.7546771E-02  0.1324202E+00
          2   -1    0    0  502    0  0.00000000000E+00  0.00000000000E+00  0.17520657029E+03  0.17520657029E+03  0.00000000000E+00 0. -1.
          1   -1    0    0  501    0 -0.00000000000E+00 -0.00000000000E+00 -0.45494413234E+03  0.45494413234E+03  0.00000000000E+00 0. -1.
         25    1    1    2    0    0 -0.10918968382E+02 -0.13078443366E+03  0.91268158088E+02  0.20292527846E+03  0.12500000000E+03 0.  0.
          2    1    1    2  501    0 -0.20016288204E+02  0.62458781595E+02 -0.33966286824E+03  0.34593729959E+03  0.00000000000E+00 0. -1.
          1    1    1    2  502    0  0.30935256586E+02  0.68325652069E+02 -0.31342851904E+02  0.81288124570E+02  0.00000000000E+00 0. -1.
<mgrwt>
<rscale>  0 0.81733775E+02</rscale>
<asrwt>0</asrwt>
<pdfrwt beam="1">  1        2 0.26954858E-01 0.10185456E+03</pdfrwt>
<pdfrwt beam="2">  1        1 0.69991403E-01 0.65587737E+02</pdfrwt>
<totfact> 0.13797674E+03</totfact>
</mgrwt>
</event>
<event>
 5    1  0.8459321E-003  0.2883517E+02  0.7546771E-02  0.1617538E+00
          2   -1    0    0  502    0  0.00000000000E+00  0.00000000000E+00  0.20742078141E+03  0.20742078141E+03  0.00000000000E+00 0. -1.
          1   -1    0    0  501    0 -0.00000000000E+00 -0.00000000000E+00 -0.15722525601E+03  0.15722525601E+03  0.00000000000E+00 0. -1.
         25    1    1    2    0    0 -0.15962317667E+02  0.89708063063E+01  0.12002747485E+03  0.17426091263E+03  0.12500000000E+03 0.  0.
          2    1    1    2  501    0  0.22879184929E+02  0.17952432814E+02 -0.12514522312E+03  0.12847985763E+03  0.00000000000E+00 0. -1.
          1    1    1    2  502    0 -0.69168672619E+01 -0.26923239120E+02  0.55313273673E+02  0.61905267157E+02  0.00000000000E+00 0. -1.
<mgrwt>
<rscale>  0 0.28311606E+02</rscale>
<asrwt>0</asrwt>
<pdfrwt beam="1">  1        2 0.31910890E-01 0.27797551E+02</pdfrwt>
<pdfrwt beam="2">  1        1 0.24188501E-01 0.28835168E+02</pdfrwt>
<totfact> 0.39249584E+03</totfact>
</mgrwt>
</event>
<event>
 5    1  0.8459321E-003  0.1034312E+03  0.7546771E-02  0.1439120E+00
         -2   -1    0    0    0  501  0.00000000000E+00  0.00000000000E+00  0.20322116749E+02  0.20322116749E+02  0.00000000000E+00 0.  1.
         -1   -1    0    0    0  502 -0.00000000000E+00 -0.00000000000E+00 -0.10822814494E+04  0.10822814494E+04  0.00000000000E+00 0.  1.
         25    1    1    2    0    0  0.84175644545E+02 -0.21733348353E+02 -0.67834294422E+03  0.69522084803E+03  0.12500000000E+03 0.  0.
         -2    1    1    2    0  502  0.20272681664E+02 -0.15165177441E+02 -0.92524956899E+02  0.95926179314E+02  0.00000000000E+00 0.  1.
         -1    1    1    2    0  501 -0.10444832621E+03  0.36898525793E+02 -0.29109143158E+03  0.31145653885E+03  0.00000000000E+00 0.  1.
<mgrwt>
<rscale>  0 0.51172218E+02</rscale>
<asrwt>0</asrwt>
<pdfrwt beam="1">  1       -2 0.31264802E-02 0.10343121E+03</pdfrwt>
<pdfrwt beam="2">  1       -1 0.16650480E+00 0.25317271E+02</pdfrwt>
<totfact> 0.90653914E+02</totfact>
</mgrwt>
</event>
<event>
 5    1  0.8459321E-003  0.7424557E+02  0.7546771E-02  0.1348106E+00
         -1   -1    0    0    0  501 -0.00000000000E+00  0.00000000000E+00  0.72286028181E+03  0.72286028181E+03  0.00000000000E+00 0.  1.
          1   -1    0    0  502    0  0.00000000000E+00 -0.00000000000E+00 -0.51348062128E+03  0.51348062128E+03  0.00000000000E+00 0. -1.
         25    1    1    2    0    0  0.49334719883E+02 -0.14647860228E+02  0.25370568133E+03  0.28747181972E+03  0.12500000000E+03 0.  0.
          2    1    1    2  502    0  0.13539765664E+02  0.71791880073E+02 -0.48987441355E+03  0.49529217675E+03  0.00000000000E+00 0. -1.
         -2    1    1    2    0  501 -0.62874485548E+02 -0.57144019845E+02  0.44554839275E+03  0.45357690662E+03  0.00000000000E+00 0.  1.
<mgrwt>
<rscale>  0 0.73649142E+02</rscale>
<asrwt>0</asrwt>
<pdfrwt beam="2">  1        1 0.78997018E-01 0.73057507E+02</pdfrwt>
<pdfrwt beam="1">  1       -1 0.11120927E+00 0.74245569E+02</pdfrwt>
<totfact> 0.38422813E+01</totfact>
</mgrwt>
</event>
<event>
 5    1  0.8459321E-003  0.4578932E+02  0.7546771E-02  0.1569209E+00
          2   -1    0    0  502    0  0.00000000000E+00  0.00000000000E+00  0.42375378326E+03  0.42375378326E+03  0.00000000000E+00 0. -1.
          1   -1    0    0  501    0 -0.00000000000E+00 -0.00000000000E+00 -0.53226068639E+02  0.53226068639E+02  0.00000000000E+00 0. -1.
         25    1    1    2    0    0 -0.99086271836E+01 -0.65890824615E+02  0.20386679488E+03  0.24824675570E+03  0.12500000000E+03 0.  0.
          2    1    1    2  501    0  0.12429647210E+02  0.42554207690E+02 -0.14048973788E+02  0.46505165158E+02  0.00000000000E+00 0. -1.
          1    1    1    2  502    0 -0.25210200267E+01  0.23336616925E+02  0.18070989353E+03  0.18222793104E+03  0.00000000000E+00 0. -1.
<mgrwt>
<rscale>  0 0.32783911E+02</rscale>
<asrwt>0</asrwt>
<pdfrwt beam="1">  1        2 0.65192888E-01 0.23472393E+02</pdfrwt>
<pdfrwt beam="2">  1        1 0.81886262E-02 0.45789316E+02</pdfrwt>
<totfact> 0.76043282E+03</totfact>
</mgrwt>
</event>
<event>
 5    1  0.8459321E-003  0.5791981E+02  0.7546771E-02  0.1505733E+00
          2   -1    0    0  502    0  0.00000000000E+00  0.00000000000E+00  0.29791232714E+04  0.29791232714E+04  0.00000000000E+00 0. -1.
         -2   -1    0    0    0  501 -0.00000000000E+00 -0.00000000000E+00 -0.40357020939E+02  0.40357020939E+02  0.00000000000E+00 0.  1.
         25    1    1    2    0    0  0.31569787618E+02 -0.78786373318E+02  0.45148576151E+03  0.47609698272E+03  0.12500000000E+03 0.  0.
          1    1    1    2  502    0 -0.24951522122E+02  0.51482651873E+02  0.25078885383E+04  0.25085410028E+04  0.00000000000E+00 0. -1.
         -1    1    1    2    0  501 -0.66182654952E+01  0.27303721445E+02 -0.20608049417E+02  0.34842306808E+02  0.00000000000E+00 0.  1.
<mgrwt>
<rscale>  0 0.40338834E+02</rscale>
<asrwt>0</asrwt>
<pdfrwt beam="1">  1        2 0.45832648E+00 0.57919807E+02</pdfrwt>
<pdfrwt beam="2">  1       -2 0.62087748E-02 0.28094388E+02</pdfrwt>
<totfact> 0.31180027E+02</totfact>
</mgrwt>
</event>
<event>
 5    1  0.8459321E-003  0.1189038E+03  0.7546771E-02  0.1404090E+00
          1   -1    0    0  501    0 -0.00000000000E+00  0.00000000000E+00  0.31768761510E+03  0.31768761510E+03  0.00000000000E+00 0. -1.
          2   -1    0    0  502    0  0.00000000000E+00 -0.00000000000E+00 -0.22008640682E+04  0.22008640682E+04  0.00000000000E+00 0. -1.
         25    1    1    2    0    0  0.11347687028E+03  0.86473825053E+02 -0.16841658941E+02  0.19042941996E+03  0.12500000000E+03 0.  0.
          2    1    1    2  501    0 -0.97129942198E+02 -0.62744668336E+02  0.21631025110E+03  0.24527789099E+03  0.00000000000E+00 0. -1.
          1    1    1    2  502    0 -0.16346928084E+02 -0.23729156717E+02 -0.20826450453E+04  0.20828443724E+04  0.00000000000E+00 0. -1.
<mgrwt>
<rscale>  0 0.58533708E+02</rscale>
<asrwt>0</asrwt>
<pdfrwt beam="2">  1        2 0.33859447E+00 0.28814839E+02</pdfrwt>
<pdfrwt beam="1">  1        1 0.48875018E-01 0.11890384E+03</pdfrwt>
<totfact> 0.85646072E+01</totfact>
</mgrwt>
</event>
<event>
 5    1  0.8459321E-003  0.9061519E+02  0.7546771E-02  0.1349611E+00
         -1   -1    0    0    0  502 -0.00000000000E+00  0.00000000000E+00  0.25199171149E+03  0.25199171149E+03  0.00000000000E+00 0.  1.
         -2   -1    0    0    0  501  0.00000000000E+00 -0.00000000000E+00 -0.12030696441E+04  0.12030696441E+04  0.00000000000E+00 0.  1.
         25    1    1    2    0    0  0.88072095925E+02 -0.90118952369E+02 -0.29051539702E+03  0.34044429142E+03  0.12500000000E+03 0.  0.
         -2    1    1    2    0  502 -0.53775314962E+01  0.58849560190E+02  0.22093269181E+03  0.22869945975E+03  0.00000000000E+00 0.  1.
         -1    1    1    2    0  501 -0.82694564429E+02  0.31269392180E+02 -0.88149522742E+03  0.88591760443E+03  0.00000000000E+00 0.  1.
<mgrwt>
<rscale>  0 0.73177053E+02</rscale>
<asrwt>0</asrwt>
<pdfrwt beam="2">  1       -2 0.18508764E+00 0.90615187E+02</pdfrwt>
<pdfrwt beam="1">  1       -1 0.38767956E-01 0.59094742E+02</pdfrwt>
<totfact> 0.93377662E+00</totfact>
</mgrwt>
</event>
<event>
 5    1  0.8459321E-003  0.7468500E+02  0.7546771E-02  0.1376830E+00
          1   -1    0    0  501    0 -0.00000000000E+00  0.00000000000E+00  0.66965232606E+03  0.66965232606E+03  0.00000000000E+00 0. -1.
          2   -1    0    0  502    0  0.00000000000E+00 -0.00000000000E+00 -0.22005612211E+03  0.22005612211E+03  0.00000000000E+00 0. -1.
         25    1    1    2    0    0 -0.26968357031E+01  0.60991719731E+02  0.28422004228E+03  0.31643845409E+03  0.12500000000E+03 0.  0.
          2    1    1    2  501    0  0.56526083741E+02 -0.80893510916E+01  0.36001247766E+03  0.36451285274E+03  0.00000000000E+00 0. -1.
          1    1    1    2  502    0 -0.53829248038E+02 -0.52902368640E+02 -0.19463631599E+03  0.20875714133E+03  0.00000000000E+00 0. -1.
<mgrwt>
<rscale>  0 0.65304375E+02</rscale>
<asrwt>0</asrwt>
<pdfrwt beam="2">  1        2 0.33854788E-01 0.74685005E+02</pdfrwt>
<pdfrwt beam="1">  1        1 0.10302343E+00 0.57101977E+02</pdfrwt>
<totfact> 0.65381672E+02</totfact>
</mgrwt>
</event>
<event>
 5    1  0.8459321E-003  0.3623604E+02  0.7546771E-02  0.1603444E+00
          1   -1    0    0  501    0 -0.00000000000E+00  0.00000000000E+00  0.10636175747E+03  0.10636175747E+03  0.00000000000E+00 0. -1.
          2   -1    0    0  502    0  0.00000000000E+00 -0.00000000000E+00 -0.19699589508E+03  0.19699589508E+03  0.00000000000E+00 0. -1.
         25    1    1    2    0    0 -0.53712727128E+02  0.21780247438E+02 -0.66863082622E+02  0.15315060578E+03  0.12500000000E+03 0.  0.
          2    1    1    2  501    0  0.34511974397E+02 -0.72974539814E+01  0.56390824966E+02  0.66515068606E+02  0.00000000000E+00 0. -1.
          1    1    1    2  502    0  0.19200752732E+02 -0.14482793457E+02 -0.80161879948E+02  0.83691978162E+02  0.00000000000E+00 0. -1.
<mgrwt>
<rscale>  0 0.29521012E+02</rscale>
<asrwt>0</asrwt>
<pdfrwt beam="2">  1        2 0.30307061E-01 0.24050368E+02</pdfrwt>
<pdfrwt beam="1">  1        1 0.16363347E-01 0.36236041E+02</pdfrwt>
<totfact> 0.66773762E+03</totfact>
</mgrwt>
</event>
<event>
 5    1  0.8459321E-003  0.6306923E+02  0.7546771E-02  0.1413313E+00
          2   -1    0    0  502    0  0.00000000000E+00  0.00000000000E+00  0.27409483158E+04  0.27409483158E+04  0.00000000000E+00 0. -1.
          1   -1    0    0  501    0 -0.00000000000E+00 -0.00000000000E+00 -0.22831398094E+04  0.22831398094E+04  0.00000000000E+00 0. -1.
         25    1    1    2    0    0  0.26262018557E+02 -0.10542482607E+03 -0.29972014382E+03  0.34243430345E+03  0.12500000000E+03 0.  0.
          2    1    1    2  501    0 -0.27491589901E+02  0.42415164813E+02 -0.19613718489E+04  0.19620230282E+04  0.00000000000E+00 0. -1.
          1    1    1    2  502    0  0.12295713445E+01  0.63009661255E+02  0.27189004991E+04  0.27196307935E+04  0.00000000000E+00 0. -1.
<mgrwt>
<rscale>  0 0.56461111E+02</rscale>
<asrwt>0</asrwt>
<pdfrwt beam="1">  1        2 0.42168436E+00 0.63069229E+02</pdfrwt>
<pdfrwt beam="2">  1        1 0.35125228E+00 0.50545363E+02</pdfrwt>
<totfact> 0.13874726E+00</totfact>
</mgrwt>
</event>
<event>
 5    1  0.8459321E-003  0.1133794E+03  0.7546771E-02  0.1308101E+00
          1   -1    0    0  501    0 -0.00000000000E+00  0.00000000000E+00  0.15176357071E+03  0.15176357071E+03  0.00000000000E+00 0. -1.
          2   -1    0    0  502    0  0.00000000000E+00 -0.00000000000E+00 -0.74057841588E+03  0.74057841588E+03  0.00000000000E+00 0. -1.
         25    1    1    2    0    0 -0.41032721850E+01  0.79543325683E+02  0.32740138641E+01  0.14825551143E+03  0.12500000000E+03 0.  0.
          2    1    1    2  501    0  0.28966567604E+01 -0.14762768075E+03  0.44086724648E+00  0.14765675436E+03  0.00000000000E+00 0. -1.
          1    1    1    2  502    0  0.12066154246E+01  0.68084355066E+02 -0.59252972628E+03  0.59642972079E+03  0.00000000000E+00 0. -1.
<mgrwt>
<rscale>  0 0.87866792E+02</rscale>
<asrwt>0</asrwt>
<pdfrwt beam="2">  1        2 0.11393514E+00 0.68095046E+02</pdfrwt>
<pdfrwt beam="1">  1        1 0.23348241E-01 0.11337936E+03</pdfrwt>
<totfact> 0.11380080E+03</totfact>
</mgrwt>
</event>
<event>
 5    1  0.8459321E-003  0.9506640E+02  0.7546771E-02  0.1314321E+00
          1   -1    0    0  501    0 -0.00000000000E+00  0.00000000000E+00  0.19839095561E+04  0.19839095561E+04  0.00000000000E+00 0. -1.
          2   -1    0    0  502    0  0.00000000000E+00 -0.00000000000E+00 -0.13841810112E+03  0.13841810112E+03  0.00000000000E+00 0. -1.
         25    1    1    2    0    0 -0.97357827639E+01  0.16865534328E+03  0.47039700330E+03  0.51520651296E+03  0.12500000000E+03 0.  0.
          2    1    1    2  501    0  0.12247379509E+01 -0.76754126368E+02  0.14715915062E+04  0.14735922968E+04  0.00000000000E+00 0. -1.
          1    1    1    2  502    0  0.85110448131E+01 -0.91901216914E+02 -0.96497054598E+02  0.13352884745E+03  0.00000000000E+00 0. -1.
<mgrwt>
<rscale>  0 0.85426384E+02</rscale>
<asrwt>0</asrwt>
<pdfrwt beam="2">  1        2 0.21295094E-01 0.95066396E+02</pdfrwt>
<pdfrwt beam="1">  1        1 0.30521683E+00 0.76763897E+02</pdfrwt>
<totfact> 0.13660136E+02</totfact>
</mgrwt>
</event>
<event>
 5    1  0.8459321E-003  0.6950805E+02  0.7546771E-02  0.1434497E+00
          2   -1    0    0  502    0  0.00000000000E+00  0.00000000000E+00  0.40806002767E+03  0.40806002767E+03  0.00000000000E+00 0. -1.
         -2   -1    0    0    0  501 -0.00000000000E+00 -0.00000000000E+00 -0.19325337838E+03  0.19325337838E+03  0.00000000000E+00 0.  1.
         25    1    1    2    0    0 -0.14056624121E+01  0.54526352349E+02  0.18017815710E+02  0.13756722237E+03  0.12500000000E+03 0.  0.
          1    1    1    2  502    0 -0.37132578466E+02 -0.60532982838E+02  0.32348193196E+03  0.33118519094E+03  0.00000000000E+00 0. -1.
         -1    1    1    2    0  501  0.38538240878E+02  0.60066304890E+01 -0.12669309838E+03  0.13256099274E+03  0.00000000000E+00 0.  1.
<mgrwt>
<rscale>  0 0.52067837E+02</rscale>
<asrwt>0</asrwt>
<pdfrwt beam="1">  1        2 0.62778466E-01 0.69508054E+02</pdfrwt>
<pdfrwt beam="2">  1       -2 0.29731289E-01 0.39003533E+02</pdfrwt>
<totfact> 0.78641840E+02</totfact>
</mgrwt>
</event>
<event>
 5    1  0.8459321E-003  0.4049890E+02  0.7546771E-02  0.1535461E+00
          2   -1    0    0  502    0  0.00000000000E+00  0.00000000000E+00  0.22714418820E+04  0.22714418820E+04  0.00000000000E+00 0. -1.
         -2   -1    0    0    0  501 -0.00000000000E+00 -0.00000000000E+00 -0.30845490130E+02  0.30845490130E+02  0.00000000000E+00 0.  1.
         25    1    1    2    0    0 -0.25024955322E+02  0.28716235237E+02  0.22921922395E+03  0.26385094880E+03  0.12500000000E+03 0.  0.
          3    1    1    2  502    0  0.30112807544E+02  0.13353789291E+02  0.19912508371E+04  0.19915232867E+04  0.00000000000E+00 0. -1.
         -1    1    1    2    0  501 -0.50878522220E+01 -0.42070024528E+02  0.20126330814E+02  0.46913136711E+02  0.00000000000E+00 0.  1.
<mgrwt>
<rscale>  0 0.36524941E+02</rscale>
<asrwt>0</asrwt>
<pdfrwt beam="1">  1        2 0.34945247E+00 0.32940930E+02</pdfrwt>
<pdfrwt beam="2">  1       -2 0.47454618E-02 0.40498896E+02</pdfrwt>
<totfact> 0.12234535E+03</totfact>
</mgrwt>
</event>
<event>
 5    1  0.8459321E-003  0.1541804E+03  0.7546771E-02  0.1339569E+00
         -2   -1    0    0    0  501  0.00000000000E+00  0.00000000000E+00  0.12689678821E+04  0.12689678821E+04  0.00000000000E+00 0.  1.
         -1   -1    0    0    0  502 -0.00000000000E+00 -0.00000000000E+00 -0.16504497500E+04  0.16504497500E+04  0.00000000000E+00 0.  1.
         25    1    1    2    0    0 -0.95538658365E+02 -0.88980951038E+02  0.51655464698E+03  0.54726497074E+03  0.12500000000E+03 0.  0.
         -2    1    1    2    0  502  0.13223236539E+03  0.79636876377E+02 -0.16309616503E+04  0.16382500833E+04  0.00000000000E+00 0.  1.
         -1    1    1    2    0  501 -0.36693707028E+02  0.93440746610E+01  0.73292513552E+03  0.73390257810E+03  0.00000000000E+00 0.  1.
<mgrwt>
<rscale>  0 0.76406825E+02</rscale>
<asrwt>0</asrwt>
<pdfrwt beam="1">  1       -2 0.19522583E+00 0.37864758E+02</pdfrwt>
<pdfrwt beam="2">  1       -1 0.25391535E+00 0.15418038E+03</pdfrwt>
<totfact> 0.10528412E-01</totfact>
</mgrwt>
</event>
<event>
 5    1  0.8459321E-003  0.7452634E+02  0.7546771E-02  0.1412569E+00
          1   -1    0    0  501    0 -0.00000000000E+00  0.00000000000E+00  0.13921717335E+04  0.13921717335E+04  0.00000000000E+00 0. -1.
          2   -1    0    0  502    0  0.00000000000E+00 -0.00000000000E+00 -0.62566900168E+02  0.62566900168E+02  0.00000000000E+00 0. -1.
         25    1    1    2    0    0  0.10963532647E+03 -0.34498882280E+02  0.57411919979E+03  0.59870521399E+03  0.12500000000E+03 0.  0.
          2    1    1    2  501    0 -0.42528645283E+02  0.65015996530E+01  0.77855957198E+03  0.77974737165E+03  0.00000000000E+00 0. -1.
          1    1    1    2  502    0 -0.67106681188E+02  0.27997282627E+02 -0.23073938413E+02  0.76286048059E+02  0.00000000000E+00 0. -1.
<mgrwt>
<rscale>  0 0.56624443E+02</rscale>
<asrwt>0</asrwt>
<pdfrwt beam="2">  1        2 0.96256780E-02 0.74526338E+02</pdfrwt>
<pdfrwt beam="1">  1        1 0.21418024E+00 0.43022744E+02</pdfrwt>
<totfact> 0.84180392E+02</totfact>
</mgrwt>
</event>
<event>
 5    1  0.8459321E-003  0.6838207E+02  0.7546771E-02  0.1459255E+00
          2   -1    0    0  502    0  0.00000000000E+00  0.00000000000E+00  0.10544940961E+04  0.10544940961E+04  0.00000000000E+00 0. -1.
          1   -1    0    0  501    0 -0.00000000000E+00 -0.00000000000E+00 -0.81537564505E+02  0.81537564505E+02  0.00000000000E+00 0. -1.
         25    1    1    2    0    0 -0.52421585181E+02 -0.62076968589E+02  0.49759432348E+03  0.51944844150E+03  0.12500000000E+03 0.  0.
          2    1    1    2  501    0 -0.74888363348E+01  0.32147773633E+02 -0.64567685655E+02  0.72515846889E+02  0.00000000000E+00 0. -1.
          1    1    1    2  502    0  0.59910421516E+02  0.29929194956E+02  0.53992989376E+03  0.54406737220E+03  0.00000000000E+00 0. -1.
<mgrwt>
<rscale>  0 0.47509899E+02</rscale>
<asrwt>0</asrwt>
<pdfrwt beam="1">  1        2 0.16222985E+00 0.68382068E+02</pdfrwt>
<pdfrwt beam="2">  1        1 0.12544241E-01 0.33008514E+02</pdfrwt>
<totfact> 0.14937723E+03</totfact>
</mgrwt>
</event>
<event>
 5    1  0.8459321E-003  0.8499110E+02  0.7546771E-02  0.1402650E+00
          2   -1    0    0  502    0  0.00000000000E+00  0.00000000000E+00  0.28299285006E+03  0.28299285006E+03  0.00000000000E+00 0. -1.
          1   -1    0    0  501    0 -0.00000000000E+00 -0.00000000000E+00 -0.26390245675E+04  0.26390245675E+04  0.00000000000E+00 0. -1.
         25    1    1    2    0    0  0.65545595052E+02 -0.79666193082E+02 -0.60759949533E+03  0.62884423674E+03  0.12500000000E+03 0.  0.
          2    1    1    2  501    0  0.93304557971E+01  0.39690370624E+02 -0.20139785873E+04  0.20143912562E+04  0.00000000000E+00 0. -1.
          3    1    1    2  502    0 -0.74876050849E+02  0.39975822458E+02  0.26554636525E+03  0.27878192458E+03  0.00000000000E+00 0. -1.
<mgrwt>
<rscale>  0 0.58866672E+02</rscale>
<asrwt>0</asrwt>
<pdfrwt beam="1">  1        2 0.43537363E-01 0.84991096E+02</pdfrwt>
<pdfrwt beam="2">  1        1 0.40600376E+00 0.40772330E+02</pdfrwt>
<totfact> 0.27139172E+01</totfact>
</mgrwt>
</event>
<event>
 5    1  0.8459321E-003  0.1598654E+03  0.7546771E-02  0.1194111E+00
          2   -1    0    0  502    0  0.00000000000E+00  0.00000000000E+00  0.14262686798E+04  0.14262686798E+04  0.00000000000E+00 0. -1.
          1   -1    0    0  501    0 -0.00000000000E+00 -0.00000000000E+00 -0.29658030032E+04  0.29658030032E+04  0.00000000000E+00 0. -1.
         25    1    1    2    0    0 -0.85670707496E+02  0.17228138406E+02 -0.17446665252E+03  0.23173237089E+03  0.12500000000E+03 0.  0.
          2    1    1    2  501    0  0.14544552314E+02 -0.16039944572E+03 -0.27557731341E+04  0.27604755193E+04  0.00000000000E+00 0. -1.
          1    1    1    2  502    0  0.71126155181E+02  0.14317130732E+03  0.13907054632E+04  0.13998637928E+04  0.00000000000E+00 0. -1.
<mgrwt>
<rscale>  0 0.15529688E+03</rscale>
<asrwt>0</asrwt>
<pdfrwt beam="1">  1        2 0.21942595E+00 0.15986542E+03</pdfrwt>
<pdfrwt beam="2">  1        1 0.45627738E+00 0.15085890E+03</pdfrwt>
<totfact> 0.17974913E+00</totfact>
</mgrwt>
</event>
<event>
 5    1  0.8459321E-003  0.3368620E+02  0.7546771E-02  0.1574431E+00
          2   -1    0    0  502    0  0.00000000000E+00  0.00000000000E+00  0.37661272572E+03  0.37661272572E+03  0.00000000000E+00 0. -1.
          1   -1    0    0  501    0 -0.00000000000E+00 -0.00000000000E+00 -0.67857139652E+03  0.67857139652E+03  0.00000000000E+00 0. -1.
         25    1    1    2    0    0 -0.51949914476E+02  0.13183272924E+02 -0.95008501695E+02  0.16590421240E+03  0.12500000000E+03 0.  0.
          2    1    1    2  501    0  0.19977285041E+02 -0.23551038292E+02 -0.54685045695E+03  0.54772179580E+03  0.00000000000E+00 0. -1.
          1    1    1    2  502    0  0.31972629434E+02  0.10367765367E+02  0.33990028785E+03  0.34155811405E+03  0.00000000000E+00 0. -1.
<mgrwt>
<rscale>  0 0.32254022E+02</rscale>
<asrwt>0</asrwt>
<pdfrwt beam="1">  1        2 0.57940420E-01 0.33686198E+02</pdfrwt>
<pdfrwt beam="2">  1        1 0.10439560E+00 0.30882735E+02</pdfrwt>
<totfact> 0.37574500E+02</totfact>
</mgrwt>
</event>
<event>
 5    1  0.8459321E-003  0.3077485E+02  0.7546771E-02  0.1630031E+00
          2   -1    0    0  502    0  0.00000000000E+00  0.00000000000E+00  0.41445791018E+03  0.41445791018E+03  0.00000000000E+00 0. -1.
          1   -1    0    0  501    0 -0.00000000000E+00 -0.00000000000E+00 -0.24858607891E+03  0.24858607891E+03  0.00000000000E+00 0. -1.
         25    1    1    2    0    0  0.36372563399E+01  0.22013842329E+02  0.18925268179E+03  0.22790220809E+03  0.12500000000E+03 0.  0.
          2    1    1    2  501    0  0.20556102207E+02 -0.23015105510E+02 -0.22750408855E+03  0.22958736622E+03  0.00000000000E+00 0. -1.
          1    1    1    2  502    0 -0.24193358547E+02  0.10012631806E+01  0.20412323804E+03  0.20555441477E+03  0.00000000000E+00 0. -1.
<mgrwt>
<rscale>  0 0.27298064E+02</rscale>
<asrwt>0</asrwt>
<pdfrwt beam="1">  1        2 0.63762756E-01 0.24214069E+02</pdfrwt>
<pdfrwt beam="2">  1        1 0.38244012E-01 0.30774849E+02</pdfrwt>
<totfact> 0.11478840E+03</totfact>
</mgrwt>
</event>
<event>
 5    1  0.8459321E-003  0.1470718E+03  0.7546771E-02  0.1356205E+00
         -2   -1    0    0    0  501 -0.00000000000E+00  0.00000000000E+00  0.83251174556E+03  0.83251174556E+03  0.00000000000E+00 0.  1.
          2   -1    0    0  502    0  0.00000000000E+00 -0.00000000000E+00 -0.68033610100E+03  0.68033610100E+03  0.00000000000E+00 0. -1.
         25    1    1    2    0    0 -0.44069933180E+02  0.11777661697E+03 -0.11396573263E+03  0.21077637137E+03  0.12500000000E+03 0.  0.
          1    1    1    2  502    0  0.19632373689E+02  0.28280063173E+02 -0.51038804316E+03  0.51154779510E+03  0.00000000000E+00 0. -1.
         -1    1    1    2    0  501  0.24437559491E+02 -0.14605668014E+03  0.77652942034E+03  0.79052368009E+03  0.00000000000E+00 0.  1.
<mgrwt>
<rscale>  0 0.71156068E+02</rscale>
<asrwt>0</asrwt>
<pdfrwt beam="2">  1        2 0.10466709E+00 0.34426619E+02</pdfrwt>
<pdfrwt beam="1">  1       -2 0.12807873E+00 0.14707184E+03</pdfrwt>
<totfact> 0.22669607E+01</totfact>
</mgrwt>
</event>
<event>
 5    1  0.8459321E-003  0.1066344E+03  0.7546771E-02  0.1352294E+00
          2   -1    0    0  502    0  0.00000000000E+00  0.00000000000E+00  0.15062800380E+04  0.15062800380E+04  0.00000000000E+00 0. -1.
          1   -1    0    0  501    0 -0.00000000000E+00 -0.00000000000E+00 -0.15861495436E+04  0.15861495436E+04  0.00000000000E+00 0. -1.
         25    1    1    2    0    0  0.60665270820E+02 -0.13450904926E+03  0.22643252421E+03  0.29777449091E+03  0.12500000000E+03 0.  0.
          2    1    1    2  501    0 -0.63288311663E+02  0.85496858802E+02 -0.15481687518E+04  0.15518188062E+04  0.00000000000E+00 0. -1.
          1    1    1    2  502    0  0.26230408436E+01  0.49012190459E+02  0.12418667220E+04  0.12428362846E+04  0.00000000000E+00 0. -1.
<mgrwt>
<rscale>  0 0.72345454E+02</rscale>
<asrwt>0</asrwt>
<pdfrwt beam="1">  1        2 0.23173539E+00 0.49082330E+02</pdfrwt>
<pdfrwt beam="2">  1        1 0.24402301E+00 0.10663440E+03</pdfrwt>
<totfact> 0.14722764E+01</totfact>
</mgrwt>
</event>
<event>
 5    1  0.8459321E-003  0.1202136E+03  0.7546771E-02  0.1325268E+00
         -1   -1    0    0    0  501 -0.00000000000E+00  0.00000000000E+00  0.53249073499E+03  0.53249073499E+03  0.00000000000E+00 0.  1.
          1   -1    0    0  502    0  0.00000000000E+00 -0.00000000000E+00 -0.19299075861E+03  0.19299075861E+03  0.00000000000E+00 0. -1.
         25    1    1    2    0    0  0.85151673204E+02 -0.26650307402E+02  0.60882354618E+02  0.16520504665E+03  0.12500000000E+03 0.  0.
          2    1    1    2  502    0  0.13549236216E+02 -0.53354569097E+02 -0.12529384258E+03  0.13685334791E+03  0.00000000000E+00 0. -1.
         -2    1    1    2    0  501 -0.98700909420E+02  0.80004876499E+02  0.40391146434E+03  0.42342309905E+03  0.00000000000E+00 0.  1.
<mgrwt>
<rscale>  0 0.81348189E+02</rscale>
<asrwt>0</asrwt>
<pdfrwt beam="2">  1        1 0.29690886E-01 0.55048087E+02</pdfrwt>
<pdfrwt beam="1">  1       -1 0.81921651E-01 0.12021359E+03</pdfrwt>
<totfact> 0.23949828E+02</totfact>
</mgrwt>
</event>
<event>
 5    1  0.8459321E-003  0.8432523E+02  0.7546771E-02  0.1384242E+00
          1   -1    0    0  502    0  0.00000000000E+00  0.00000000000E+00  0.15584837086E+03  0.15584837086E+03  0.00000000000E+00 0. -1.
         -1   -1    0    0    0  501 -0.00000000000E+00 -0.00000000000E+00 -0.57604991137E+03  0.57604991137E+03  0.00000000000E+00 0.  1.
         25    1    1    2    0    0  0.24356826707E+02  0.31963291674E+02 -0.34454216636E+03  0.36871291193E+03  0.12500000000E+03 0.  0.
          2    1    1    2  502    0 -0.35792075886E+02 -0.78179323864E+02  0.12790959796E+03  0.15412314760E+03  0.00000000000E+00 0. -1.
         -2    1    1    2    0  501  0.11435249179E+02  0.46216032190E+02 -0.20356897211E+03  0.20906222271E+03  0.00000000000E+00 0.  1.
<mgrwt>
<rscale>  0 0.63361672E+02</rscale>
<asrwt>0</asrwt>
<pdfrwt beam="1">  1        1 0.23976673E-01 0.84325229E+02</pdfrwt>
<pdfrwt beam="2">  1       -1 0.88623063E-01 0.47609732E+02</pdfrwt>
<totfact> 0.27584013E+02</totfact>
</mgrwt>
</event>
<event>
 5    1  0.8459321E-003  0.5808356E+02  0.7546771E-02  0.1536705E+00
          1   -1    0    0  501    0 -0.00000000000E+00  0.00000000000E+00  0.75199992347E+02  0.75199992347E+02  0.00000000000E+00 0. -1.
          2   -1    0    0  502    0  0.00000000000E+00 -0.00000000000E+00 -0.59110248035E+03  0.59110248035E+03  0.00000000000E+00 0. -1.
         25    1    1    2    0    0  0.39695795064E+02 -0.53997482466E+02 -0.94029058057E+02  0.17017035000E+03  0.12500000000E+03 0.  0.
          2    1    1    2  501    0 -0.22745583907E+02 -0.12869190272E+01  0.31617036970E+02  0.38969921410E+02  0.00000000000E+00 0. -1.
          1    1    1    2  502    0 -0.16950211157E+02  0.55284401493E+02 -0.45349046692E+03  0.45716220130E+03  0.00000000000E+00 0. -1.
<mgrwt>
<rscale>  0 0.36376606E+02</rscale>
<asrwt>0</asrwt>
<pdfrwt beam="2">  1        2 0.90938846E-01 0.58083562E+02</pdfrwt>
<pdfrwt beam="1">  1        1 0.11569229E-01 0.22781961E+02</pdfrwt>
<totfact> 0.32403640E+03</totfact>
</mgrwt>
</event>
<event>
 5    1  0.8459321E-003  0.1474870E+03  0.7546771E-02  0.1243032E+00
          2   -1    0    0  502    0  0.00000000000E+00  0.00000000000E+00  0.20400581791E+04  0.20400581791E+04  0.00000000000E+00 0. -1.
          1   -1    0    0  501    0 -0.00000000000E+00 -0.00000000000E+00 -0.38320799788E+03  0.38320799788E+03  0.00000000000E+00 0. -1.
         25    1    1    2    0    0  0.10963243449E+03 -0.99102744741E+02  0.14681394188E+02  0.19411637757E+03  0.12500000000E+03 0.  0.
          2    1    1    2  501    0  0.38547751980E+02  0.89773632590E+02 -0.28242045586E+03  0.29884201207E+03  0.00000000000E+00 0. -1.
          1    1    1    2  502    0 -0.14818018647E+03  0.93291121511E+01  0.19245892429E+04  0.19303077873E+04  0.00000000000E+00 0. -1.
<mgrwt>
<rscale>  0 0.12003930E+03</rscale>
<asrwt>0</asrwt>
<pdfrwt beam="1">  1        2 0.31385510E+00 0.14748696E+03</pdfrwt>
<pdfrwt beam="2">  1        1 0.58955078E-01 0.97699715E+02</pdfrwt>
<totfact> 0.66999653E+01</totfact>
</mgrwt>
</event>
<event>
 5    1  0.8459321E-003  0.6120645E+02  0.7546771E-02  0.1434883E+00
          1   -1    0    0  501    0 -0.00000000000E+00  0.00000000000E+00  0.21071122000E+03  0.21071122000E+03  0.00000000000E+00 0. -1.
          2   -1    0    0  502    0  0.00000000000E+00 -0.00000000000E+00 -0.52740866270E+03  0.52740866270E+03  0.00000000000E+00 0. -1.
         25    1    1    2    0    0  0.38699968542E+02 -0.11927685090E+02 -0.80221624857E+02  0.15394955775E+03  0.12500000000E+03 0.  0.
          2    1    1    2  501    0  0.17853951070E+02  0.40395340332E+02  0.16854253688E+03  0.17423298720E+03  0.00000000000E+00 0. -1.
          1    1    1    2  502    0 -0.56553919612E+02 -0.28467655242E+02 -0.40501835472E+03  0.40993733775E+03  0.00000000000E+00 0. -1.
<mgrwt>
<rscale>  0 0.51992142E+02</rscale>
<asrwt>0</asrwt>
<pdfrwt beam="2">  1        2 0.81139794E-01 0.61206451E+02</pdfrwt>
<pdfrwt beam="1">  1        1 0.32417111E-01 0.44164998E+02</pdfrwt>
<totfact> 0.10898895E+03</totfact>
</mgrwt>
</event>
<event>
 5    1  0.8459321E-003  0.2169597E+03  0.7546771E-02  0.1201951E+00
          2   -1    0    0  502    0  0.00000000000E+00  0.00000000000E+00  0.60931351695E+03  0.60931351695E+03  0.00000000000E+00 0. -1.
          1   -1    0    0  501    0 -0.00000000000E+00 -0.00000000000E+00 -0.10251324452E+04  0.10251324452E+04  0.00000000000E+00 0. -1.
         25    1    1    2    0    0  0.26770039727E+03  0.10844206468E+02 -0.18948283979E+03  0.35115501717E+03  0.12500000000E+03 0.  0.
          2    1    1    2  501    0 -0.19976879372E+03  0.65321057172E+02 -0.73501514012E+03  0.76447476587E+03  0.00000000000E+00 0. -1.
          1    1    1    2  502    0 -0.67931603548E+02 -0.76165263640E+02  0.50867905164E+03  0.51881617912E+03  0.00000000000E+00 0. -1.
<mgrwt>
<rscale>  0 0.14880354E+03</rscale>
<asrwt>0</asrwt>
<pdfrwt beam="1">  1        2 0.93740541E-01 0.10205807E+03</pdfrwt>
<pdfrwt beam="2">  1        1 0.15771268E+00 0.21695973E+03</pdfrwt>
<totfact> 0.10812698E+02</totfact>
</mgrwt>
</event>
<event>
 5    1  0.8459321E-003  0.1244101E+03  0.7546771E-02  0.1280025E+00
         -3   -1    0    0    0  502 -0.00000000000E+00  0.00000000000E+00  0.20622804146E+04  0.20622804146E+04  0.00000000000E+00 0.  1.
         -2   -1    0    0    0  501  0.00000000000E+00 -0.00000000000E+00 -0.14660947112E+03  0.14660947112E+03  0.00000000000E+00 0.  1.
         25    1    1    2    0    0 -0.41100548551E+02  0.18934104381E+03  0.22081558431E+03  0.31925508334E+03  0.12500000000E+03 0.  0.
         -2    1    1    2    0  502 -0.26368692203E+01 -0.12165612735E+03  0.17731243797E+04  0.17772949199E+04  0.00000000000E+00 0.  1.
         -1    1    1    2    0  501  0.43737417771E+02 -0.67684916454E+02 -0.78269020515E+02  0.11233988250E+03  0.00000000000E+00 0.  1.
<mgrwt>
<rscale>  0 0.10012890E+03</rscale>
<asrwt>0</asrwt>
<pdfrwt beam="2">  1       -2 0.22555305E-01 0.80586659E+02</pdfrwt>
<pdfrwt beam="1">  1       -3 0.31727389E+00 0.12441012E+03</pdfrwt>
<totfact> 0.24643047E+00</totfact>
</mgrwt>
</event>
<event>
 5    1  0.8459321E-003  0.8204083E+02  0.7546771E-02  0.1457824E+00
         -2   -1    0    0    0  501 -0.00000000000E+00  0.00000000000E+00  0.16490405940E+03  0.16490405940E+03  0.00000000000E+00 0.  1.
          2   -1    0    0  502    0  0.00000000000E+00 -0.00000000000E+00 -0.71730761515E+03  0.71730761515E+03  0.00000000000E+00 0. -1.
         25    1    1    2    0    0  0.10181782484E+03  0.27770133874E+02 -0.26244434684E+03  0.30925731192E+03  0.12500000000E+03 0.  0.
          1    1    1    2  502    0 -0.74078946007E+02 -0.25910913709E+02 -0.42647537222E+03  0.43363614794E+03  0.00000000000E+00 0. -1.
         -1    1    1    2    0  501 -0.27738878832E+02 -0.18592201656E+01  0.13651616331E+03  0.13931821469E+03  0.00000000000E+00 0.  1.
<mgrwt>
<rscale>  0 0.47758000E+02</rscale>
<asrwt>0</asrwt>
<pdfrwt beam="2">  1        2 0.11035502E+00 0.82040826E+02</pdfrwt>
<pdfrwt beam="1">  1       -2 0.25369855E-01 0.27801117E+02</pdfrwt>
<totfact> 0.54722691E+02</totfact>
</mgrwt>
</event>
<event>
 5    1  0.8459321E-003  0.9129711E+02  0.7546771E-02  0.1468338E+00
          1   -1    0    0  501    0 -0.00000000000E+00  0.00000000000E+00  0.16122545885E+04  0.16122545885E+04  0.00000000000E+00 0. -1.
          2   -1    0    0  502    0  0.00000000000E+00 -0.00000000000E+00 -0.57166356885E+02  0.57166356885E+02  0.00000000000E+00 0. -1.
         25    1    1    2    0    0 -0.84974920569E+02 -0.56268759819E+02  0.18985445644E+03  0.24911167192E+03  0.12500000000E+03 0.  0.
          2    1    1    2  501    0  0.31791953058E+01  0.22933811676E+02  0.13215805010E+04  0.13217832983E+04  0.00000000000E+00 0. -1.
          1    1    1    2  502    0  0.81795725263E+02  0.33334948142E+02  0.43653274179E+02  0.98525975182E+02  0.00000000000E+00 0. -1.
<mgrwt>
<rscale>  0 0.45976221E+02</rscale>
<asrwt>0</asrwt>
<pdfrwt beam="2">  1        2 0.87948253E-02 0.91297106E+02</pdfrwt>
<pdfrwt beam="1">  1        1 0.24803913E+00 0.23153121E+02</pdfrwt>
<totfact> 0.74964167E+02</totfact>
</mgrwt>
</event>
<event>
 5    1  0.8459321E-003  0.7976109E+02  0.7546771E-02  0.1432574E+00
          1   -1    0    0  501    0 -0.00000000000E+00  0.00000000000E+00  0.38270156257E+03  0.38270156257E+03  0.00000000000E+00 0. -1.
          2   -1    0    0  502    0  0.00000000000E+00 -0.00000000000E+00 -0.60856173049E+02  0.60856173049E+02  0.00000000000E+00 0. -1.
         25    1    1    2    0    0  0.69289548890E+02 -0.46893733083E+02  0.21121520558E+03  0.25930084237E+03  0.12500000000E+03 0.  0.
          2    1    1    2  501    0 -0.79049749454E+02  0.13817402613E+02  0.12363888270E+03  0.14739863236E+03  0.00000000000E+00 0. -1.
          1    1    1    2  502    0  0.97602005639E+01  0.33076330470E+02 -0.13008698762E+02  0.36858260891E+02  0.00000000000E+00 0. -1.
<mgrwt>
<rscale>  0 0.52446784E+02</rscale>
<asrwt>0</asrwt>
<pdfrwt beam="2">  1        2 0.93624884E-02 0.34486304E+02</pdfrwt>
<pdfrwt beam="1">  1        1 0.58877162E-01 0.79761090E+02</pdfrwt>
<totfact> 0.53223218E+03</totfact>
</mgrwt>
</event>
<event>
 5    1  0.8459321E-003  0.6338149E+02  0.7546771E-02  0.1542153E+00
          2   -1    0    0  502    0  0.00000000000E+00  0.00000000000E+00  0.51117755986E+03  0.51117755986E+03  0.00000000000E+00 0. -1.
         -2   -1    0    0    0  501 -0.00000000000E+00 -0.00000000000E+00 -0.22779200893E+03  0.22779200893E+03  0.00000000000E+00 0.  1.
         25    1    1    2    0    0 -0.64819022845E+02 -0.44032520178E+02  0.30630983690E+02  0.15067722362E+03  0.12500000000E+03 0.  0.
          1    1    1    2  502    0  0.20147041523E+02  0.33285906219E+00  0.41445080335E+03  0.41494033605E+03  0.00000000000E+00 0. -1.
         -1    1    1    2    0  501  0.44671981322E+02  0.43699661116E+02 -0.16169623611E+03  0.17335200913E+03  0.00000000000E+00 0.  1.
<mgrwt>
<rscale>  0 0.35736868E+02</rscale>
<asrwt>0</asrwt>
<pdfrwt beam="1">  1        2 0.78642701E-01 0.20149791E+02</pdfrwt>
<pdfrwt beam="2">  1       -2 0.35044925E-01 0.63381487E+02</pdfrwt>
<totfact> 0.47564367E+02</totfact>
</mgrwt>
</event>
<event>
 5    1  0.8459321E-003  0.4356007E+02  0.7546771E-02  0.1502059E+00
          1   -1    0    0  501    0 -0.00000000000E+00  0.00000000000E+00  0.13593125226E+04  0.13593125226E+04  0.00000000000E+00 0. -1.
          2   -1    0    0  502    0  0.00000000000E+00 -0.00000000000E+00 -0.12967362040E+03  0.12967362040E+03  0.00000000000E+00 0. -1.
         25    1    1    2    0    0  0.46196266658E+02 -0.32708311951E+02  0.58998442482E+03  0.60573141759E+03  0.12500000000E+03 0.  0.
          2    1    1    2  501    0 -0.37008672626E+02 -0.98834483258E+01  0.75705811783E+03  0.75802659463E+03  0.00000000000E+00 0. -1.
          1    1    1    2  502    0 -0.91875940320E+01  0.42591760277E+02 -0.11740364049E+03  0.12522813074E+03  0.00000000000E+00 0. -1.
<mgrwt>
<rscale>  0 0.40848472E+02</rscale>
<asrwt>0</asrwt>
<pdfrwt beam="2">  1        2 0.19949789E-01 0.43560069E+02</pdfrwt>
<pdfrwt beam="1">  1        1 0.20912499E+00 0.38305671E+02</pdfrwt>
<totfact> 0.37445884E+02</totfact>
</mgrwt>
</event>
<event>
 5    1  0.8459321E-003  0.5435114E+02  0.7546771E-02  0.1489155E+00
          2   -1    0    0  502    0  0.00000000000E+00  0.00000000000E+00  0.96365876934E+03  0.96365876934E+03  0.00000000000E+00 0. -1.
         -2   -1    0    0    0  501 -0.00000000000E+00 -0.00000000000E+00 -0.40486427087E+02  0.40486427087E+02  0.00000000000E+00 0.  1.
         25    1    1    2    0    0 -0.29668214159E+02 -0.18355933917E+02  0.48449418903E+03  0.50157428407E+03  0.12500000000E+03 0.  0.
          1    1    1    2  502    0  0.29283106468E+02  0.51918376570E+02  0.45931697226E+03  0.46316854293E+03  0.00000000000E+00 0. -1.
         -1    1    1    2    0  501  0.38510769147E+00 -0.33562442652E+02 -0.20638819041E+02  0.39402369423E+02  0.00000000000E+00 0.  1.
<mgrwt>
<rscale>  0 0.42711556E+02</rscale>
<asrwt>0</asrwt>
<pdfrwt beam="1">  1        2 0.14825518E+00 0.54351137E+02</pdfrwt>
<pdfrwt beam="2">  1       -2 0.62286818E-02 0.33564652E+02</pdfrwt>
<totfact> 0.34617938E+03</totfact>
</mgrwt>
</event>
<event>
 5    1  0.8459321E-003  0.4304469E+02  0.7546771E-02  0.1559685E+00
          1   -1    0    0  501    0 -0.00000000000E+00  0.00000000000E+00  0.13828117415E+04  0.13828117415E+04  0.00000000000E+00 0. -1.
          2   -1    0    0  502    0  0.00000000000E+00 -0.00000000000E+00 -0.26721688699E+04  0.26721688699E+04  0.00000000000E+00 0. -1.
         25    1    1    2    0    0 -0.40238709558E+02  0.40272827991E+02  0.22481364993E+02  0.13918141468E+03  0.12500000000E+03 0.  0.
          2    1    1    2  501    0  0.26508693076E+02  0.50495020456E+00  0.13016682717E+04  0.13019382686E+04  0.00000000000E+00 0. -1.
          1    1    1    2  502    0  0.13730016482E+02 -0.40777778196E+02 -0.26135067651E+04  0.26138609281E+04  0.00000000000E+00 0. -1.
<mgrwt>
<rscale>  0 0.33782620E+02</rscale>
<asrwt>0</asrwt>
<pdfrwt beam="2">  1        2 0.41110290E+00 0.43044687E+02</pdfrwt>
<pdfrwt beam="1">  1        1 0.21274027E+00 0.26513502E+02</pdfrwt>
<totfact> 0.61338584E+00</totfact>
</mgrwt>
</event>
<event>
 5    1  0.8459321E-003  0.7686152E+02  0.7546771E-02  0.1361951E+00
          1   -1    0    0  501    0 -0.00000000000E+00  0.00000000000E+00  0.11025418468E+03  0.11025418468E+03  0.00000000000E+00 0. -1.
          2   -1    0    0  502    0  0.00000000000E+00 -0.00000000000E+00 -0.17192478270E+04  0.17192478270E+04  0.00000000000E+00 0. -1.
         25    1    1    2    0    0 -0.44124380188E+02 -0.98661500335E+02 -0.52702604520E+03  0.55232463723E+03  0.12500000000E+03 0.  0.
          2    1    1    2  501    0 -0.20332919611E+02  0.59380259525E+02  0.86168944682E+02  0.10660454901E+03  0.00000000000E+00 0. -1.
          1    1    1    2  502    0  0.64457299799E+02  0.39281240810E+02 -0.11681365418E+04  0.11705728254E+04  0.00000000000E+00 0. -1.
<mgrwt>
<rscale>  0 0.69456544E+02</rscale>
<asrwt>0</asrwt>
<pdfrwt beam="2">  1        2 0.26449963E+00 0.76861515E+02</pdfrwt>
<pdfrwt beam="1">  1        1 0.16962184E-01 0.62764981E+02</pdfrwt>
<totfact> 0.47655433E+02</totfact>
</mgrwt>
</event>
<event>
 5    1  0.8459321E-003  0.4412205E+02  0.7546771E-02  0.1500485E+00
          2   -1    0    0  502    0  0.00000000000E+00  0.00000000000E+00  0.31306311554E+04  0.31306311554E+04  0.00000000000E+00 0. -1.
          1   -1    0    0  501    0 -0.00000000000E+00 -0.00000000000E+00 -0.13809934015E+02  0.13809934015E+02  0.00000000000E+00 0. -1.
         25    1    1    2    0    0  0.34978288875E+02  0.56230806805E+02  0.11405378096E+04  0.11492766766E+04  0.12500000000E+03 0.  0.
          2    1    1    2  501    0 -0.36025304455E+02 -0.12789599098E+02  0.30522909104E+02  0.48918752911E+02  0.00000000000E+00 0. -1.
          1    1    1    2  502    0  0.10470155799E+01 -0.43441207707E+02  0.19457605027E+04  0.19462456599E+04  0.00000000000E+00 0. -1.
<mgrwt>
<rscale>  0 0.41069541E+02</rscale>
<asrwt>0</asrwt>
<pdfrwt beam="1">  1        2 0.48163500E+00 0.44122050E+02</pdfrwt>
<pdfrwt beam="2">  1        1 0.21246077E-02 0.38228215E+02</pdfrwt>
<totfact> 0.13808026E+03</totfact>
</mgrwt>
</event>
<event>
 5    1  0.8459321E-003  0.1242843E+03  0.7546771E-02  0.1279947E+00
          2   -1    0    0  502    0  0.00000000000E+00  0.00000000000E+00  0.83465657563E+02  0.83465657563E+02  0.00000000000E+00 0. -1.
          1   -1    0    0  501    0 -0.00000000000E+00 -0.00000000000E+00 -0.72996145225E+03  0.72996145225E+03  0.00000000000E+00 0. -1.
         25    1    1    2    0    0 -0.36359350791E+01 -0.12532076857E+03 -0.32239668381E+03  0.36780855997E+03  0.12500000000E+03 0.  0.
          2    1    1    2  501    0  0.81665845274E+02  0.10462410255E+03 -0.33852347445E+03  0.36361195783E+03  0.00000000000E+00 0. -1.
          1    1    1    2  502    0 -0.78029910195E+02  0.20696666020E+02  0.14424363572E+02  0.82006592015E+02  0.00000000000E+00 0. -1.
<mgrwt>
<rscale>  0 0.10016600E+03</rscale>
<asrwt>0</asrwt>
<pdfrwt beam="1">  1        2 0.12840871E-01 0.80728055E+02</pdfrwt>
<pdfrwt beam="2">  1        1 0.11230176E+00 0.12428427E+03</pdfrwt>
<totfact> 0.16470377E+03</totfact>
</mgrwt>
</event>
<event>
 5    1  0.8459321E-003  0.4783479E+02  0.7546771E-02  0.1496967E+00
         -3   -1    0    0    0  501 -0.00000000000E+00  0.00000000000E+00  0.81899760559E+02  0.81899760559E+02  0.00000000000E+00 0.  1.
          1   -1    0    0  502    0  0.00000000000E+00 -0.00000000000E+00 -0.66696759864E+03  0.66696759864E+03  0.00000000000E+00 0. -1.
         25    1    1    2    0    0  0.75737435992E+02  0.33153334847E+02 -0.76779333087E+02  0.16839052471E+03  0.12500000000E+03 0.  0.
          2    1    1    2  502    0 -0.44726207073E+02 -0.14623841556E+02 -0.53404224608E+03  0.53611137923E+03  0.00000000000E+00 0. -1.
         -2    1    1    2    0  501 -0.31011228918E+02 -0.18529493290E+02  0.25753741087E+02  0.44365455262E+02  0.00000000000E+00 0.  1.
<mgrwt>
<rscale>  0 0.41569785E+02</rscale>
<asrwt>0</asrwt>
<pdfrwt beam="2">  1        1 0.10261040E+00 0.47834794E+02</pdfrwt>
<pdfrwt beam="1">  1       -3 0.12599963E-01 0.36125316E+02</pdfrwt>
<totfact> 0.71720233E+02</totfact>
</mgrwt>
</event>
<event>
 5    1  0.1448509E-002  0.7781402E+02  0.7546771E-02  0.1384062E+00
         -2   -1    0    0    0  501 -0.00000000000E+00  0.00000000000E+00  0.61714926886E+02  0.61714926886E+02  0.00000000000E+00 0. -1.
          2   -1    0    0  502    0  0.00000000000E+00 -0.00000000000E+00 -0.48514870393E+03  0.48514870393E+03  0.00000000000E+00 0.  1.
         25    1    1    2    0    0 -0.86909825151E+01  0.11465985190E+03 -0.32141929830E+03  0.36353511541E+03  0.12500000000E+03 0.  0.
          3    1    1    2  502    0  0.44478695660E+01 -0.63165160661E+02 -0.11389245552E+03  0.13031159768E+03  0.00000000000E+00 0. -1.
         -3    1    1    2    0  501  0.42431129491E+01 -0.51494691236E+02  0.11877976779E+02  0.53016917728E+02  0.00000000000E+00 0.  1.
<mgrwt>
<rscale>  0 0.63408114E+02</rscale>
<asrwt>0</asrwt>
<pdfrwt beam="2">  1        2 0.74638264E-01 0.77814021E+02</pdfrwt>
<pdfrwt beam="1">  1       -2 0.94946039E-02 0.51669210E+02</pdfrwt>
<totfact> 0.42115901E+03</totfact>
</mgrwt>
</event>
<event>
 5    1  0.8459321E-003  0.6740644E+02  0.7546771E-02  0.1411074E+00
          2   -1    0    0  502    0  0.00000000000E+00  0.00000000000E+00  0.13042908908E+04  0.13042908908E+04  0.00000000000E+00 0. -1.
         -2   -1    0    0    0  501 -0.00000000000E+00 -0.00000000000E+00 -0.14915297511E+03  0.14915297511E+03  0.00000000000E+00 0.  1.
         25    1    1    2    0    0  0.73393619293E+01  0.10807788521E+03  0.35242675678E+03  0.38931261783E+03  0.12500000000E+03 0.  0.
          1    1    1    2  502    0 -0.21520175683E+02 -0.43043957360E+02  0.92428052092E+03  0.92553248543E+03  0.00000000000E+00 0. -1.
         -1    1    1    2    0  501  0.14180813753E+02 -0.65033927847E+02 -0.12156936197E+03  0.13859876269E+03  0.00000000000E+00 0.  1.
<mgrwt>
<rscale>  0 0.56954843E+02</rscale>
<asrwt>0</asrwt>
<pdfrwt beam="1">  1        2 0.20066013E+00 0.48123801E+02</pdfrwt>
<pdfrwt beam="2">  1       -2 0.22946612E-01 0.67406441E+02</pdfrwt>
<totfact> 0.31469647E+02</totfact>
</mgrwt>
</event>
<event>
 5    1  0.8459321E-003  0.8166869E+02  0.7546771E-02  0.1329591E+00
          2   -1    0    0  502    0  0.00000000000E+00  0.00000000000E+00  0.19038845518E+03  0.19038845518E+03  0.00000000000E+00 0. -1.
          1   -1    0    0  501    0 -0.00000000000E+00 -0.00000000000E+00 -0.55895201207E+03  0.55895201207E+03  0.00000000000E+00 0. -1.
         25    1    1    2    0    0  0.71339022185E+02 -0.10821437703E+02 -0.55450624352E+02  0.15461607724E+03  0.12500000000E+03 0.  0.
          2    1    1    2  501    0 -0.22972825590E+02  0.78371070631E+02 -0.43754759417E+03  0.44510411432E+03  0.00000000000E+00 0. -1.
          1    1    1    2  502    0 -0.48366196595E+02 -0.67549632929E+02  0.12443466162E+03  0.14962027568E+03  0.00000000000E+00 0. -1.
<mgrwt>
<rscale>  0 0.79810243E+02</rscale>
<asrwt>0</asrwt>
<pdfrwt beam="1">  1        2 0.29290532E-01 0.77994084E+02</pdfrwt>
<pdfrwt beam="2">  1        1 0.85992616E-01 0.81668693E+02</pdfrwt>
<totfact> 0.95876487E+02</totfact>
</mgrwt>
</event>
<event>
 5    1  0.8459321E-003  0.9140928E+02  0.7546771E-02  0.1479554E+00
         -2   -1    0    0    0  501 -0.00000000000E+00  0.00000000000E+00  0.84524529446E+02  0.84524529446E+02  0.00000000000E+00 0.  1.
          2   -1    0    0  502    0  0.00000000000E+00 -0.00000000000E+00 -0.13891054546E+04  0.13891054546E+04  0.00000000000E+00 0. -1.
         25    1    1    2    0    0 -0.68050503659E+02  0.32968727725E+02 -0.97575942871E+02  0.17568116770E+03  0.12500000000E+03 0.  0.
          1    1    1    2  502    0  0.88317040311E+02 -0.26257278098E+02 -0.12481758451E+04  0.12515719254E+04  0.00000000000E+00 0. -1.
         -1    1    1    2    0  501 -0.20266536652E+02 -0.67114496276E+01  0.41170862824E+02  0.46376890901E+02  0.00000000000E+00 0.  1.
<mgrwt>
<rscale>  0 0.44175658E+02</rscale>
<asrwt>0</asrwt>
<pdfrwt beam="2">  1        2 0.21370851E+00 0.91409281E+02</pdfrwt>
<pdfrwt beam="1">  1       -2 0.13003775E-01 0.21348912E+02</pdfrwt>
<totfact> 0.62770079E+02</totfact>
</mgrwt>
</event>
<event>
 5    1  0.8459321E-003  0.7791024E+02  0.7546771E-02  0.1417661E+00
          1   -1    0    0  502    0  0.00000000000E+00  0.00000000000E+00  0.58314529171E+03  0.58314529171E+03  0.00000000000E+00 0. -1.
         -1   -1    0    0    0  501 -0.00000000000E+00 -0.00000000000E+00 -0.97329259650E+03  0.97329259650E+03  0.00000000000E+00 0.  1.
         25    1    1    2    0    0  0.82256213278E+02 -0.12257132185E+02 -0.11874346403E+03  0.19141925755E+03  0.12500000000E+03 0.  0.
          2    1    1    2  502    0 -0.19580652470E+02 -0.34377354264E+02  0.54422295672E+03  0.54565907952E+03  0.00000000000E+00 0. -1.
         -2    1    1    2    0  501 -0.62675560808E+02  0.46634486450E+02 -0.81562679749E+03  0.81935955113E+03  0.00000000000E+00 0.  1.
<mgrwt>
<rscale>  0 0.55518795E+02</rscale>
<asrwt>0</asrwt>
<pdfrwt beam="1">  1        1 0.89714661E-01 0.39562665E+02</pdfrwt>
<pdfrwt beam="2">  1       -1 0.14973732E+00 0.77910239E+02</pdfrwt>
<totfact> 0.16261370E+01</totfact>
</mgrwt>
</event>
<event>
 5    1  0.8459321E-003  0.9690739E+02  0.7546771E-02  0.1324529E+00
         -1   -1    0    0    0  501 -0.00000000000E+00  0.00000000000E+00  0.49600989854E+03  0.49600989854E+03  0.00000000000E+00 0.  1.
          1   -1    0    0  502    0  0.00000000000E+00 -0.00000000000E+00 -0.67838116077E+03  0.67838116077E+03  0.00000000000E+00 0. -1.
         25    1    1    2    0    0 -0.14860336592E+02  0.15707990162E+03  0.37682840968E+01  0.20133088452E+03  0.12500000000E+03 0.  0.
          2    1    1    2  502    0  0.29696929642E+02 -0.89963931424E+02 -0.57267612344E+03  0.58045961009E+03  0.00000000000E+00 0. -1.
         -2    1    1    2    0  501 -0.14836593050E+02 -0.67115970201E+02  0.38653657712E+03  0.39260056470E+03  0.00000000000E+00 0.  1.
<mgrwt>
<rscale>  0 0.81615284E+02</rscale>
<asrwt>0</asrwt>
<pdfrwt beam="2">  1        1 0.10436633E+00 0.96907387E+02</pdfrwt>
<pdfrwt beam="1">  1       -1 0.76309215E-01 0.68736293E+02</pdfrwt>
<totfact> 0.58277919E+01</totfact>
</mgrwt>
</event>
<event>
 5    1  0.8459321E-003  0.4954746E+02  0.7546771E-02  0.1556815E+00
          2   -1    0    0  502    0  0.00000000000E+00  0.00000000000E+00  0.11269884464E+03  0.11269884464E+03  0.00000000000E+00 0. -1.
         -2   -1    0    0    0  501 -0.00000000000E+00 -0.00000000000E+00 -0.26222756711E+03  0.26222756711E+03  0.00000000000E+00 0.  1.
         25    1    1    2    0    0 -0.29231553222E+02  0.35752968604E+02 -0.15699707650E+03  0.20592678431E+03  0.12500000000E+03 0.  0.
          1    1    1    2  502    0  0.17969493123E+02  0.15078398373E+02  0.77933249812E+02  0.81387051838E+02  0.00000000000E+00 0. -1.
         -1    1    1    2    0  501  0.11262060099E+02 -0.50831366977E+02 -0.70464895782E+02  0.87612575604E+02  0.00000000000E+00 0.  1.
<mgrwt>
<rscale>  0 0.34092027E+02</rscale>
<asrwt>0</asrwt>
<pdfrwt beam="1">  1        2 0.17338284E-01 0.23457638E+02</pdfrwt>
<pdfrwt beam="2">  1       -2 0.40342702E-01 0.49547455E+02</pdfrwt>
<totfact> 0.16886299E+03</totfact>
</mgrwt>
</event>
<event>
 5    1  0.8459321E-003  0.3931955E+02  0.7546771E-02  0.1524346E+00
          1   -1    0    0  502    0  0.00000000000E+00  0.00000000000E+00  0.13645432130E+04  0.13645432130E+04  0.00000000000E+00 0. -1.
         -1   -1    0    0    0  501 -0.00000000000E+00 -0.00000000000E+00 -0.33522988238E+02  0.33522988238E+02  0.00000000000E+00 0.  1.
         25    1    1    2    0    0  0.20301422761E+02  0.36889329082E+01  0.78340356151E+03  0.79358168841E+03  0.12500000000E+03 0.  0.
          2    1    1    2  502    0 -0.30760148484E+02  0.31291808009E+02  0.56311391919E+03  0.56482090079E+03  0.00000000000E+00 0. -1.
         -2    1    1    2    0  501  0.10458725723E+02 -0.34980740918E+02 -0.15497255933E+02  0.39663612044E+02  0.00000000000E+00 0.  1.
<mgrwt>
<rscale>  0 0.37889147E+02</rscale>
<asrwt>0</asrwt>
<pdfrwt beam="1">  1        1 0.20992968E+00 0.39319549E+02</pdfrwt>
<pdfrwt beam="2">  1       -1 0.51573839E-02 0.36510782E+02</pdfrwt>
<totfact> 0.14529564E+03</totfact>
</mgrwt>
</event>
<event>
 5    1  0.8459321E-003  0.8898625E+02  0.7546771E-02  0.1395854E+00
         -1   -1    0    0    0  501 -0.00000000000E+00  0.00000000000E+00  0.22579348198E+03  0.22579348198E+03  0.00000000000E+00 0.  1.
          1   -1    0    0  502    0  0.00000000000E+00 -0.00000000000E+00 -0.20488865764E+04  0.20488865764E+04  0.00000000000E+00 0. -1.
         25    1    1    2    0    0  0.84354271506E+02 -0.66940590349E+02 -0.34226962118E+03  0.37996076026E+03  0.12500000000E+03 0.  0.
          2    1    1    2  502    0 -0.39910579919E+02 -0.98042421021E+01 -0.16780070274E+04  0.16785102209E+04  0.00000000000E+00 0. -1.
         -2    1    1    2    0  501 -0.44443691587E+02  0.76744832452E+02  0.19718355419E+03  0.21620907722E+03  0.00000000000E+00 0.  1.
<mgrwt>
<rscale>  0 0.60473823E+02</rscale>
<asrwt>0</asrwt>
<pdfrwt beam="2">  1        1 0.31521332E+00 0.41097172E+02</pdfrwt>
<pdfrwt beam="1">  1       -1 0.34737459E-01 0.88986251E+02</pdfrwt>
<totfact> 0.31605265E+01</totfact>
</mgrwt>
</event>
<event>
 5    1  0.8459321E-003  0.1567153E+03  0.7546771E-02  0.1324902E+00
          1   -1    0    0  501    0 -0.00000000000E+00  0.00000000000E+00  0.74628711413E+03  0.74628711413E+03  0.00000000000E+00 0. -1.
          2   -1    0    0  502    0  0.00000000000E+00 -0.00000000000E+00 -0.10239056682E+03  0.10239056682E+03  0.00000000000E+00 0. -1.
         25    1    1    2    0    0  0.17809874589E+03  0.61920531114E+02  0.14621055500E+03  0.26936191612E+03  0.12500000000E+03 0.  0.
          2    1    1    2  501    0 -0.14775843746E+03 -0.32354641501E+02  0.51256307483E+03  0.53441583467E+03  0.00000000000E+00 0. -1.
          1    1    1    2  502    0 -0.30340308427E+02 -0.29565889613E+02 -0.14877082525E+02  0.44899930161E+02  0.00000000000E+00 0. -1.
<mgrwt>
<rscale>  0 0.81480231E+02</rscale>
<asrwt>0</asrwt>
<pdfrwt beam="2">  1        2 0.15752395E-01 0.42363618E+02</pdfrwt>
<pdfrwt beam="1">  1        1 0.11481340E+00 0.15671532E+03</pdfrwt>
<totfact> 0.12038060E+03</totfact>
</mgrwt>
</event>
<event>
 5    1  0.8459321E-003  0.5509272E+02  0.7546771E-02  0.1486484E+00
          1   -1    0    0  502    0  0.00000000000E+00  0.00000000000E+00  0.28930078188E+04  0.28930078188E+04  0.00000000000E+00 0. -1.
         -1   -1    0    0    0  501 -0.00000000000E+00 -0.00000000000E+00 -0.45454157740E+01  0.45454157740E+01  0.00000000000E+00 0.  1.
         25    1    1    2    0    0  0.62450452156E+01  0.30565486969E+02  0.14102082344E+04  0.14160810408E+04  0.12500000000E+03 0.  0.
          2    1    1    2  502    0 -0.74840562768E+00 -0.63851493182E+02  0.96449146249E+03  0.96660299736E+03  0.00000000000E+00 0. -1.
         -2    1    1    2    0  501 -0.54966395879E+01  0.33286006213E+02  0.51376270607E+03  0.51486919640E+03  0.00000000000E+00 0.  1.
<mgrwt>
<rscale>  0 0.43112083E+02</rscale>
<asrwt>0</asrwt>
<pdfrwt beam="1">  1        1 0.44507666E+00 0.55092718E+02</pdfrwt>
<pdfrwt beam="2">  1       -1 0.69929704E-03 0.33736794E+02</pdfrwt>
<totfact> 0.24365254E+03</totfact>
</mgrwt>
</event>
<event>
 5    1  0.8459321E-003  0.4234630E+02  0.7546771E-02  0.1580971E+00
          2   -1    0    0  502    0  0.00000000000E+00  0.00000000000E+00  0.11561461342E+04  0.11561461342E+04  0.00000000000E+00 0. -1.
         -2   -1    0    0    0  501 -0.00000000000E+00 -0.00000000000E+00 -0.19406270407E+03  0.19406270407E+03  0.00000000000E+00 0.  1.
         25    1    1    2    0    0  0.33116486329E+02  0.56546850483E+02  0.23559966853E+03  0.27463876598E+03  0.12500000000E+03 0.  0.
          1    1    1    2  502    0 -0.98665436394E+01 -0.21429709437E+02  0.89832919963E+03  0.89863893308E+03  0.00000000000E+00 0. -1.
         -1    1    1    2    0  501 -0.23249942690E+02 -0.35117141046E+02 -0.17184543807E+03  0.17693113919E+03  0.00000000000E+00 0.  1.
<mgrwt>
<rscale>  0 0.31607479E+02</rscale>
<asrwt>0</asrwt>
<pdfrwt beam="1">  1        2 0.17786863E+00 0.23591972E+02</pdfrwt>
<pdfrwt beam="2">  1       -2 0.29855802E-01 0.42346301E+02</pdfrwt>
<totfact> 0.24642126E+02</totfact>
</mgrwt>
</event>
<event>
 5    1  0.8459321E-003  0.6225210E+02  0.7546771E-02  0.1545334E+00
         -2   -1    0    0    0  501  0.00000000000E+00  0.00000000000E+00  0.82996790505E+03  0.82996790505E+03  0.00000000000E+00 0.  1.
         -1   -1    0    0    0  502 -0.00000000000E+00 -0.00000000000E+00 -0.71964116252E+02  0.71964116252E+02  0.00000000000E+00 0.  1.
         25    1    1    2    0    0  0.15479230039E+02  0.40248334165E+02  0.38919282466E+03  0.41104207781E+03  0.12500000000E+03 0.  0.
         -2    1    1    2    0  502 -0.19538825688E+02 -0.59930993582E+02 -0.44455684545E+02  0.77134931058E+02  0.00000000000E+00 0.  1.
         -1    1    1    2    0  501  0.40595956497E+01  0.19682659416E+02  0.41326664868E+03  0.41375501243E+03  0.00000000000E+00 0.  1.
<mgrwt>
<rscale>  0 0.35370573E+02</rscale>
<asrwt>0</asrwt>
<pdfrwt beam="1">  1       -2 0.12768736E+00 0.20096950E+02</pdfrwt>
<pdfrwt beam="2">  1       -1 0.11071403E-01 0.62252103E+02</pdfrwt>
<totfact> 0.18528723E+02</totfact>
</mgrwt>
</event>
<event>
 5    1  0.8459321E-003  0.9067085E+02  0.7546771E-02  0.1379357E+00
          2   -1    0    0  502    0  0.00000000000E+00  0.00000000000E+00  0.31700849337E+03  0.31700849337E+03  0.00000000000E+00 0. -1.
         -2   -1    0    0    0  501 -0.00000000000E+00 -0.00000000000E+00 -0.82736762680E+02  0.82736762680E+02  0.00000000000E+00 0.  1.
         25    1    1    2    0    0 -0.97537033543E+02 -0.48760240871E+02  0.19152452613E+03  0.25337260726E+03  0.12500000000E+03 0.  0.
          1    1    1    2  502    0  0.92810623213E+01  0.45128153555E+02  0.34695957626E+02  0.57675799402E+02  0.00000000000E+00 0. -1.
         -1    1    1    2    0  501  0.88255971222E+02  0.36320873161E+01  0.80512469417E+01  0.88696849391E+02  0.00000000000E+00 0.  1.
<mgrwt>
<rscale>  0 0.64633163E+02</rscale>
<asrwt>0</asrwt>
<pdfrwt beam="1">  1        2 0.48770537E-01 0.46072642E+02</pdfrwt>
<pdfrwt beam="2">  1       -2 0.12728733E-01 0.90670854E+02</pdfrwt>
<totfact> 0.43201761E+03</totfact>
</mgrwt>
</event>
<event>
 5    1  0.8459321E-003  0.5784432E+02  0.7546771E-02  0.1432217E+00
          2   -1    0    0  502    0  0.00000000000E+00  0.00000000000E+00  0.14280148991E+04  0.14280148991E+04  0.00000000000E+00 0. -1.
          1   -1    0    0  501    0 -0.00000000000E+00 -0.00000000000E+00 -0.17362552770E+03  0.17362552770E+03  0.00000000000E+00 0. -1.
         25    1    1    2    0    0  0.24078960988E+02  0.29371533810E+02  0.14249998051E+02  0.13141744863E+03  0.12500000000E+03 0.  0.
          2    1    1    2  501    0  0.34007765125E+02 -0.33421102872E+02 -0.10944633801E+03  0.11938173692E+03  0.00000000000E+00 0. -1.
          1    1    1    2  502    0 -0.58086726114E+02  0.40495690625E+01  0.13495857114E+04  0.13508412413E+04  0.00000000000E+00 0. -1.
<mgrwt>
<rscale>  0 0.52517498E+02</rscale>
<asrwt>0</asrwt>
<pdfrwt beam="1">  1        2 0.21969459E+00 0.57844324E+02</pdfrwt>
<pdfrwt beam="2">  1        1 0.26711621E-01 0.47681214E+02</pdfrwt>
<totfact> 0.38677948E+02</totfact>
</mgrwt>
</event>
<event>
 5    1  0.8459321E-003  0.1488747E+03  0.7546771E-02  0.1325116E+00
         -2   -1    0    0    0  501 -0.00000000000E+00  0.00000000000E+00  0.24223351770E+03  0.24223351770E+03  0.00000000000E+00 0.  1.
          2   -1    0    0  502    0  0.00000000000E+00 -0.00000000000E+00 -0.28745456409E+04  0.28745456409E+04  0.00000000000E+00 0. -1.
         25    1    1    2    0    0  0.56481982924E+02  0.10755191620E+03 -0.66132267034E+02  0.18642989518E+03  0.12500000000E+03 0.  0.
          1    1    1    2  502    0 -0.10086350335E+03 -0.11093916008E+03 -0.27434664166E+04  0.27475605403E+04  0.00000000000E+00 0. -1.
         -1    1    1    2    0  501  0.44381520422E+02  0.33872438835E+01  0.17728656046E+03  0.18278872311E+03  0.00000000000E+00 0.  1.
<mgrwt>
<rscale>  0 0.81403330E+02</rscale>
<asrwt>0</asrwt>
<pdfrwt beam="2">  1        2 0.44223777E+00 0.14887473E+03</pdfrwt>
<pdfrwt beam="1">  1       -2 0.37266697E-01 0.44510592E+02</pdfrwt>
<totfact> 0.18162961E+01</totfact>
</mgrwt>
</event>
<event>
 5    1  0.8459321E-003  0.6783373E+02  0.7546771E-02  0.1484092E+00
         -1   -1    0    0    0  501 -0.00000000000E+00  0.00000000000E+00  0.26808735684E+03  0.26808735684E+03  0.00000000000E+00 0.  1.
          1   -1    0    0  502    0  0.00000000000E+00 -0.00000000000E+00 -0.90939319267E+03  0.90939319267E+03  0.00000000000E+00 0. -1.
         25    1    1    2    0    0 -0.35740629017E+02 -0.62457157447E+02 -0.14164119206E+03  0.20215221089E+03  0.12500000000E+03 0.  0.
          2    1    1    2  502    0  0.83162132353E+01  0.67383952256E+02 -0.73511061509E+03  0.73823937368E+03  0.00000000000E+00 0. -1.
         -2    1    1    2    0  501  0.27424415782E+02 -0.49267948088E+01  0.23544597133E+03  0.23708896495E+03  0.00000000000E+00 0.  1.
<mgrwt>
<rscale>  0 0.43475071E+02</rscale>
<asrwt>0</asrwt>
<pdfrwt beam="2">  1        1 0.13990665E+00 0.67833729E+02</pdfrwt>
<pdfrwt beam="1">  1       -1 0.41244209E-01 0.27863451E+02</pdfrwt>
<totfact> 0.11871122E+02</totfact>
</mgrwt>
</event>
<event>
 5    1  0.8459321E-003  0.8752184E+02  0.7546771E-02  0.1424294E+00
          1   -1    0    0  501    0 -0.00000000000E+00  0.00000000000E+00  0.18505779523E+04  0.18505779523E+04  0.00000000000E+00 0. -1.
          2   -1    0    0  502    0  0.00000000000E+00 -0.00000000000E+00 -0.11856640792E+03  0.11856640792E+03  0.00000000000E+00 0. -1.
         25    1    1    2    0    0 -0.10121364817E+03  0.96937925433E+01  0.54777153326E+03  0.57097883046E+03  0.12500000000E+03 0.  0.
          2    1    1    2  501    0  0.79015844148E+02 -0.34742369966E+02  0.12871032353E+04  0.12899942923E+04  0.00000000000E+00 0. -1.
          1    1    1    2  502    0  0.22197804024E+02  0.25048577423E+02 -0.10286322415E+03  0.10817123747E+03  0.00000000000E+00 0. -1.
<mgrwt>
<rscale>  0 0.54122715E+02</rscale>
<asrwt>0</asrwt>
<pdfrwt beam="2">  1        2 0.18240987E-01 0.33468997E+02</pdfrwt>
<pdfrwt beam="1">  1        1 0.28470428E+00 0.87521844E+02</pdfrwt>
<totfact> 0.18419281E+02</totfact>
</mgrwt>
</event>
<event>
 5    1  0.8459321E-003  0.6824862E+02  0.7546771E-02  0.1396928E+00
          2   -1    0    0  502    0  0.00000000000E+00  0.00000000000E+00  0.90223455089E+03  0.90223455089E+03  0.00000000000E+00 0. -1.
         -2   -1    0    0    0  501 -0.00000000000E+00 -0.00000000000E+00 -0.47741267050E+03  0.47741267050E+03  0.00000000000E+00 0.  1.
         25    1    1    2    0    0  0.76925407579E+02 -0.67933684499E+02  0.11041725841E+03  0.19583021926E+03  0.12500000000E+03 0.  0.
          1    1    1    2  502    0 -0.65483606891E+02  0.16051944949E+02  0.74596145672E+03  0.74900217798E+03  0.00000000000E+00 0. -1.
         -1    1    1    2    0  501 -0.11441800688E+02  0.51881739550E+02 -0.43155683473E+03  0.43481482416E+03  0.00000000000E+00 0.  1.
<mgrwt>
<rscale>  0 0.60215793E+02</rscale>
<asrwt>0</asrwt>
<pdfrwt beam="1">  1        2 0.13880531E+00 0.68248619E+02</pdfrwt>
<pdfrwt beam="2">  1       -2 0.73448103E-01 0.53128426E+02</pdfrwt>
<totfact> 0.57473726E+01</totfact>
</mgrwt>
</event>
<event>
 5    1  0.8459321E-003  0.8604150E+02  0.7546771E-02  0.1339387E+00
          2   -1    0    0  502    0  0.00000000000E+00  0.00000000000E+00  0.77019108429E+02  0.77019108429E+02  0.00000000000E+00 0. -1.
          1   -1    0    0  501    0 -0.00000000000E+00 -0.00000000000E+00 -0.15363945777E+04  0.15363945777E+04  0.00000000000E+00 0. -1.
         25    1    1    2    0    0 -0.74375543058E+02  0.73937919154E+02 -0.91907030241E+03  0.93344188789E+03  0.12500000000E+03 0.  0.
          2    1    1    2  501    0 -0.11536792936E+02 -0.66972002101E+02 -0.58078355234E+03  0.58474599727E+03  0.00000000000E+00 0. -1.
          1    1    1    2  502    0  0.85912335994E+02 -0.69659170529E+01  0.40478385489E+02  0.95225800958E+02  0.00000000000E+00 0. -1.
<mgrwt>
<rscale>  0 0.76467277E+02</rscale>
<asrwt>0</asrwt>
<pdfrwt beam="1">  1        2 0.11849094E-01 0.86041502E+02</pdfrwt>
<pdfrwt beam="2">  1        1 0.23636839E+00 0.67958419E+02</pdfrwt>
<totfact> 0.51368030E+02</totfact>
</mgrwt>
</event>
<event>
 5    1  0.8459321E-003  0.7449887E+02  0.7546771E-02  0.1360484E+00
          2   -1    0    0  502    0  0.00000000000E+00  0.00000000000E+00  0.16359908466E+04  0.16359908466E+04  0.00000000000E+00 0. -1.
         -2   -1    0    0    0  501 -0.00000000000E+00 -0.00000000000E+00 -0.60679722857E+02  0.60679722857E+02  0.00000000000E+00 0.  1.
         25    1    1    2    0    0  0.24551835172E+02 -0.12742393185E+03  0.75113192355E+03  0.77244017088E+03  0.12500000000E+03 0.  0.
          1    1    1    2  502    0 -0.27675524207E+02  0.61941197962E+02  0.85078090396E+03  0.85348157168E+03  0.00000000000E+00 0. -1.
         -1    1    1    2    0  501  0.31236890351E+01  0.65482733885E+02 -0.26601703737E+02  0.70748826930E+02  0.00000000000E+00 0.  1.
<mgrwt>
<rscale>  0 0.69885172E+02</rscale>
<asrwt>0</asrwt>
<pdfrwt beam="1">  1        2 0.25169087E+00 0.74498874E+02</pdfrwt>
<pdfrwt beam="2">  1       -2 0.93353432E-02 0.65557195E+02</pdfrwt>
<totfact> 0.87344089E+02</totfact>
</mgrwt>
</event>
<event>
 5    1  0.8459321E-003  0.6958962E+02  0.7546771E-02  0.1481217E+00
          2   -1    0    0  502    0  0.00000000000E+00  0.00000000000E+00  0.20794659939E+02  0.20794659939E+02  0.00000000000E+00 0. -1.
          1   -1    0    0  501    0 -0.00000000000E+00 -0.00000000000E+00 -0.14896185201E+04  0.14896185201E+04  0.00000000000E+00 0. -1.
         25    1    1    2    0    0 -0.29053238511E+01 -0.43999327288E+02 -0.31641772919E+03  0.34305912180E+03  0.12500000000E+03 0.  0.
          2    1    1    2  501    0  0.65715113002E+01  0.71471411996E+02 -0.11284204440E+04  0.11307006880E+04  0.00000000000E+00 0. -1.
          1    1    1    2  502    0 -0.36661874491E+01 -0.27472084708E+02 -0.23985687031E+02  0.36653370254E+02  0.00000000000E+00 0. -1.
<mgrwt>
<rscale>  0 0.43917200E+02</rscale>
<asrwt>0</asrwt>
<pdfrwt beam="1">  1        2 0.31991788E-02 0.27715634E+02</pdfrwt>
<pdfrwt beam="2">  1        1 0.22917205E+00 0.69589620E+02</pdfrwt>
<totfact> 0.24745287E+03</totfact>
</mgrwt>
</event>
<event>
 5    1  0.8459321E-003  0.6735587E+02  0.7546771E-02  0.1438850E+00
          2   -1    0    0  502    0  0.00000000000E+00  0.00000000000E+00  0.44916669273E+03  0.44916669273E+03  0.00000000000E+00 0. -1.
         -2   -1    0    0    0  501 -0.00000000000E+00 -0.00000000000E+00 -0.48635277680E+02  0.48635277680E+02  0.00000000000E+00 0.  1.
         25    1    1    2    0    0 -0.34356371834E+01  0.99515983989E+02  0.23734587824E+03  0.28613510898E+03  0.12500000000E+03 0.  0.
          1    1    1    2  502    0  0.93750913661E+01 -0.37810693966E+02  0.14026604946E+03  0.14557508560E+03  0.00000000000E+00 0. -1.
         -1    1    1    2    0  501 -0.59394541828E+01 -0.61705290023E+02  0.22919487356E+02  0.66091775839E+02  0.00000000000E+00 0.  1.
<mgrwt>
<rscale>  0 0.51223922E+02</rscale>
<asrwt>0</asrwt>
<pdfrwt beam="1">  1        2 0.69102565E-01 0.38955628E+02</pdfrwt>
<pdfrwt beam="2">  1       -2 0.74823507E-02 0.67355870E+02</pdfrwt>
<totfact> 0.67407561E+03</totfact>
</mgrwt>
</event>
<event>
 5    1  0.8459321E-003  0.1249593E+03  0.7546771E-02  0.1333551E+00
          2   -1    0    0  502    0  0.00000000000E+00  0.00000000000E+00  0.17051530302E+04  0.17051530302E+04  0.00000000000E+00 0. -1.
          1   -1    0    0  501    0 -0.00000000000E+00 -0.00000000000E+00 -0.38630390127E+03  0.38630390127E+03  0.00000000000E+00 0. -1.
         25    1    1    2    0    0 -0.12295395609E+03  0.79608138045E+02 -0.14221625141E+03  0.23938586660E+03  0.12500000000E+03 0.  0.
          2    1    1    2  501    0  0.19276790033E+01 -0.49195074289E+02 -0.19001097761E+03  0.19628561561E+03  0.00000000000E+00 0. -1.
          1    1    1    2  502    0  0.12102627709E+03 -0.30413063755E+02  0.16510763579E+04  0.16557854493E+04  0.00000000000E+00 0. -1.
<mgrwt>
<rscale>  0 0.78435336E+02</rscale>
<asrwt>0</asrwt>
<pdfrwt beam="1">  1        2 0.26233123E+00 0.12495935E+03</pdfrwt>
<pdfrwt beam="2">  1        1 0.59431370E-01 0.49232827E+02</pdfrwt>
<totfact> 0.10065888E+02</totfact>
</mgrwt>
</event>
<event>
 5    1  0.8459321E-003  0.1278819E+03  0.7546771E-02  0.1317532E+00
         -2   -1    0    0    0  501 -0.00000000000E+00  0.00000000000E+00  0.15130303946E+03  0.15130303946E+03  0.00000000000E+00 0.  1.
          2   -1    0    0  502    0  0.00000000000E+00 -0.00000000000E+00 -0.25952444782E+04  0.25952444782E+04  0.00000000000E+00 0. -1.
         25    1    1    2    0    0  0.10876682319E+03  0.89776873296E+02 -0.14552094668E+03  0.23809967394E+03  0.12500000000E+03 0.  0.
          1    1    1    2  502    0 -0.50384969013E+02  0.23133432778E+02 -0.23645253683E+04  0.23651752617E+04  0.00000000000E+00 0. -1.
         -1    1    1    2    0  501 -0.58381854174E+02 -0.11291030607E+03  0.66104876258E+02  0.14327258209E+03  0.00000000000E+00 0.  1.
<mgrwt>
<rscale>  0 0.84202192E+02</rscale>
<asrwt>0</asrwt>
<pdfrwt beam="2">  1        2 0.39926836E+00 0.55441869E+02</pdfrwt>
<pdfrwt beam="1">  1       -2 0.23277392E-01 0.12788186E+03</pdfrwt>
<totfact> 0.70551594E+01</totfact>
</mgrwt>
</event>
<event>
 5    1  0.8459321E-003  0.1918789E+03  0.7546771E-02  0.1200330E+00
         -2   -1    0    0    0  501 -0.00000000000E+00  0.00000000000E+00  0.31663199090E+03  0.31663199090E+03  0.00000000000E+00 0.  1.
          2   -1    0    0  502    0  0.00000000000E+00 -0.00000000000E+00 -0.33445817102E+04  0.33445817102E+04  0.00000000000E+00 0. -1.
         25    1    1    2    0    0  0.13354660497E+03  0.59699805189E+02 -0.47134603349E+03  0.50910789203E+03  0.12500000000E+03 0.  0.
          1    1    1    2  502    0 -0.10816101880E+03 -0.17436759046E+03 -0.28389250091E+04  0.28463306326E+04  0.00000000000E+00 0. -1.
         -1    1    1    2    0  501 -0.25385586175E+02  0.11466778527E+03  0.28232132331E+03  0.30577517649E+03  0.00000000000E+00 0.  1.
<mgrwt>
<rscale>  0 0.15011681E+03</rscale>
<asrwt>0</asrwt>
<pdfrwt beam="2">  1        2 0.51455104E+00 0.19187892E+03</pdfrwt>
<pdfrwt beam="1">  1       -2 0.48712614E-01 0.11744415E+03</pdfrwt>
<totfact> 0.55727292E+00</totfact>
</mgrwt>
</event>
<event>
 5    1  0.8459321E-003  0.5861022E+02  0.7546771E-02  0.1417230E+00
          2   -1    0    0  502    0  0.00000000000E+00  0.00000000000E+00  0.18745888008E+04  0.18745888008E+04  0.00000000000E+00 0. -1.
          1   -1    0    0  501    0 -0.00000000000E+00 -0.00000000000E+00 -0.11829560919E+02  0.11829560919E+02  0.00000000000E+00 0. -1.
         25    1    1    2    0    0 -0.36060924524E+02 -0.29342324610E+02  0.72891110092E+03  0.74101130581E+03  0.12500000000E+03 0.  0.
          2    1    1    2  501    0  0.40205086106E+02 -0.34172903550E+02  0.14147461944E+03  0.15099438477E+03  0.00000000000E+00 0. -1.
          1    1    1    2  502    0 -0.41441615818E+01  0.63515228160E+02  0.99237351956E+03  0.99441267118E+03  0.00000000000E+00 0. -1.
<mgrwt>
<rscale>  0 0.55611321E+02</rscale>
<asrwt>0</asrwt>
<pdfrwt beam="1">  1        2 0.28839804E+00 0.58610223E+02</pdfrwt>
<pdfrwt beam="2">  1        1 0.18199339E-02 0.52765863E+02</pdfrwt>
<totfact> 0.76476421E+03</totfact>
</mgrwt>
</event>
<event>
 5    1  0.8459321E-003  0.1708082E+03  0.7546771E-02  0.1246916E+00
         -2   -1    0    0    0  501 -0.00000000000E+00  0.00000000000E+00  0.48683230973E+02  0.48683230973E+02  0.00000000000E+00 0.  1.
          2   -1    0    0  502    0  0.00000000000E+00 -0.00000000000E+00 -0.31110767967E+04  0.31110767967E+04  0.00000000000E+00 0. -1.
         25    1    1    2    0    0 -0.13585852985E+03 -0.96422969883E+01 -0.37498700670E+03  0.41807985986E+03  0.12500000000E+03 0.  0.
          1    1    1    2  502    0 -0.70711511989E+02  0.39762076311E+02 -0.23015005966E+04  0.23029299028E+04  0.00000000000E+00 0. -1.
         -1    1    1    2    0  501  0.20657004184E+03 -0.30119779323E+02 -0.38590596242E+03  0.43875026510E+03  0.00000000000E+00 0.  1.
<mgrwt>
<rscale>  0 0.11771440E+03</rscale>
<asrwt>0</asrwt>
<pdfrwt beam="2">  1        2 0.47862719E+00 0.81124230E+02</pdfrwt>
<pdfrwt beam="1">  1       -2 0.74897280E-02 0.17080817E+03</pdfrwt>
<totfact> 0.22084047E+02</totfact>
</mgrwt>
</event>
<event>
 5    1  0.8459321E-003  0.6023184E+02  0.7546771E-02  0.1494907E+00
          1   -1    0    0  501    0 -0.00000000000E+00  0.00000000000E+00  0.13071710304E+04  0.13071710304E+04  0.00000000000E+00 0. -1.
          2   -1    0    0  502    0  0.00000000000E+00 -0.00000000000E+00 -0.10093264868E+03  0.10093264868E+03  0.00000000000E+00 0. -1.
         25    1    1    2    0    0 -0.52141617493E+01 -0.81544084792E+02  0.56516084995E+03  0.58455830468E+03  0.12500000000E+03 0.  0.
          2    1    1    2  501    0 -0.14785523963E+02  0.25065393591E+02  0.72214980585E+03  0.72273593224E+03  0.00000000000E+00 0. -1.
          1    1    1    2  502    0  0.19999685713E+02  0.56478691200E+02 -0.81072274118E+02  0.10080944211E+03  0.00000000000E+00 0. -1.
<mgrwt>
<rscale>  0 0.41866752E+02</rscale>
<asrwt>0</asrwt>
<pdfrwt beam="2">  1        2 0.15528101E-01 0.60231841E+02</pdfrwt>
<pdfrwt beam="1">  1        1 0.20110322E+00 0.29101300E+02</pdfrwt>
<totfact> 0.55672942E+02</totfact>
</mgrwt>
</event>
<event>
 5    1  0.8459321E-003  0.6478715E+02  0.7546771E-02  0.1401348E+00
          1   -1    0    0  502    0  0.00000000000E+00  0.00000000000E+00  0.14824888225E+04  0.14824888225E+04  0.00000000000E+00 0. -1.
         -1   -1    0    0    0  501 -0.00000000000E+00 -0.00000000000E+00 -0.10400182066E+03  0.10400182066E+03  0.00000000000E+00 0.  1.
         25    1    1    2    0    0  0.46505249630E+02 -0.18073684006E+02  0.30493341178E+03  0.33331483903E+03  0.12500000000E+03 0.  0.
          2    1    1    2  502    0 -0.28911912356E+02 -0.45655572789E+02  0.11504768748E+04  0.11517453579E+04  0.00000000000E+00 0. -1.
         -2    1    1    2    0  501 -0.17593337274E+02  0.63729256795E+02 -0.76923284739E+02  0.10143044623E+03  0.00000000000E+00 0.  1.
<mgrwt>
<rscale>  0 0.59170115E+02</rscale>
<asrwt>0</asrwt>
<pdfrwt beam="1">  1        1 0.22807519E+00 0.54040078E+02</pdfrwt>
<pdfrwt beam="2">  1       -1 0.16000281E-01 0.64787148E+02</pdfrwt>
<totfact> 0.23444567E+02</totfact>
</mgrwt>
</event>
<event>
 5    1  0.8459321E-003  0.9422475E+02  0.7546771E-02  0.1360797E+00
         -2   -1    0    0    0  501  0.00000000000E+00  0.00000000000E+00  0.37206598996E+03  0.37206598996E+03  0.00000000000E+00 0.  1.
         -1   -1    0    0    0  502 -0.00000000000E+00 -0.00000000000E+00 -0.23491704732E+04  0.23491704732E+04  0.00000000000E+00 0.  1.
         25    1    1    2    0    0 -0.11487989742E+03 -0.54488930165E+02  0.12517976442E+03  0.21785639252E+03  0.12500000000E+03 0.  0.
         -2    1    1    2    0  502  0.51243596225E+02 -0.68290268688E+01 -0.22927914564E+04  0.22933741963E+04  0.00000000000E+00 0.  1.
         -1    1    1    2    0  501  0.63636301194E+02  0.61317957034E+02  0.19050720872E+03  0.21000587435E+03  0.00000000000E+00 0.  1.
<mgrwt>
<rscale>  0 0.69793284E+02</rscale>
<asrwt>0</asrwt>
<pdfrwt beam="1">  1       -2 0.57240923E-01 0.94224755E+02</pdfrwt>
<pdfrwt beam="2">  1       -1 0.36141083E+00 0.51696632E+02</pdfrwt>
<totfact> 0.44444560E-01</totfact>
</mgrwt>
</event>
<event>
 5    1  0.8459321E-003  0.1677405E+03  0.7546771E-02  0.1333924E+00
          2   -1    0    0  502    0  0.00000000000E+00  0.00000000000E+00  0.47635589328E+03  0.47635589328E+03  0.00000000000E+00 0. -1.
          1   -1    0    0  501    0 -0.00000000000E+00 -0.00000000000E+00 -0.21041221105E+03  0.21041221105E+03  0.00000000000E+00 0. -1.
         25    1    1    2    0    0 -0.19641768220E+03  0.17964037981E+02  0.72482413600E+02  0.24450217345E+03  0.12500000000E+03 0.  0.
          2    1    1    2  501    0  0.36277028852E+02 -0.45161462835E+01 -0.10066646426E+03  0.10709881151E+03  0.00000000000E+00 0. -1.
          1    1    1    2  502    0  0.16014065335E+03 -0.13447891697E+02  0.29412773289E+03  0.33516711936E+03  0.00000000000E+00 0. -1.
<mgrwt>
<rscale>  0 0.78307720E+02</rscale>
<asrwt>0</asrwt>
<pdfrwt beam="1">  1        2 0.73285521E-01 0.16774050E+03</pdfrwt>
<pdfrwt beam="2">  1        1 0.32371110E-01 0.36557057E+02</pdfrwt>
<totfact> 0.11965781E+03</totfact>
</mgrwt>
</event>
<event>
 5    1  0.8459321E-003  0.2132343E+03  0.7546771E-02  0.1295063E+00
          2   -1    0    0  502    0  0.00000000000E+00  0.00000000000E+00  0.27182893044E+03  0.27182893044E+03  0.00000000000E+00 0. -1.
          1   -1    0    0  501    0 -0.00000000000E+00 -0.00000000000E+00 -0.13873452339E+04  0.13873452339E+04  0.00000000000E+00 0. -1.
         25    1    1    2    0    0 -0.91056144534E+02 -0.23272066096E+03 -0.42529389722E+02  0.28263735862E+03  0.12500000000E+03 0.  0.
          2    1    1    2  501    0  0.67547960961E+02  0.19935118567E+03 -0.12127781634E+04  0.12309079965E+04  0.00000000000E+00 0. -1.
          1    1    1    2  502    0  0.23508183572E+02  0.33369475289E+02  0.13979124968E+03  0.14562880918E+03  0.00000000000E+00 0. -1.
<mgrwt>
<rscale>  0 0.93294803E+02</rscale>
<asrwt>0</asrwt>
<pdfrwt beam="1">  1        2 0.41819835E-01 0.40818581E+02</pdfrwt>
<pdfrwt beam="2">  1        1 0.21343773E+00 0.21323427E+03</pdfrwt>
<totfact> 0.14173236E+02</totfact>
</mgrwt>
</event>
<event>
 5    1  0.8459321E-003  0.5182211E+02  0.7546771E-02  0.1519941E+00
          1   -1    0    0  501    0 -0.00000000000E+00  0.00000000000E+00  0.33225178585E+02  0.33225178585E+02  0.00000000000E+00 0. -1.
          2   -1    0    0  502    0  0.00000000000E+00 -0.00000000000E+00 -0.15323172771E+04  0.15323172771E+04  0.00000000000E+00 0. -1.
         25    1    1    2    0    0  0.31119607425E+02  0.19171800490E+02 -0.47652338973E+03  0.49399952313E+03  0.12500000000E+03 0.  0.
          2    1    1    2  501    0 -0.24640295882E+02 -0.46954120060E+02 -0.46562176446E+01  0.53230761168E+02  0.00000000000E+00 0. -1.
          1    1    1    2  502    0 -0.64793115428E+01  0.27782319570E+02 -0.10179124912E+04  0.10183121714E+04  0.00000000000E+00 0. -1.
<mgrwt>
<rscale>  0 0.38449626E+02</rscale>
<asrwt>0</asrwt>
<pdfrwt beam="2">  1        2 0.23574108E+00 0.28527859E+02</pdfrwt>
<pdfrwt beam="1">  1        1 0.51115667E-02 0.51822106E+02</pdfrwt>
<totfact> 0.30018579E+03</totfact>
</mgrwt>
</event>
<event>
 5    1  0.8459321E-003  0.1424403E+03  0.7546771E-02  0.1237631E+00
         -2   -1    0    0    0  501 -0.00000000000E+00  0.00000000000E+00  0.10168499820E+04  0.10168499820E+04  0.00000000000E+00 0.  1.
          2   -1    0    0  502    0  0.00000000000E+00 -0.00000000000E+00 -0.85497284172E+03  0.85497284172E+03  0.00000000000E+00 0. -1.
         25    1    1    2    0    0  0.53294474976E+02  0.12434305997E+03 -0.26884361760E+03  0.32588861341E+03  0.12500000000E+03 0.  0.
          1    1    1    2  502    0  0.79719932436E+02 -0.71162165469E+02 -0.54722043333E+03  0.55755674516E+03  0.00000000000E+00 0. -1.
         -1    1    1    2    0  501 -0.13301440741E+03 -0.53180894500E+02  0.97794119117E+03  0.98837746510E+03  0.00000000000E+00 0.  1.
<mgrwt>
<rscale>  0 0.12337480E+03</rscale>
<asrwt>0</asrwt>
<pdfrwt beam="2">  1        2 0.13153428E+00 0.10686123E+03</pdfrwt>
<pdfrwt beam="1">  1       -2 0.15643846E+00 0.14244027E+03</pdfrwt>
<totfact> 0.10080832E+01</totfact>
</mgrwt>
</event>
<event>
 5    1  0.8459321E-003  0.4418973E+02  0.7546771E-02  0.1552426E+00
          2   -1    0    0  502    0  0.00000000000E+00  0.00000000000E+00  0.13853561164E+04  0.13853561164E+04  0.00000000000E+00 0. -1.
         -2   -1    0    0    0  501 -0.00000000000E+00 -0.00000000000E+00 -0.44377657367E+02  0.44377657367E+02  0.00000000000E+00 0.  1.
         25    1    1    2    0    0 -0.14410567910E+02  0.10861114811E+02  0.27951351283E+03  0.30672207638E+03  0.12500000000E+03 0.  0.
          1    1    1    2  502    0  0.36502787820E+02 -0.26468313921E+02  0.10857347651E+04  0.10866706057E+04  0.00000000000E+00 0. -1.
         -1    1    1    2    0  501 -0.22092219910E+02  0.15607199110E+02 -0.24269818821E+02  0.36341091759E+02  0.00000000000E+00 0.  1.
<mgrwt>
<rscale>  0 0.34572967E+02</rscale>
<asrwt>0</asrwt>
<pdfrwt beam="1">  1        2 0.21313168E+00 0.44189732E+02</pdfrwt>
<pdfrwt beam="2">  1       -2 0.68273330E-02 0.27049045E+02</pdfrwt>
<totfact> 0.17826966E+03</totfact>
</mgrwt>
</event>
<event>
 5    1  0.8459321E-003  0.5794667E+02  0.7546771E-02  0.1516069E+00
          1   -1    0    0  501    0 -0.00000000000E+00  0.00000000000E+00  0.91680023045E+02  0.91680023045E+02  0.00000000000E+00 0. -1.
          2   -1    0    0  502    0  0.00000000000E+00 -0.00000000000E+00 -0.13302830440E+04  0.13302830440E+04  0.00000000000E+00 0. -1.
         25    1    1    2    0    0  0.34095070400E+02  0.71924498232E+01 -0.65151700898E+02  0.14520313113E+03  0.12500000000E+03 0.  0.
          2    1    1    2  501    0  0.24206864878E+02 -0.99805221795E+01  0.47593644122E+02  0.54320696709E+02  0.00000000000E+00 0. -1.
          1    1    1    2  502    0 -0.58301935278E+02  0.27880723563E+01 -0.12210449642E+04  0.12224392392E+04  0.00000000000E+00 0. -1.
<mgrwt>
<rscale>  0 0.38951956E+02</rscale>
<asrwt>0</asrwt>
<pdfrwt beam="2">  1        2 0.20465891E+00 0.57946671E+02</pdfrwt>
<pdfrwt beam="1">  1        1 0.14104620E-01 0.26183642E+02</pdfrwt>
<totfact> 0.91387249E+02</totfact>
</mgrwt>
</event>
<event>
 5    1  0.8459321E-003  0.8488003E+02  0.7546771E-02  0.1316573E+00
          1   -1    0    0  501    0 -0.00000000000E+00  0.00000000000E+00  0.21959054638E+04  0.21959054638E+04  0.00000000000E+00 0. -1.
          2   -1    0    0  502    0  0.00000000000E+00 -0.00000000000E+00 -0.36578527547E+02  0.36578527547E+02  0.00000000000E+00 0. -1.
         25    1    1    2    0    0  0.54058491328E+02  0.62478820889E+02  0.17942912361E+04  0.18005365765E+04  0.12500000000E+03 0.  0.
          2    1    1    2  501    0 -0.82007652891E+02  0.19316799665E+02  0.32670003484E+03  0.33738895454E+03  0.00000000000E+00 0. -1.
          1    1    1    2  502    0  0.27949161562E+02 -0.81795620554E+02  0.38335665337E+02  0.94558460281E+02  0.00000000000E+00 0. -1.
<mgrwt>
<rscale>  0 0.84565417E+02</rscale>
<asrwt>0</asrwt>
<pdfrwt beam="2">  1        2 0.56274675E-02 0.84880034E+02</pdfrwt>
<pdfrwt beam="1">  1        1 0.33783151E+00 0.84251967E+02</pdfrwt>
<totfact> 0.48582195E+02</totfact>
</mgrwt>
</event>
<event>
 5    1  0.8459321E-003  0.4326884E+02  0.7546771E-02  0.1504013E+00
          1   -1    0    0  502    0  0.00000000000E+00  0.00000000000E+00  0.73042353965E+02  0.73042353965E+02  0.00000000000E+00 0. -1.
         -1   -1    0    0    0  501 -0.00000000000E+00 -0.00000000000E+00 -0.59519027761E+03  0.59519027761E+03  0.00000000000E+00 0.  1.
         25    1    1    2    0    0 -0.36682192002E+02 -0.68266950148E+02 -0.69359906754E+02  0.16260921363E+03  0.12500000000E+03 0.  0.
          2    1    1    2  502    0  0.73897034181E+01  0.37326764155E+02  0.11214064237E+02  0.39669261092E+02  0.00000000000E+00 0. -1.
         -2    1    1    2    0  501  0.29292488584E+02  0.30940185993E+02 -0.46400208113E+03  0.46595415685E+03  0.00000000000E+00 0.  1.
<mgrwt>
<rscale>  0 0.40576248E+02</rscale>
<asrwt>0</asrwt>
<pdfrwt beam="1">  1        1 0.11237285E-01 0.38051216E+02</pdfrwt>
<pdfrwt beam="2">  1       -1 0.91567738E-01 0.43268839E+02</pdfrwt>
<totfact> 0.64107593E+02</totfact>
</mgrwt>
</event>
<event>
 5    1  0.8459321E-003  0.1360903E+03  0.7546771E-02  0.1251478E+00
         -1   -1    0    0    0  501 -0.00000000000E+00  0.00000000000E+00  0.68431339518E+02  0.68431339518E+02  0.00000000000E+00 0.  1.
          1   -1    0    0  502    0  0.00000000000E+00 -0.00000000000E+00 -0.17842833211E+04  0.17842833211E+04  0.00000000000E+00 0. -1.
         25    1    1    2    0    0 -0.34280120747E+02  0.16664935754E+03 -0.49005488423E+03  0.53359715573E+03  0.12500000000E+03 0.  0.
          2    1    1    2  502    0  0.87138400343E+02 -0.43242869439E+02 -0.11695036011E+04  0.11735423808E+04  0.00000000000E+00 0. -1.
         -2    1    1    2    0  501 -0.52858279597E+02 -0.12340648810E+03 -0.56293496237E+02  0.14557512406E+03  0.00000000000E+00 0.  1.
<mgrwt>
<rscale>  0 0.11505919E+03</rscale>
<asrwt>0</asrwt>
<pdfrwt beam="2">  1        1 0.27450513E+00 0.97278192E+02</pdfrwt>
<pdfrwt beam="1">  1       -1 0.10527898E-01 0.13609028E+03</pdfrwt>
<totfact> 0.28242007E+02</totfact>
</mgrwt>
</event>
<event>
 5    1  0.8459321E-003  0.7441661E+02  0.7546771E-02  0.1415979E+00
          2   -1    0    0  502    0  0.00000000000E+00  0.00000000000E+00  0.42248861699E+03  0.42248861699E+03  0.00000000000E+00 0. -1.
          1   -1    0    0  501    0 -0.00000000000E+00 -0.00000000000E+00 -0.50421809839E+03  0.50421809839E+03  0.00000000000E+00 0. -1.
         25    1    1    2    0    0 -0.17175119533E+02 -0.60748086042E+02 -0.21149170333E+03  0.25365144444E+03  0.12500000000E+03 0.  0.
          2    1    1    2  501    0  0.58597147320E+02  0.54039338185E+02 -0.26466199880E+03  0.27640522671E+03  0.00000000000E+00 0. -1.
          1    1    1    2  502    0 -0.41422027787E+02  0.67087478576E+01  0.39442422073E+03  0.39665004422E+03  0.00000000000E+00 0. -1.
<mgrwt>
<rscale>  0 0.55880713E+02</rscale>
<asrwt>0</asrwt>
<pdfrwt beam="1">  1        2 0.64998249E-01 0.41961788E+02</pdfrwt>
<pdfrwt beam="2">  1        1 0.77572015E-01 0.74416611E+02</pdfrwt>
<totfact> 0.47814152E+02</totfact>
</mgrwt>
</event>
<event>
 5    1  0.8459321E-003  0.3230480E+02  0.7546771E-02  0.1582029E+00
         -1   -1    0    0    0  501 -0.00000000000E+00  0.00000000000E+00  0.84333706002E+02  0.84333706002E+02  0.00000000000E+00 0.  1.
          1   -1    0    0  502    0  0.00000000000E+00 -0.00000000000E+00 -0.74969018301E+03  0.74969018301E+03  0.00000000000E+00 0. -1.
         25    1    1    2    0    0  0.54519254791E+01  0.47915144728E-01 -0.11358475627E+03  0.16898586522E+03  0.12500000000E+03 0.  0.
          2    1    1    2  502    0  0.12336924257E+02  0.28138460047E+02 -0.60307571575E+03  0.60385784052E+03  0.00000000000E+00 0. -1.
         -2    1    1    2    0  501 -0.17788849736E+02 -0.28186375191E+02  0.51303995009E+02  0.61180183273E+02  0.00000000000E+00 0.  1.
<mgrwt>
<rscale>  0 0.31504556E+02</rscale>
<asrwt>0</asrwt>
<pdfrwt beam="2">  1        1 0.11533695E+00 0.30724138E+02</pdfrwt>
<pdfrwt beam="1">  1       -1 0.12974417E-01 0.32304798E+02</pdfrwt>
<totfact> 0.10101997E+03</totfact>
</mgrwt>
</event>
<event>
 5    1  0.8459321E-003  0.8497211E+02  0.7546771E-02  0.1438534E+00
         -2   -1    0    0    0  501 -0.00000000000E+00  0.00000000000E+00  0.62525280408E+02  0.62525280408E+02  0.00000000000E+00 0.  1.
          2   -1    0    0  502    0  0.00000000000E+00 -0.00000000000E+00 -0.11661856033E+04  0.11661856033E+04  0.00000000000E+00 0. -1.
         25    1    1    2    0    0  0.10727238565E+03  0.57550892512E+01 -0.30022985139E+03  0.34249591157E+03  0.12500000000E+03 0.  0.
          1    1    1    2  502    0 -0.27445090295E+02  0.14311715976E+02 -0.80330794533E+03  0.80390404479E+03  0.00000000000E+00 0. -1.
         -1    1    1    2    0  501 -0.79827295357E+02 -0.20066805227E+02 -0.12252621526E+00  0.82310927395E+02  0.00000000000E+00 0.  1.
<mgrwt>
<rscale>  0 0.51284507E+02</rscale>
<asrwt>0</asrwt>
<pdfrwt beam="2">  1        2 0.17941315E+00 0.30952515E+02</pdfrwt>
<pdfrwt beam="1">  1       -2 0.96192749E-02 0.84972114E+02</pdfrwt>
<totfact> 0.15734115E+03</totfact>
</mgrwt>
</event>
<event>
 5    1  0.8459321E-003  0.6464692E+02  0.7546771E-02  0.1446779E+00
         -1   -1    0    0    0  501 -0.00000000000E+00  0.00000000000E+00  0.35706731878E+03  0.35706731878E+03  0.00000000000E+00 0.  1.
          1   -1    0    0  502    0  0.00000000000E+00 -0.00000000000E+00 -0.16549788564E+03  0.16549788564E+03  0.00000000000E+00 0. -1.
         25    1    1    2    0    0  0.44915853921E+02 -0.29814717312E+02  0.18483086084E+03  0.22955129802E+03  0.12500000000E+03 0.  0.
          2    1    1    2  502    0 -0.65356104009E+02 -0.25297789342E+01 -0.13295685582E+03  0.14817336340E+03  0.00000000000E+00 0. -1.
         -2    1    1    2    0  501  0.20440250088E+02  0.32344496247E+02  0.13969542812E+03  0.14484054301E+03  0.00000000000E+00 0.  1.
<mgrwt>
<rscale>  0 0.49734413E+02</rscale>
<asrwt>0</asrwt>
<pdfrwt beam="2">  1        1 0.25461213E-01 0.64646924E+02</pdfrwt>
<pdfrwt beam="1">  1       -1 0.54933433E-01 0.38261864E+02</pdfrwt>
<totfact> 0.63761162E+02</totfact>
</mgrwt>
</event>
<event>
 5    1  0.8459321E-003  0.7907221E+02  0.7546771E-02  0.1396142E+00
         -1   -1    0    0    0  501 -0.00000000000E+00  0.00000000000E+00  0.40371833955E+03  0.40371833955E+03  0.00000000000E+00 0.  1.
          1   -1    0    0  502    0  0.00000000000E+00 -0.00000000000E+00 -0.29105664326E+04  0.29105664326E+04  0.00000000000E+00 0. -1.
         25    1    1    2    0    0 -0.28334094416E+02 -0.10818696269E+03  0.12367793826E+03  0.20839499085E+03  0.12500000000E+03 0.  0.
          2    1    1    2  502    0  0.44773551931E+02  0.65070711598E+02 -0.28654189271E+04  0.28665073690E+04  0.00000000000E+00 0. -1.
         -2    1    1    2    0  501 -0.16439457515E+02  0.43116251087E+02  0.23489289577E+03  0.23938241238E+03  0.00000000000E+00 0.  1.
<mgrwt>
<rscale>  0 0.60404522E+02</rscale>
<asrwt>0</asrwt>
<pdfrwt beam="2">  1        1 0.44777945E+00 0.79072206E+02</pdfrwt>
<pdfrwt beam="1">  1       -1 0.62110514E-01 0.46143980E+02</pdfrwt>
<totfact> 0.28964638E+00</totfact>
</mgrwt>
</event>
<event>
 5    1  0.8459321E-003  0.1242192E+03  0.7546771E-02  0.1395817E+00
          1   -1    0    0  501    0 -0.00000000000E+00  0.00000000000E+00  0.66464456301E+03  0.66464456301E+03  0.00000000000E+00 0. -1.
          2   -1    0    0  502    0  0.00000000000E+00 -0.00000000000E+00 -0.67818143877E+03  0.67818143877E+03  0.00000000000E+00 0. -1.
         25    1    1    2    0    0 -0.17686813820E+02  0.97575916489E+02  0.34536636146E+02  0.16325336780E+03  0.12500000000E+03 0.  0.
          2    1    1    2  501    0  0.90590700034E+01  0.28021314010E+02  0.55890274292E+03  0.55967806535E+03  0.00000000000E+00 0. -1.
          1    1    1    2  502    0  0.86277438167E+01 -0.12559723050E+03 -0.60697625484E+03  0.61989456862E+03  0.00000000000E+00 0. -1.
<mgrwt>
<rscale>  0 0.60482781E+02</rscale>
<asrwt>0</asrwt>
<pdfrwt beam="2">  1        2 0.10433561E+00 0.12421918E+03</pdfrwt>
<pdfrwt beam="1">  1        1 0.10225301E+00 0.29449292E+02</pdfrwt>
<totfact> 0.20233450E+02</totfact>
</mgrwt>
</event>
<event>
 5    1  0.8459321E-003  0.8411855E+02  0.7546771E-02  0.1359238E+00
         -2   -1    0    0    0  501 -0.00000000000E+00  0.00000000000E+00  0.96364378158E+02  0.96364378158E+02  0.00000000000E+00 0.  1.
          2   -1    0    0  502    0  0.00000000000E+00 -0.00000000000E+00 -0.98362293829E+03  0.98362293829E+03  0.00000000000E+00 0. -1.
         25    1    1    2    0    0  0.15567048464E+02  0.11682588101E+03 -0.91998722587E+02  0.19488300190E+03  0.12500000000E+03 0.  0.
          1    1    1    2  502    0 -0.48068599863E+02 -0.67979626247E+02 -0.81796625130E+03  0.82219256148E+03  0.00000000000E+00 0. -1.
         -1    1    1    2    0  501  0.32501551399E+02 -0.48846254764E+02  0.22706413764E+02  0.62911753066E+02  0.00000000000E+00 0.  1.
<mgrwt>
<rscale>  0 0.70251938E+02</rscale>
<asrwt>0</asrwt>
<pdfrwt beam="2">  1        2 0.15132661E+00 0.84118553E+02</pdfrwt>
<pdfrwt beam="1">  1       -2 0.14825289E-01 0.58671181E+02</pdfrwt>
<totfact> 0.92568311E+02</totfact>
</mgrwt>
</event>
<event>
 5    1  0.8459321E-003  0.7791847E+02  0.7546771E-02  0.1424728E+00
          2   -1    0    0  502    0  0.00000000000E+00  0.00000000000E+00  0.15196743178E+03  0.15196743178E+03  0.00000000000E+00 0. -1.
          1   -1    0    0  501    0 -0.00000000000E+00 -0.00000000000E+00 -0.24765976104E+03  0.24765976104E+03  0.00000000000E+00 0. -1.
         25    1    1    2    0    0 -0.66050099825E+02 -0.32597495601E+02  0.20641288513E+02  0.14654785975E+03  0.12500000000E+03 0.  0.
          2    1    1    2  501    0  0.79158616581E+02 -0.25040640588E+01 -0.17004857093E+03  0.18758697554E+03  0.00000000000E+00 0. -1.
          1    1    1    2  502    0 -0.13108516755E+02  0.35101559659E+02  0.53714953161E+02  0.65492357533E+02  0.00000000000E+00 0. -1.
<mgrwt>
<rscale>  0 0.54032907E+02</rscale>
<asrwt>0</asrwt>
<pdfrwt beam="1">  1        2 0.23379605E-01 0.37469357E+02</pdfrwt>
<pdfrwt beam="2">  1        1 0.38101501E-01 0.77918473E+02</pdfrwt>
<totfact> 0.32616741E+03</totfact>
</mgrwt>
</event>
<event>
 5    1  0.8459321E-003  0.5627112E+02  0.7546771E-02  0.1516494E+00
          2   -1    0    0  502    0  0.00000000000E+00  0.00000000000E+00  0.19221975705E+03  0.19221975705E+03  0.00000000000E+00 0. -1.
          1   -1    0    0  501    0 -0.00000000000E+00 -0.00000000000E+00 -0.16480905537E+03  0.16480905537E+03  0.00000000000E+00 0. -1.
         25    1    1    2    0    0  0.11554643198E+02 -0.73938679533E+02 -0.17781753082E+02  0.14677066755E+03  0.12500000000E+03 0.  0.
          2    1    1    2  501    0 -0.18719585612E+02  0.19298919424E+02 -0.74113673140E+02  0.78839759784E+02  0.00000000000E+00 0. -1.
          1    1    1    2  502    0  0.71649424141E+01  0.54639760109E+02  0.11930612790E+03  0.13141838509E+03  0.00000000000E+00 0. -1.
<mgrwt>
<rscale>  0 0.38896276E+02</rscale>
<asrwt>0</asrwt>
<pdfrwt beam="1">  1        2 0.29572270E-01 0.56271123E+02</pdfrwt>
<pdfrwt beam="2">  1        1 0.25355239E-01 0.26886264E+02</pdfrwt>
<totfact> 0.40937051E+03</totfact>
</mgrwt>
</event>
<event>
 5    1  0.8459321E-003  0.3665694E+02  0.7546771E-02  0.1547942E+00
          2   -1    0    0  502    0  0.00000000000E+00  0.00000000000E+00  0.23944114565E+04  0.23944114565E+04  0.00000000000E+00 0. -1.
         -2   -1    0    0    0  501 -0.00000000000E+00 -0.00000000000E+00 -0.10996535177E+02  0.10996535177E+02  0.00000000000E+00 0.  1.
         25    1    1    2    0    0 -0.25833055349E+01 -0.30027013370E+02  0.92674750167E+03  0.93562504608E+03  0.12500000000E+03 0.  0.
          1    1    1    2  502    0 -0.31077590750E+02  0.12666763971E+02  0.14066189331E+04  0.14070192204E+04  0.00000000000E+00 0. -1.
         -3    1    1    2    0  501  0.33660896285E+02  0.17360249398E+02  0.50048486576E+02  0.62763725243E+02  0.00000000000E+00 0.  1.
<mgrwt>
<rscale>  0 0.35074229E+02</rscale>
<asrwt>0</asrwt>
<pdfrwt beam="1">  1        2 0.36837058E+00 0.33559850E+02</pdfrwt>
<pdfrwt beam="2">  1       -2 0.16917765E-02 0.36656945E+02</pdfrwt>
<totfact> 0.45019771E+03</totfact>
</mgrwt>
</event>
<event>
 5    1  0.8459321E-003  0.6514451E+02  0.7546771E-02  0.1446741E+00
          1   -1    0    0  502    0  0.00000000000E+00  0.00000000000E+00  0.38339827212E+03  0.38339827212E+03  0.00000000000E+00 0. -1.
         -1   -1    0    0    0  501 -0.00000000000E+00 -0.00000000000E+00 -0.14116726298E+03  0.14116726298E+03  0.00000000000E+00 0.  1.
         25    1    1    2    0    0  0.25707772811E+02 -0.24123356213E+02  0.12958618918E+02  0.13052107762E+03  0.12500000000E+03 0.  0.
          2    1    1    2  502    0  0.35357885726E+02 -0.13868079090E+02  0.29450764608E+03  0.29694655630E+03  0.00000000000E+00 0. -1.
         -2    1    1    2    0  501 -0.61065658537E+02  0.37991435303E+02 -0.65235255846E+02  0.97097901183E+02  0.00000000000E+00 0.  1.
<mgrwt>
<rscale>  0 0.49741414E+02</rscale>
<asrwt>0</asrwt>
<pdfrwt beam="1">  1        1 0.58984349E-01 0.37980307E+02</pdfrwt>
<pdfrwt beam="2">  1       -1 0.21718041E-01 0.65144506E+02</pdfrwt>
<totfact> 0.11044531E+03</totfact>
</mgrwt>
</event>
<event>
 5    1  0.8459321E-003  0.8805678E+02  0.7546771E-02  0.1405449E+00
          2   -1    0    0  502    0  0.00000000000E+00  0.00000000000E+00  0.28149913275E+04  0.28149913275E+04  0.00000000000E+00 0. -1.
          1   -1    0    0  501    0 -0.00000000000E+00 -0.00000000000E+00 -0.85667754460E+02  0.85667754460E+02  0.00000000000E+00 0. -1.
         25    1    1    2    0    0 -0.40270571237E+01  0.70361312573E+02  0.28428758612E+03  0.31845150826E+03  0.12500000000E+03 0.  0.
          2    1    1    2  501    0 -0.31741755036E+02 -0.84591162982E+02 -0.38616338572E+02  0.98256936000E+02  0.00000000000E+00 0. -1.
          1    1    1    2  502    0  0.35768812159E+02  0.14229850409E+02  0.24836523255E+04  0.24839506377E+04  0.00000000000E+00 0. -1.
<mgrwt>
<rscale>  0 0.58221832E+02</rscale>
<asrwt>0</asrwt>
<pdfrwt beam="1">  1        2 0.43307552E+00 0.38495410E+02</pdfrwt>
<pdfrwt beam="2">  1        1 0.13179657E-01 0.88056777E+02</pdfrwt>
<totfact> 0.20541370E+02</totfact>
</mgrwt>
</event>
<event>
 5    1  0.8459321E-003  0.4515552E+02  0.7546771E-02  0.1586284E+00
          1   -1    0    0  502    0  0.00000000000E+00  0.00000000000E+00  0.61506089260E+03  0.61506089260E+03  0.00000000000E+00 0. -1.
         -1   -1    0    0    0  501 -0.00000000000E+00 -0.00000000000E+00 -0.29574300428E+02  0.29574300428E+02  0.00000000000E+00 0.  1.
         25    1    1    2    0    0  0.11724898570E+02  0.33185967454E+02  0.25325397343E+03  0.28460737295E+03  0.12500000000E+03 0.  0.
          2    1    1    2  502    0 -0.16444592572E+02  0.13715598021E+02  0.30467203325E+03  0.30542362401E+03  0.00000000000E+00 0. -1.
         -2    1    1    2    0  501  0.47196940014E+01 -0.46901565475E+02  0.27560585484E+02  0.54604196063E+02  0.00000000000E+00 0.  1.
<mgrwt>
<rscale>  0 0.31095695E+02</rscale>
<asrwt>0</asrwt>
<pdfrwt beam="1">  1        1 0.94624743E-01 0.21413600E+02</pdfrwt>
<pdfrwt beam="2">  1       -1 0.45498928E-02 0.45155520E+02</pdfrwt>
<totfact> 0.62926989E+03</totfact>
</mgrwt>
</event>
<event>
 5    1  0.8459321E-003  0.7220295E+02  0.7546771E-02  0.1398395E+00
          2   -1    0    0  502    0  0.00000000000E+00  0.00000000000E+00  0.39625891089E+03  0.39625891089E+03  0.00000000000E+00 0. -1.
          1   -1    0    0  501    0 -0.00000000000E+00 -0.00000000000E+00 -0.49593216606E+03  0.49593216606E+03  0.00000000000E+00 0. -1.
         25    1    1    2    0    0  0.98226379509E+02  0.58035065125E+02  0.16075242823E+03  0.23341558131E+03  0.12500000000E+03 0.  0.
          2    1    1    2  501    0 -0.48912195200E+02 -0.52384660464E+02 -0.45365052264E+03  0.45927698852E+03  0.00000000000E+00 0. -1.
          1    1    1    2  502    0 -0.49314184309E+02 -0.56504046611E+01  0.19322483924E+03  0.19949850713E+03  0.00000000000E+00 0. -1.
<mgrwt>
<rscale>  0 0.59865904E+02</rscale>
<asrwt>0</asrwt>
<pdfrwt beam="1">  1        2 0.60962909E-01 0.49636840E+02</pdfrwt>
<pdfrwt beam="2">  1        1 0.76297256E-01 0.72202955E+02</pdfrwt>
<totfact> 0.52169813E+02</totfact>
</mgrwt>
</event>
<event>
 5    1  0.8459321E-003  0.3615028E+02  0.7546771E-02  0.1604042E+00
          2   -1    0    0  502    0  0.00000000000E+00  0.00000000000E+00  0.13793423715E+04  0.13793423715E+04  0.00000000000E+00 0. -1.
         -2   -1    0    0    0  501 -0.00000000000E+00 -0.00000000000E+00 -0.47170635949E+03  0.47170635949E+03  0.00000000000E+00 0.  1.
         25    1    1    2    0    0  0.40252253485E+02 -0.43523293444E+02 -0.69965585556E+02  0.15503130053E+03  0.12500000000E+03 0.  0.
          1    1    1    2  502    0 -0.27882696033E+02  0.22931661701E+02  0.13361638407E+04  0.13366514561E+04  0.00000000000E+00 0. -1.
         -1    1    1    2    0  501 -0.12369557452E+02  0.20591631743E+02 -0.35856224319E+03  0.35936597431E+03  0.00000000000E+00 0.  1.
<mgrwt>
<rscale>  0 0.29468211E+02</rscale>
<asrwt>0</asrwt>
<pdfrwt beam="1">  1        2 0.21220652E+00 0.36150277E+02</pdfrwt>
<pdfrwt beam="2">  1       -2 0.72570210E-01 0.24021267E+02</pdfrwt>
<totfact> 0.33990787E+01</totfact>
</mgrwt>
</event>
<event>
 5    1  0.8459321E-003  0.8903864E+02  0.7546771E-02  0.1417566E+00
         -2   -1    0    0    0  501 -0.00000000000E+00  0.00000000000E+00  0.23248097366E+03  0.23248097366E+03  0.00000000000E+00 0.  1.
          2   -1    0    0  502    0  0.00000000000E+00 -0.00000000000E+00 -0.16713897349E+03  0.16713897349E+03  0.00000000000E+00 0. -1.
         25    1    1    2    0    0 -0.77035697514E+02 -0.25948397434E+02 -0.49542605074E+02  0.15712188816E+03  0.12500000000E+03 0.  0.
          1    1    1    2  502    0 -0.13333744692E+02  0.31974691974E+02 -0.46171010289E+02  0.57722888575E+02  0.00000000000E+00 0. -1.
         -1    1    1    2    0  501  0.90369442206E+02 -0.60262945404E+01  0.16105561553E+03  0.18477517043E+03  0.00000000000E+00 0.  1.
<mgrwt>
<rscale>  0 0.55539238E+02</rscale>
<asrwt>0</asrwt>
<pdfrwt beam="2">  1        2 0.25713688E-01 0.34643465E+02</pdfrwt>
<pdfrwt beam="1">  1       -2 0.35766303E-01 0.89038639E+02</pdfrwt>
<totfact> 0.14304001E+03</totfact>
</mgrwt>
</event>
<event>
 5    1  0.8459321E-003  0.6977900E+02  0.7546771E-02  0.1436904E+00
          1   -1    0    0  501    0 -0.00000000000E+00  0.00000000000E+00  0.17954979609E+02  0.17954979609E+02  0.00000000000E+00 0. -1.
          2   -1    0    0  502    0  0.00000000000E+00 -0.00000000000E+00 -0.41649502984E+04  0.41649502984E+04  0.00000000000E+00 0. -1.
         25    1    1    2    0    0 -0.74728643399E+02 -0.72470433487E+02 -0.15871955539E+04  0.15955096553E+04  0.12500000000E+03 0.  0.
          2    1    1    2  501    0  0.24624619854E+02  0.29145415409E+02 -0.13860487183E+02  0.40594830303E+02  0.00000000000E+00 0. -1.
          1    1    1    2  502    0  0.50104023544E+02  0.43325018078E+02 -0.25459392778E+04  0.25468007924E+04  0.00000000000E+00 0. -1.
<mgrwt>
<rscale>  0 0.51598828E+02</rscale>
<asrwt>0</asrwt>
<pdfrwt beam="2">  1        2 0.64076200E+00 0.69779004E+02</pdfrwt>
<pdfrwt beam="1">  1        1 0.27623028E-02 0.38155303E+02</pdfrwt>
<totfact> 0.18414160E+02</totfact>
</mgrwt>
</event>
<event>
 5    1  0.2254662E-002  0.6407306E+02  0.7546771E-02  0.1502592E+00
          2   -1    0    0  502    0  0.00000000000E+00  0.00000000000E+00  0.54399100875E+03  0.54399100875E+03  0.00000000000E+00 0. -1.
         -2   -1    0    0    0  501 -0.00000000000E+00 -0.00000000000E+00 -0.31760948406E+02  0.31760948406E+02  0.00000000000E+00 0.  1.
         25    1    1    2    0    0 -0.77309415419E+02 -0.17388613616E+02  0.29093746442E+03  0.32641801083E+03  0.12500000000E+03 0.  0.
          3    1    1    2  502    0  0.53864464486E+02  0.28505793983E+02  0.21381550410E+03  0.22233090342E+03  0.00000000000E+00 0. -1.
         -3    1    1    2    0  501  0.23444950933E+02 -0.11117180367E+02  0.74770918312E+01  0.27003042900E+02  0.00000000000E+00 0.  1.
<mgrwt>
<rscale>  0 0.40773972E+02</rscale>
<asrwt>0</asrwt>
<pdfrwt beam="1">  1        2 0.83690918E-01 0.64073059E+02</pdfrwt>
<pdfrwt beam="2">  1       -2 0.48863001E-02 0.25947205E+02</pdfrwt>
<totfact> 0.92018398E+03</totfact>
</mgrwt>
</event>
<event>
 5    1  0.8459321E-003  0.1545356E+03  0.7546771E-02  0.1216989E+00
          1   -1    0    0  501    0 -0.00000000000E+00  0.00000000000E+00  0.31711474348E+04  0.31711474348E+04  0.00000000000E+00 0. -1.
          2   -1    0    0  502    0  0.00000000000E+00 -0.00000000000E+00 -0.57256414539E+03  0.57256414539E+03  0.00000000000E+00 0. -1.
         25    1    1    2    0    0 -0.67160141448E+02 -0.47815339943E+02  0.35762529911E+03  0.38770819684E+03  0.12500000000E+03 0.  0.
          2    1    1    2  501    0 -0.85419244247E+02  0.87123788758E+02  0.27859866063E+04  0.27886570912E+04  0.00000000000E+00 0. -1.
          1    1    1    2  502    0  0.15257938569E+03 -0.39308448815E+02 -0.54502861594E+03  0.56734629220E+03  0.00000000000E+00 0. -1.
<mgrwt>
<rscale>  0 0.13731440E+03</rscale>
<asrwt>0</asrwt>
<pdfrwt beam="2">  1        2 0.88086793E-01 0.15453561E+03</pdfrwt>
<pdfrwt beam="1">  1        1 0.48786883E+00 0.12201230E+03</pdfrwt>
<totfact> 0.46337225E+00</totfact>
</mgrwt>
</event>
<event>
 5    1  0.8459321E-003  0.1140463E+03  0.7546771E-02  0.1356050E+00
          2   -1    0    0  502    0  0.00000000000E+00  0.00000000000E+00  0.11719346119E+04  0.11719346119E+04  0.00000000000E+00 0. -1.
         -2   -1    0    0    0  501 -0.00000000000E+00 -0.00000000000E+00 -0.90730506015E+02  0.90730506015E+02  0.00000000000E+00 0.  1.
         25    1    1    2    0    0 -0.14094122159E+03 -0.29855475734E+02  0.10153314169E+03  0.21607812531E+03  0.12500000000E+03 0.  0.
          3    1    1    2  502    0  0.42720670392E+02  0.12292511158E+02  0.93702191745E+03  0.93807581532E+03  0.00000000000E+00 0. -1.
         -1    1    1    2    0  501  0.98220551200E+02  0.17562964576E+02  0.42649046710E+02  0.10851117725E+03  0.00000000000E+00 0.  1.
<mgrwt>
<rscale>  0 0.71202673E+02</rscale>
<asrwt>0</asrwt>
<pdfrwt beam="1">  1        2 0.18029762E+00 0.44454038E+02</pdfrwt>
<pdfrwt beam="2">  1       -2 0.13958540E-01 0.11404635E+03</pdfrwt>
<totfact> 0.86243306E+02</totfact>
</mgrwt>
</event>
<event>
 5    1  0.8459321E-003  0.1325617E+03  0.7546771E-02  0.1311150E+00
          2   -1    0    0  502    0  0.00000000000E+00  0.00000000000E+00  0.59588834139E+03  0.59588834139E+03  0.00000000000E+00 0. -1.
          1   -1    0    0  501    0 -0.00000000000E+00 -0.00000000000E+00 -0.13838371936E+04  0.13838371936E+04  0.00000000000E+00 0. -1.
         25    1    1    2    0    0  0.46283784831E+02 -0.92034977124E+02 -0.15298265755E+03  0.22280331969E+03  0.12500000000E+03 0.  0.
          2    1    1    2  501    0 -0.38141125737E+02 -0.41888088801E+02 -0.11872366563E+04  0.11885874959E+04  0.00000000000E+00 0. -1.
          1    1    1    2  502    0 -0.81426590934E+01  0.13392306593E+03  0.55227046161E+03  0.56833471938E+03  0.00000000000E+00 0. -1.
<mgrwt>
<rscale>  0 0.86658962E+02</rscale>
<asrwt>0</asrwt>
<pdfrwt beam="1">  1        2 0.91675131E-01 0.13256165E+03</pdfrwt>
<pdfrwt beam="2">  1        1 0.21289803E+00 0.56651191E+02</pdfrwt>
<totfact> 0.69690902E+01</totfact>
</mgrwt>
</event>
<event>
 5    1  0.8459321E-003  0.3574958E+02  0.7546771E-02  0.1601500E+00
         -2   -1    0    0    0  501 -0.00000000000E+00  0.00000000000E+00  0.29918310603E+02  0.29918310603E+02  0.00000000000E+00 0.  1.
          2   -1    0    0  502    0  0.00000000000E+00 -0.00000000000E+00 -0.12240213343E+04  0.12240213343E+04  0.00000000000E+00 0. -1.
         25    1    1    2    0    0 -0.14997353062E+02 -0.56331008073E+02 -0.45443333401E+03  0.47490289337E+03  0.12500000000E+03 0.  0.
          1    1    1    2  502    0  0.12217257496E+02  0.21425004638E+02 -0.74341181511E+03  0.74382082456E+03  0.00000000000E+00 0. -1.
         -1    1    1    2    0  501  0.27800955651E+01  0.34906003435E+02  0.37421254605E+01  0.35215926938E+02  0.00000000000E+00 0.  1.
<mgrwt>
<rscale>  0 0.29693645E+02</rscale>
<asrwt>0</asrwt>
<pdfrwt beam="2">  1        2 0.18831100E+00 0.24663581E+02</pdfrwt>
<pdfrwt beam="1">  1       -2 0.46028164E-02 0.35749576E+02</pdfrwt>
<totfact> 0.41113635E+03</totfact>
</mgrwt>
</event>
<event>
 5    1  0.8459321E-003  0.8029656E+02  0.7546771E-02  0.1482454E+00
         -2   -1    0    0    0  501 -0.00000000000E+00  0.00000000000E+00  0.61541144076E+02  0.61541144076E+02  0.00000000000E+00 0. -1.
          2   -1    0    0  502    0  0.00000000000E+00 -0.00000000000E+00 -0.39840003300E+03  0.39840003300E+03  0.00000000000E+00 0.  1.
         25    1    1    2    0    0 -0.27227098040E+02 -0.55299782228E+02 -0.32046778106E+03  0.34946241498E+03  0.12500000000E+03 0.  0.
          1    1    1    2  502    0 -0.19381899919E+02 -0.13832106691E+02  0.51557628511E+01  0.24363232761E+02  0.00000000000E+00 0. -1.
         -1    1    1    2    0  501  0.46608997960E+02  0.69131888919E+02 -0.21546870717E+02  0.86115529343E+02  0.00000000000E+00 0.  1.
<mgrwt>
<rscale>  0 0.43726166E+02</rscale>
<asrwt>0</asrwt>
<pdfrwt beam="2">  1        2 0.61292313E-01 0.23811451E+02</pdfrwt>
<pdfrwt beam="1">  1       -2 0.94678682E-02 0.80296558E+02</pdfrwt>
<totfact> 0.53884521E+03</totfact>
</mgrwt>
</event>
<event>
 5    1  0.8459321E-003  0.7646673E+02  0.7546771E-02  0.1418685E+00
          2   -1    0    0  502    0  0.00000000000E+00  0.00000000000E+00  0.79549608563E+03  0.79549608563E+03  0.00000000000E+00 0. -1.
          1   -1    0    0  501    0 -0.00000000000E+00 -0.00000000000E+00 -0.24084953090E+04  0.24084953090E+04  0.00000000000E+00 0. -1.
         25    1    1    2    0    0  0.69367980056E+02 -0.64540714382E+01  0.19292624529E+03  0.24020638588E+03  0.12500000000E+03 0.  0.
          2    1    1    2  501    0 -0.60841928318E+01 -0.39527013090E+02 -0.23820442059E+04  0.23823799028E+04  0.00000000000E+00 0. -1.
          1    1    1    2  502    0 -0.63283787224E+02  0.45981084528E+02  0.57611873725E+03  0.58140510599E+03  0.00000000000E+00 0. -1.
<mgrwt>
<rscale>  0 0.55300070E+02</rscale>
<asrwt>0</asrwt>
<pdfrwt beam="1">  1        2 0.12238402E+00 0.76466730E+02</pdfrwt>
<pdfrwt beam="2">  1        1 0.37053773E+00 0.39992526E+02</pdfrwt>
<totfact> 0.12371459E+01</totfact>
</mgrwt>
</event>
<event>
 5    1  0.8459321E-003  0.2127204E+03  0.7546771E-02  0.1218377E+00
          1   -1    0    0  501    0 -0.00000000000E+00  0.00000000000E+00  0.15516213568E+03  0.15516213568E+03  0.00000000000E+00 0. -1.
          2   -1    0    0  502    0  0.00000000000E+00 -0.00000000000E+00 -0.74536735608E+03  0.74536735608E+03  0.00000000000E+00 0. -1.
         25    1    1    2    0    0  0.10361271509E+03 -0.10654312507E+03 -0.29339859994E+03  0.35184481050E+03  0.12500000000E+03 0.  0.
          2    1    1    2  501    0 -0.16908487661E+03  0.16436737257E+03  0.35984005306E+01  0.23583739557E+03  0.00000000000E+00 0. -1.
          1    1    1    2  502    0  0.65472161527E+02 -0.57824247500E+02 -0.30040502099E+03  0.31284728570E+03  0.00000000000E+00 0. -1.
<mgrwt>
<rscale>  0 0.13631361E+03</rscale>
<asrwt>0</asrwt>
<pdfrwt beam="2">  1        2 0.11467190E+00 0.87351288E+02</pdfrwt>
<pdfrwt beam="1">  1        1 0.23871098E-01 0.21272038E+03</pdfrwt>
<totfact> 0.11049004E+03</totfact>
</mgrwt>
</event>
<event>
 5    1  0.8459321E-003  0.7614364E+02  0.7546771E-02  0.1369817E+00
          2   -1    0    0  502    0  0.00000000000E+00  0.00000000000E+00  0.18236576757E+03  0.18236576757E+03  0.00000000000E+00 0. -1.
         -2   -1    0    0    0  501 -0.00000000000E+00 -0.00000000000E+00 -0.55649797206E+03  0.55649797206E+03  0.00000000000E+00 0.  1.
         25    1    1    2    0    0 -0.89827711046E+00 -0.60681430449E+02 -0.18082333750E+03  0.22804631610E+03  0.12500000000E+03 0.  0.
          1    1    1    2  502    0 -0.59217384491E+02  0.37904908364E+01  0.14808627406E+03  0.15953247635E+03  0.00000000000E+00 0. -1.
         -1    1    1    2    0  501  0.60115661601E+02  0.56890939613E+02 -0.34139514106E+03  0.35128494718E+03  0.00000000000E+00 0.  1.
<mgrwt>
<rscale>  0 0.67217967E+02</rscale>
<asrwt>0</asrwt>
<pdfrwt beam="1">  1        2 0.28056273E-01 0.59338575E+02</pdfrwt>
<pdfrwt beam="2">  1       -2 0.85615071E-01 0.76143640E+02</pdfrwt>
<totfact> 0.23103826E+02</totfact>
</mgrwt>
</event>
<event>
 5    1  0.8459321E-003  0.6711500E+02  0.7546771E-02  0.1480177E+00
          1   -1    0    0  501    0 -0.00000000000E+00  0.00000000000E+00  0.14104200376E+03  0.14104200376E+03  0.00000000000E+00 0. -1.
          2   -1    0    0  502    0  0.00000000000E+00 -0.00000000000E+00 -0.10456177535E+04  0.10456177535E+04  0.00000000000E+00 0. -1.
         25    1    1    2    0    0 -0.19779857406E+02 -0.71205779229E+02 -0.14764409090E+03  0.20708762235E+03  0.12500000000E+03 0.  0.
          2    1    1    2  501    0 -0.22036329144E+02  0.18773903820E+02  0.10811805492E+03  0.11192664145E+03  0.00000000000E+00 0. -1.
          1    1    1    2  502    0  0.41816186550E+02  0.52431875409E+02 -0.86504971378E+03  0.86764549347E+03  0.00000000000E+00 0. -1.
<mgrwt>
<rscale>  0 0.44078671E+02</rscale>
<asrwt>0</asrwt>
<pdfrwt beam="2">  1        2 0.16086427E+00 0.67115004E+02</pdfrwt>
<pdfrwt beam="1">  1        1 0.21698770E-01 0.28949253E+02</pdfrwt>
<totfact> 0.76822443E+02</totfact>
</mgrwt>
</event>
<event>
 5    1  0.8459321E-003  0.8306452E+02  0.7546771E-02  0.1335935E+00
          2   -1    0    0  502    0  0.00000000000E+00  0.00000000000E+00  0.21753923253E+04  0.21753923253E+04  0.00000000000E+00 0. -1.
          1   -1    0    0  501    0 -0.00000000000E+00 -0.00000000000E+00 -0.83825857912E+03  0.83825857912E+03  0.00000000000E+00 0. -1.
         25    1    1    2    0    0 -0.32288354273E+02  0.50036779369E+02  0.87672422760E+02  0.16388310109E+03  0.12500000000E+03 0.  0.
          2    1    1    2  501    0 -0.51928284832E+02 -0.50648547243E+02 -0.79764161904E+03  0.80093318981E+03  0.00000000000E+00 0. -1.
          1    1    1    2  502    0  0.84216639105E+02  0.61176787454E+00  0.20471029425E+04  0.20488346135E+04  0.00000000000E+00 0. -1.
<mgrwt>
<rscale>  0 0.77623249E+02</rscale>
<asrwt>0</asrwt>
<pdfrwt beam="1">  1        2 0.33467574E+00 0.83064518E+02</pdfrwt>
<pdfrwt beam="2">  1        1 0.12896286E+00 0.72538418E+02</pdfrwt>
<totfact> 0.21666342E+01</totfact>
</mgrwt>
</event>
<event>
 5    1  0.8459321E-003  0.2889617E+02  0.7546771E-02  0.1629673E+00
          2   -1    0    0  502    0  0.00000000000E+00  0.00000000000E+00  0.26356644270E+04  0.26356644270E+04  0.00000000000E+00 0. -1.
         -2   -1    0    0    0  501 -0.00000000000E+00 -0.00000000000E+00 -0.30812364960E+02  0.30812364960E+02  0.00000000000E+00 0.  1.
         25    1    1    2    0    0  0.80959417136E+01  0.10903536257E+02  0.10450641572E+04  0.10526008380E+04  0.12500000000E+03 0.  0.
          1    1    1    2  502    0  0.20583698553E+02 -0.15624231469E+02  0.15788859933E+04  0.15790974590E+04  0.00000000000E+00 0. -1.
         -1    1    1    2    0  501 -0.28679640267E+02  0.47206952123E+01 -0.19098088479E+02  0.34778494975E+02  0.00000000000E+00 0.  1.
<mgrwt>
<rscale>  0 0.27326412E+02</rscale>
<asrwt>0</asrwt>
<pdfrwt beam="1">  1        2 0.40548666E+00 0.25841928E+02</pdfrwt>
<pdfrwt beam="2">  1       -2 0.47403659E-02 0.28896172E+02</pdfrwt>
<totfact> 0.80554855E+02</totfact>
</mgrwt>
</event>
<event>
 5    1  0.8459321E-003  0.6982181E+02  0.7546771E-02  0.1455110E+00
         -2   -1    0    0    0  501 -0.00000000000E+00  0.00000000000E+00  0.10186130407E+03  0.10186130407E+03  0.00000000000E+00 0.  1.
          2   -1    0    0  502    0  0.00000000000E+00 -0.00000000000E+00 -0.92897745545E+03  0.92897745545E+03  0.00000000000E+00 0. -1.
         25    1    1    2    0    0 -0.39977732592E+02  0.48248174420E+01 -0.38706366211E+03  0.40873558261E+03  0.12500000000E+03 0.  0.
          1    1    1    2  502    0 -0.26213004901E+02  0.20569134183E+02 -0.51665528296E+03  0.51772858943E+03  0.00000000000E+00 0. -1.
         -1    1    1    2    0  501  0.66190737493E+02 -0.25393951625E+02  0.76602793691E+02  0.10437458747E+03  0.00000000000E+00 0.  1.
<mgrwt>
<rscale>  0 0.48233294E+02</rscale>
<asrwt>0</asrwt>
<pdfrwt beam="2">  1        2 0.14291961E+00 0.33319828E+02</pdfrwt>
<pdfrwt beam="1">  1       -2 0.15670970E-01 0.69821811E+02</pdfrwt>
<totfact> 0.96367548E+02</totfact>
</mgrwt>
</event>
<event>
 5    1  0.8459321E-003  0.4084417E+02  0.7546771E-02  0.1535878E+00
         -2   -1    0    0    0  501 -0.00000000000E+00  0.00000000000E+00  0.55987329338E+02  0.55987329338E+02  0.00000000000E+00 0.  1.
          2   -1    0    0  502    0  0.00000000000E+00 -0.00000000000E+00 -0.14197992516E+04  0.14197992516E+04  0.00000000000E+00 0. -1.
         25    1    1    2    0    0  0.23606663875E+02 -0.31583064126E+02 -0.46011393322E+03  0.47841885002E+03  0.12500000000E+03 0.  0.
          1    1    1    2  502    0  0.17315613388E+02  0.27589744576E+02 -0.94117234316E+03  0.94173584619E+03  0.00000000000E+00 0. -1.
         -1    1    1    2    0  501 -0.40922277263E+02  0.39933195503E+01  0.37474354136E+02  0.55631884701E+02  0.00000000000E+00 0.  1.
<mgrwt>
<rscale>  0 0.36475091E+02</rscale>
<asrwt>0</asrwt>
<pdfrwt beam="2">  1        2 0.21843063E+00 0.32573371E+02</pdfrwt>
<pdfrwt beam="1">  1       -2 0.86134362E-02 0.40844169E+02</pdfrwt>
<totfact> 0.13035367E+03</totfact>
</mgrwt>
</event>
<event>
 5    1  0.8459321E-003  0.1963729E+03  0.7546771E-02  0.1197555E+00
          2   -1    0    0  502    0  0.00000000000E+00  0.00000000000E+00  0.17081572047E+04  0.17081572047E+04  0.00000000000E+00 0. -1.
         -2   -1    0    0    0  501 -0.00000000000E+00 -0.00000000000E+00 -0.12533424019E+03  0.12533424019E+03  0.00000000000E+00 0.  1.
         25    1    1    2    0    0 -0.20398069016E+03  0.62167200077E+02  0.86409264516E+03  0.89875134611E+03  0.12500000000E+03 0.  0.
          1    1    1    2  502    0  0.12743094668E+03 -0.15232671592E+03  0.77764580817E+03  0.80260518160E+03  0.00000000000E+00 0. -1.
         -1    1    1    2    0  501  0.76549743474E+02  0.90159515840E+02 -0.58915488806E+02  0.13213491720E+03  0.00000000000E+00 0.  1.
<mgrwt>
<rscale>  0 0.15239978E+03</rscale>
<asrwt>0</asrwt>
<pdfrwt beam="1">  1        2 0.26279340E+00 0.19637289E+03</pdfrwt>
<pdfrwt beam="2">  1       -2 0.19282192E-01 0.11827342E+03</pdfrwt>
<totfact> 0.23857820E+02</totfact>
</mgrwt>
</event>
<event>
 5    1  0.8459321E-003  0.1505584E+03  0.7546771E-02  0.1218307E+00
          2   -1    0    0  502    0  0.00000000000E+00  0.00000000000E+00  0.29790188358E+03  0.29790188358E+03  0.00000000000E+00 0. -1.
          1   -1    0    0  501    0 -0.00000000000E+00 -0.00000000000E+00 -0.21785909627E+04  0.21785909627E+04  0.00000000000E+00 0. -1.
         25    1    1    2    0    0 -0.46908652497E+02 -0.15287356397E+02 -0.16996486193E+03  0.21667297763E+03  0.12500000000E+03 0.  0.
          2    1    1    2  501    0  0.12166016840E+03  0.11360566344E+03 -0.19676875552E+04  0.19747156145E+04  0.00000000000E+00 0. -1.
          1    1    1    2  502    0 -0.74751515898E+02 -0.98318307047E+02  0.25696333802E+03  0.28510425412E+03  0.00000000000E+00 0. -1.
<mgrwt>
<rscale>  0 0.13636423E+03</rscale>
<asrwt>0</asrwt>
<pdfrwt beam="1">  1        2 0.45831059E-01 0.12350821E+03</pdfrwt>
<pdfrwt beam="2">  1        1 0.33516784E+00 0.15055844E+03</pdfrwt>
<totfact> 0.41666009E+01</totfact>
</mgrwt>
</event>
<event>
 5    1  0.8459321E-003  0.1236579E+03  0.7546771E-02  0.1331043E+00
          1   -1    0    0  502    0  0.00000000000E+00  0.00000000000E+00  0.28902440753E+04  0.28902440753E+04  0.00000000000E+00 0. -1.
         -1   -1    0    0    0  501 -0.00000000000E+00 -0.00000000000E+00 -0.40658259432E+02  0.40658259432E+02  0.00000000000E+00 0.  1.
         25    1    1    2    0    0 -0.89009506327E+02  0.67775797564E+02  0.93625400807E+03  0.95116392834E+03  0.12500000000E+03 0.  0.
          2    1    1    2  502    0  0.12512878077E+03 -0.31973005418E+02  0.19235368125E+04  0.19278675665E+04  0.00000000000E+00 0. -1.
         -2    1    1    2    0  501 -0.36119274447E+02 -0.35802792146E+02 -0.10205004699E+02  0.51870839910E+02  0.00000000000E+00 0.  1.
<mgrwt>
<rscale>  0 0.79302459E+02</rscale>
<asrwt>0</asrwt>
<pdfrwt beam="1">  1        1 0.44465277E+00 0.12365792E+03</pdfrwt>
<pdfrwt beam="2">  1       -1 0.62551191E-02 0.50857073E+02</pdfrwt>
<totfact> 0.10654017E+02</totfact>
</mgrwt>
</event>
<event>
 5    1  0.8459321E-003  0.3166544E+03  0.7546771E-02  0.1243671E+00
          2   -1    0    0  502    0  0.00000000000E+00  0.00000000000E+00  0.15673251920E+04  0.15673251920E+04  0.00000000000E+00 0. -1.
          1   -1    0    0  501    0 -0.00000000000E+00 -0.00000000000E+00 -0.13490933723E+04  0.13490933723E+04  0.00000000000E+00 0. -1.
         25    1    1    2    0    0 -0.12385194503E+03 -0.30701847176E+03  0.32361297027E+03  0.47953102175E+03  0.12500000000E+03 0.  0.
          2    1    1    2  501    0  0.15579493687E+03  0.27502118894E+03 -0.12510320312E+04  0.12903448608E+04  0.00000000000E+00 0. -1.
          1    1    1    2  502    0 -0.31942991841E+02  0.31997282817E+02  0.11456508807E+04  0.11465426818E+04  0.00000000000E+00 0. -1.
<mgrwt>
<rscale>  0 0.11965272E+03</rscale>
<asrwt>0</asrwt>
<pdfrwt beam="1">  1        2 0.24112695E+00 0.45212618E+02</pdfrwt>
<pdfrwt beam="2">  1        1 0.20755283E+00 0.31665439E+03</pdfrwt>
<totfact> 0.18019467E+01</totfact>
</mgrwt>
</event>
<event>
 5    1  0.8459321E-003  0.9400558E+02  0.7546771E-02  0.1387556E+00
         -1   -1    0    0    0  501 -0.00000000000E+00  0.00000000000E+00  0.29096010262E+02  0.29096010262E+02  0.00000000000E+00 0.  1.
          1   -1    0    0  502    0  0.00000000000E+00 -0.00000000000E+00 -0.13311639246E+04  0.13311639246E+04  0.00000000000E+00 0. -1.
         25    1    1    2    0    0  0.27018441991E+02 -0.85538498899E+02 -0.54863840737E+03  0.56980341614E+03  0.12500000000E+03 0.  0.
          2    1    1    2  502    0  0.13101672037E+02  0.96452702150E+02 -0.74056365415E+03  0.74693326570E+03  0.00000000000E+00 0. -1.
         -2    1    1    2    0  501 -0.40120114028E+02 -0.10914203251E+02 -0.12865852774E+02  0.43523252978E+02  0.00000000000E+00 0.  1.
<mgrwt>
<rscale>  0 0.62518630E+02</rscale>
<asrwt>0</asrwt>
<pdfrwt beam="2">  1        1 0.20479448E+00 0.94005581E+02</pdfrwt>
<pdfrwt beam="1">  1       -1 0.44763086E-02 0.41578160E+02</pdfrwt>
<totfact> 0.17517894E+03</totfact>
</mgrwt>
</event>
<event>
 5    1  0.8459321E-003  0.6939500E+02  0.7546771E-02  0.1366383E+00
         -2   -1    0    0    0  501 -0.00000000000E+00  0.00000000000E+00  0.16005331864E+04  0.16005331864E+04  0.00000000000E+00 0.  1.
          2   -1    0    0  502    0  0.00000000000E+00 -0.00000000000E+00 -0.14655686372E+03  0.14655686372E+03  0.00000000000E+00 0. -1.
         25    1    1    2    0    0 -0.35603773012E+02  0.61424037338E+02  0.19999053432E+03  0.24629607149E+03  0.12500000000E+03 0.  0.
          1    1    1    2  502    0  0.70591331055E+02 -0.42938352106E+01 -0.11238309107E+03  0.13278377988E+03  0.00000000000E+00 0. -1.
         -1    1    1    2    0  501 -0.34987558043E+02 -0.57130202127E+02  0.13663688794E+04  0.13680101987E+04  0.00000000000E+00 0.  1.
<mgrwt>
<rscale>  0 0.68183145E+02</rscale>
<asrwt>0</asrwt>
<pdfrwt beam="2">  1        2 0.22547211E-01 0.69394995E+02</pdfrwt>
<pdfrwt beam="1">  1       -2 0.24623586E+00 0.66992456E+02</pdfrwt>
<totfact> 0.19923405E+01</totfact>
</mgrwt>
</event>
<event>
 5    1  0.8459321E-003  0.1122277E+03  0.7546771E-02  0.1290535E+00
          2   -1    0    0  502    0  0.00000000000E+00  0.00000000000E+00  0.70591572777E+03  0.70591572777E+03  0.00000000000E+00 0. -1.
          1   -1    0    0  501    0 -0.00000000000E+00 -0.00000000000E+00 -0.80354346618E+03  0.80354346618E+03  0.00000000000E+00 0. -1.
         25    1    1    2    0    0  0.18745748025E+03 -0.12299306400E+02 -0.70427047591E+02  0.23638220930E+03  0.12500000000E+03 0.  0.
          2    1    1    2  501    0 -0.10672567843E+03  0.17526174887E+02 -0.64297653959E+03  0.65200948436E+03  0.00000000000E+00 0. -1.
          1    1    1    2  502    0 -0.80731801823E+02 -0.52268684865E+01  0.61577584877E+03  0.62106750028E+03  0.00000000000E+00 0. -1.
<mgrwt>
<rscale>  0 0.95285435E+02</rscale>
<asrwt>0</asrwt>
<pdfrwt beam="1">  1        2 0.10860242E+00 0.80900828E+02</pdfrwt>
<pdfrwt beam="2">  1        1 0.12362207E+00 0.11222770E+03</pdfrwt>
<totfact> 0.14116553E+02</totfact>
</mgrwt>
</event>
<event>
 5    1  0.8459321E-003  0.9996388E+02  0.7546771E-02  0.1425708E+00
          2   -1    0    0  502    0  0.00000000000E+00  0.00000000000E+00  0.31523689269E+03  0.31523689269E+03  0.00000000000E+00 0. -1.
         -2   -1    0    0    0  501 -0.00000000000E+00 -0.00000000000E+00 -0.76861420250E+02  0.76861420250E+02  0.00000000000E+00 0.  1.
         25    1    1    2    0    0  0.67786076168E+02 -0.80412186250E+02  0.18304441774E+03  0.24533921555E+03  0.12500000000E+03 0.  0.
          1    1    1    2  502    0  0.14339280468E+02  0.25193614369E+02 -0.69751012425E+01  0.29815854954E+02  0.00000000000E+00 0. -1.
         -1    1    1    2    0  501 -0.82125356637E+02  0.55218571881E+02  0.62306155938E+02  0.11694324243E+03  0.00000000000E+00 0.  1.
<mgrwt>
<rscale>  0 0.53831247E+02</rscale>
<asrwt>0</asrwt>
<pdfrwt beam="1">  1        2 0.48497983E-01 0.28988501E+02</pdfrwt>
<pdfrwt beam="2">  1       -2 0.11824834E-01 0.99963884E+02</pdfrwt>
<totfact> 0.48830797E+03</totfact>
</mgrwt>
</event>
<event>
 5    1  0.8459321E-003  0.2315538E+03  0.7546771E-02  0.1233267E+00
         -2   -1    0    0    0  501 -0.00000000000E+00  0.00000000000E+00  0.21520232728E+03  0.21520232728E+03  0.00000000000E+00 0.  1.
          2   -1    0    0  502    0  0.00000000000E+00 -0.00000000000E+00 -0.28992439499E+04  0.28992439499E+04  0.00000000000E+00 0. -1.
         25    1    1    2    0    0  0.25646764292E+03  0.12613298760E+03 -0.71923959257E+03  0.78397434521E+03  0.12500000000E+03 0.  0.
          1    1    1    2  502    0 -0.68731064302E+02  0.92988300981E+00 -0.20765807906E+04  0.20777181242E+04  0.00000000000E+00 0. -1.
         -3    1    1    2    0  501 -0.18773657861E+03 -0.12706287061E+03  0.11177876052E+03  0.25275380777E+03  0.00000000000E+00 0.  1.
<mgrwt>
<rscale>  0 0.12616020E+03</rscale>
<asrwt>0</asrwt>
<pdfrwt beam="2">  1        2 0.44603749E+00 0.68737354E+02</pdfrwt>
<pdfrwt beam="1">  1       -2 0.33108053E-01 0.23155382E+03</pdfrwt>
<totfact> 0.25283486E+01</totfact>
</mgrwt>
</event>
<event>
 5    1  0.8459321E-003  0.7306999E+02  0.7546771E-02  0.1493146E+00
         -1   -1    0    0    0  501 -0.00000000000E+00  0.00000000000E+00  0.76287371059E+02  0.76287371059E+02  0.00000000000E+00 0.  1.
          1   -1    0    0  502    0  0.00000000000E+00 -0.00000000000E+00 -0.37766165824E+03  0.37766165824E+03  0.00000000000E+00 0. -1.
         25    1    1    2    0    0 -0.87596246255E+02 -0.32114239739E+02 -0.12265937935E+03  0.19843071862E+03  0.12500000000E+03 0.  0.
          2    1    1    2  502    0  0.22241760222E+02  0.97446430957E+01 -0.18460091269E+03  0.18619116771E+03  0.00000000000E+00 0. -1.
         -2    1    1    2    0  501  0.65354486033E+02  0.22369596643E+02  0.58860048568E+01  0.69327142966E+02  0.00000000000E+00 0.  1.
<mgrwt>
<rscale>  0 0.42122955E+02</rscale>
<asrwt>0</asrwt>
<pdfrwt beam="2">  1        1 0.58101792E-01 0.24282792E+02</pdfrwt>
<pdfrwt beam="1">  1       -1 0.11736519E-01 0.73069989E+02</pdfrwt>
<totfact> 0.29359046E+03</totfact>
</mgrwt>
</event>
<event>
 5    1  0.8459321E-003  0.6821961E+02  0.7546771E-02  0.1393250E+00
          2   -1    0    0  502    0  0.00000000000E+00  0.00000000000E+00  0.13490485518E+04  0.13490485518E+04  0.00000000000E+00 0. -1.
         -2   -1    0    0    0  501 -0.00000000000E+00 -0.00000000000E+00 -0.58724843620E+02  0.58724843620E+02  0.00000000000E+00 0.  1.
         25    1    1    2    0    0 -0.38372040333E+02 -0.13556333831E+02  0.27651186983E+03  0.30616989046E+03  0.12500000000E+03 0.  0.
          1    1    1    2  502    0  0.25824988976E+02  0.66831981842E+02  0.10389188719E+04  0.10413865114E+04  0.00000000000E+00 0. -1.
         -1    1    1    2    0  501  0.12547051358E+02 -0.53275648011E+02 -0.25107033577E+02  0.60216993480E+02  0.00000000000E+00 0.  1.
<mgrwt>
<rscale>  0 0.61105464E+02</rscale>
<asrwt>0</asrwt>
<pdfrwt beam="1">  1        2 0.20754591E+00 0.68219614E+02</pdfrwt>
<pdfrwt beam="2">  1       -2 0.90345924E-02 0.54733200E+02</pdfrwt>
<totfact> 0.12734185E+03</totfact>
</mgrwt>
</event>
<event>
 5    1  0.8459321E-003  0.1190162E+03  0.7546771E-02  0.1295303E+00
          2   -1    0    0  502    0  0.00000000000E+00  0.00000000000E+00  0.13257744321E+04  0.13257744321E+04  0.00000000000E+00 0. -1.
          1   -1    0    0  501    0 -0.00000000000E+00 -0.00000000000E+00 -0.17668349247E+04  0.17668349247E+04  0.00000000000E+00 0. -1.
         25    1    1    2    0    0  0.15682991039E+03  0.54938401578E+02 -0.68015675738E+03  0.71123277720E+03  0.12500000000E+03 0.  0.
          2    1    1    2  501    0 -0.38168053108E+02 -0.62191654743E+02 -0.10671950117E+04  0.10696867744E+04  0.00000000000E+00 0. -1.
          1    1    1    2  502    0 -0.11866185728E+03  0.72532531642E+01  0.13062912765E+04  0.13116898052E+04  0.00000000000E+00 0. -1.
<mgrwt>
<rscale>  0 0.93191172E+02</rscale>
<asrwt>0</asrwt>
<pdfrwt beam="1">  1        2 0.20396530E+00 0.11901617E+03</pdfrwt>
<pdfrwt beam="2">  1        1 0.27182076E+00 0.72969872E+02</pdfrwt>
<totfact> 0.13629027E+01</totfact>
</mgrwt>
</event>
<event>
 5    1  0.8459321E-003  0.3399916E+02  0.7546771E-02  0.1593906E+00
         -2   -1    0    0    0  501 -0.00000000000E+00  0.00000000000E+00  0.41321352994E+02  0.41321352994E+02  0.00000000000E+00 0.  1.
          2   -1    0    0  502    0  0.00000000000E+00 -0.00000000000E+00 -0.56989302962E+03  0.56989302962E+03  0.00000000000E+00 0. -1.
         25    1    1    2    0    0 -0.11229974118E+02 -0.24523058641E+01 -0.12903270381E+03  0.18001823457E+03  0.12500000000E+03 0.  0.
          1    1    1    2  502    0 -0.19623853584E+02 -0.18761458781E+02 -0.39207816371E+03  0.39301701543E+03  0.00000000000E+00 0. -1.
         -1    1    1    2    0  501  0.30853827702E+02  0.21213764645E+02 -0.74608090997E+01  0.38179132608E+02  0.00000000000E+00 0.  1.
<mgrwt>
<rscale>  0 0.30381828E+02</rscale>
<asrwt>0</asrwt>
<pdfrwt beam="2">  1        2 0.87675847E-01 0.27149364E+02</pdfrwt>
<pdfrwt beam="1">  1       -2 0.63571315E-02 0.33999156E+02</pdfrwt>
<totfact> 0.62908530E+03</totfact>
</mgrwt>
</event>
<event>
 5    1  0.8459321E-003  0.9181439E+02  0.7546771E-02  0.1420013E+00
          1   -1    0    0  501    0 -0.00000000000E+00  0.00000000000E+00  0.66306473346E+02  0.66306473346E+02  0.00000000000E+00 0. -1.
          2   -1    0    0  502    0  0.00000000000E+00 -0.00000000000E+00 -0.16221609291E+04  0.16221609291E+04  0.00000000000E+00 0. -1.
         25    1    1    2    0    0 -0.31568557966E+02 -0.91605688059E+02 -0.62888568956E+02  0.17020031740E+03  0.12500000000E+03 0.  0.
          2    1    1    2  501    0 -0.26099800567E+02  0.20143040142E+02 -0.12975033481E+02  0.35430116422E+02  0.00000000000E+00 0. -1.
          1    1    1    2  502    0  0.57668358533E+02  0.71462647917E+02 -0.14799908533E+04  0.14828369686E+04  0.00000000000E+00 0. -1.
<mgrwt>
<rscale>  0 0.55018271E+02</rscale>
<asrwt>0</asrwt>
<pdfrwt beam="2">  1        2 0.24956323E+00 0.91814391E+02</pdfrwt>
<pdfrwt beam="1">  1        1 0.10200995E-01 0.32968798E+02</pdfrwt>
<totfact> 0.95337369E+02</totfact>
</mgrwt>
</event>
<event>
 5    1  0.8459321E-003  0.9711172E+02  0.7546771E-02  0.1436020E+00
         -2   -1    0    0    0  501 -0.00000000000E+00  0.00000000000E+00  0.44384539118E+03  0.44384539118E+03  0.00000000000E+00 0.  1.
          2   -1    0    0  502    0  0.00000000000E+00 -0.00000000000E+00 -0.61528577773E+02  0.61528577773E+02  0.00000000000E+00 0. -1.
         25    1    1    2    0    0  0.11365318764E+03  0.32858514138E+01  0.27508627581E+03  0.32283943845E+03  0.12500000000E+03 0.  0.
          1    1    1    2  502    0 -0.26273623129E+02 -0.84494944829E+01 -0.15602708494E+02  0.31703970440E+02  0.00000000000E+00 0. -1.
         -1    1    1    2    0  501 -0.87379564510E+02  0.51636430691E+01  0.12283324609E+03  0.15083056006E+03  0.00000000000E+00 0.  1.
<mgrwt>
<rscale>  0 0.51770387E+02</rscale>
<asrwt>0</asrwt>
<pdfrwt beam="2">  1        2 0.94659353E-02 0.27598863E+02</pdfrwt>
<pdfrwt beam="1">  1       -2 0.68283904E-01 0.97111718E+02</pdfrwt>
<totfact> 0.11976639E+03</totfact>
</mgrwt>
</event>
<event>
 5    1  0.8459321E-003  0.4992442E+02  0.7546771E-02  0.1554399E+00
          2   -1    0    0  502    0  0.00000000000E+00  0.00000000000E+00  0.13494165794E+04  0.13494165794E+04  0.00000000000E+00 0. -1.
          1   -1    0    0  501    0 -0.00000000000E+00 -0.00000000000E+00 -0.70591355955E+02  0.70591355955E+02  0.00000000000E+00 0. -1.
         25    1    1    2    0    0  0.20793918535E+02 -0.50310358329E+02  0.14441678974E+03  0.19860696957E+03  0.12500000000E+03 0.  0.
          2    1    1    2  501    0 -0.37230864963E+02  0.33317438844E+02 -0.28989302237E+02  0.57763039058E+02  0.00000000000E+00 0. -1.
          1    1    1    2  502    0  0.16436946428E+02  0.16992919485E+02  0.11633977359E+04  0.11636379267E+04  0.00000000000E+00 0. -1.
<mgrwt>
<rscale>  0 0.34355506E+02</rscale>
<asrwt>0</asrwt>
<pdfrwt beam="1">  1        2 0.20760253E+00 0.23641754E+02</pdfrwt>
<pdfrwt beam="2">  1        1 0.10860210E-01 0.49924418E+02</pdfrwt>
<totfact> 0.13952517E+03</totfact>
</mgrwt>
</event>
<event>
 5    1  0.8459321E-003  0.8633740E+02  0.7546771E-02  0.1453620E+00
          1   -1    0    0  501    0 -0.00000000000E+00  0.00000000000E+00  0.12166118441E+04  0.12166118441E+04  0.00000000000E+00 0. -1.
          2   -1    0    0  502    0  0.00000000000E+00 -0.00000000000E+00 -0.15623336929E+03  0.15623336929E+03  0.00000000000E+00 0. -1.
         25    1    1    2    0    0  0.64388142829E+02 -0.12201045240E+02  0.49499845028E+03  0.51472630030E+03  0.12500000000E+03 0.  0.
          2    1    1    2  501    0 -0.90700009463E+02  0.19257487501E+02  0.70742989890E+03  0.71348048635E+03  0.00000000000E+00 0. -1.
          1    1    1    2  502    0  0.26311866634E+02 -0.70564422616E+01 -0.14204987434E+03  0.14463842678E+03  0.00000000000E+00 0. -1.
<mgrwt>
<rscale>  0 0.48497150E+02</rscale>
<asrwt>0</asrwt>
<pdfrwt beam="2">  1        2 0.24035904E-01 0.27241654E+02</pdfrwt>
<pdfrwt beam="1">  1        1 0.18717105E+00 0.86337402E+02</pdfrwt>
<totfact> 0.34545240E+02</totfact>
</mgrwt>
</event>
<event>
 5    1  0.8459321E-003  0.6820683E+02  0.7546771E-02  0.1424742E+00
         -2   -1    0    0    0  501 -0.00000000000E+00  0.00000000000E+00  0.10300692585E+03  0.10300692585E+03  0.00000000000E+00 0.  1.
          2   -1    0    0  502    0  0.00000000000E+00 -0.00000000000E+00 -0.22226145009E+04  0.22226145009E+04  0.00000000000E+00 0. -1.
         25    1    1    2    0    0 -0.82660075250E+02  0.35736407187E+02 -0.40754062511E+03  0.43568812235E+03  0.12500000000E+03 0.  0.
          3    1    1    2  502    0  0.39466900524E+02  0.16559173778E+02 -0.17877742476E+04  0.17882864991E+04  0.00000000000E+00 0. -1.
         -3    1    1    2    0  501  0.43193174726E+02 -0.52295580965E+02  0.75707297596E+02  0.10164680536E+03  0.00000000000E+00 0.  1.
<mgrwt>
<rscale>  0 0.54030125E+02</rscale>
<asrwt>0</asrwt>
<pdfrwt beam="2">  1        2 0.34194068E+00 0.42800029E+02</pdfrwt>
<pdfrwt beam="1">  1       -2 0.15847220E-01 0.68206831E+02</pdfrwt>
<totfact> 0.20890763E+02</totfact>
</mgrwt>
</event>
<event>
 5    1  0.8459321E-003  0.4765219E+02  0.7546771E-02  0.1462701E+00
         -1   -1    0    0    0  501 -0.00000000000E+00  0.00000000000E+00  0.94405842297E+02  0.94405842297E+02  0.00000000000E+00 0.  1.
          1   -1    0    0  502    0  0.00000000000E+00 -0.00000000000E+00 -0.13043260915E+04  0.13043260915E+04  0.00000000000E+00 0. -1.
         25    1    1    2    0    0 -0.25951206524E+01 -0.92821166002E+02 -0.43527588047E+03  0.46229059652E+03  0.12500000000E+03 0.  0.
          2    1    1    2  502    0  0.50556428794E+01  0.45920984630E+02 -0.84804454874E+03  0.84930197986E+03  0.00000000000E+00 0. -1.
         -2    1    1    2    0  501 -0.24605222269E+01  0.46900181372E+02  0.73400180017E+02  0.87139357405E+02  0.00000000000E+00 0.  1.
<mgrwt>
<rscale>  0 0.46919688E+02</rscale>
<asrwt>0</asrwt>
<pdfrwt beam="2">  1        1 0.20066556E+00 0.46198445E+02</pdfrwt>
<pdfrwt beam="1">  1       -1 0.14523976E-01 0.47652190E+02</pdfrwt>
<totfact> 0.35120509E+02</totfact>
</mgrwt>
</event>
<event>
 5    1  0.8459321E-003  0.1665367E+03  0.7546771E-02  0.1293118E+00
          2   -1    0    0  502    0  0.00000000000E+00  0.00000000000E+00  0.14998151748E+04  0.14998151748E+04  0.00000000000E+00 0. -1.
          1   -1    0    0  501    0 -0.00000000000E+00 -0.00000000000E+00 -0.63043948680E+03  0.63043948680E+03  0.00000000000E+00 0. -1.
         25    1    1    2    0    0 -0.10479538945E+03 -0.18579861391E+03  0.89832120529E+02  0.26305514338E+03  0.12500000000E+03 0.  0.
          2    1    1    2  501    0  0.65917381948E+02  0.14945621709E+03 -0.53100977597E+03  0.55556605750E+03  0.00000000000E+00 0. -1.
          1    1    1    2  502    0  0.38878007499E+02  0.36342396818E+02  0.13105533435E+04  0.13116334608E+04  0.00000000000E+00 0. -1.
<mgrwt>
<rscale>  0 0.94143119E+02</rscale>
<asrwt>0</asrwt>
<pdfrwt beam="1">  1        2 0.23074079E+00 0.53219069E+02</pdfrwt>
<pdfrwt beam="2">  1        1 0.96990691E-01 0.16653668E+03</pdfrwt>
<totfact> 0.71357872E+01</totfact>
</mgrwt>
</event>
<event>
 5    1  0.8459321E-003  0.3795699E+02  0.7546771E-02  0.1586187E+00
         -2   -1    0    0    0  501 -0.00000000000E+00  0.00000000000E+00  0.41556073154E+03  0.41556073154E+03  0.00000000000E+00 0.  1.
          2   -1    0    0  502    0  0.00000000000E+00 -0.00000000000E+00 -0.14032662470E+04  0.14032662470E+04  0.00000000000E+00 0. -1.
         25    1    1    2    0    0  0.17455637652E+02 -0.18392147810E+02 -0.87074044493E+02  0.15443399759E+03  0.12500000000E+03 0.  0.
          3    1    1    2  502    0 -0.37975834645E+02  0.32709077031E+01 -0.12818032607E+04  0.12823698616E+04  0.00000000000E+00 0. -1.
         -3    1    1    2    0  501  0.20520196993E+02  0.15121240107E+02  0.38117178975E+03  0.38202311931E+03  0.00000000000E+00 0.  1.
<mgrwt>
<rscale>  0 0.31104925E+02</rscale>
<asrwt>0</asrwt>
<pdfrwt beam="2">  1        2 0.21588711E+00 0.37956986E+02</pdfrwt>
<pdfrwt beam="1">  1       -2 0.63932421E-01 0.25489809E+02</pdfrwt>
<totfact> 0.42661298E+01</totfact>
</mgrwt>
</event>
<event>
 5    1  0.8459321E-003  0.2025393E+03  0.7546771E-02  0.1251123E+00
          2   -1    0    0  502    0  0.00000000000E+00  0.00000000000E+00  0.88972982289E+03  0.88972982289E+03  0.00000000000E+00 0. -1.
         -2   -1    0    0    0  501 -0.00000000000E+00 -0.00000000000E+00 -0.49304177667E+03  0.49304177667E+03  0.00000000000E+00 0.  1.
         25    1    1    2    0    0 -0.99975182873E+02 -0.12320240766E+03 -0.22250300024E+03  0.30051032521E+03  0.12500000000E+03 0.  0.
          1    1    1    2  502    0  0.84039770670E+02  0.18683178430E+03  0.83341259274E+03  0.85822220224E+03  0.00000000000E+00 0. -1.
         -1    1    1    2    0  501  0.15935412203E+02 -0.63629376646E+02 -0.21422154629E+03  0.22403907210E+03  0.00000000000E+00 0.  1.
<mgrwt>
<rscale>  0 0.11526256E+03</rscale>
<asrwt>0</asrwt>
<pdfrwt beam="1">  1        2 0.13688151E+00 0.20253929E+03</pdfrwt>
<pdfrwt beam="2">  1       -2 0.75852581E-01 0.65594473E+02</pdfrwt>
<totfact> 0.52004153E+01</totfact>
</mgrwt>
</event>
<event>
 5    1  0.8459321E-003  0.8102653E+02  0.7546771E-02  0.1352786E+00
          1   -1    0    0  501    0 -0.00000000000E+00  0.00000000000E+00  0.40896664658E+03  0.40896664658E+03  0.00000000000E+00 0. -1.
          2   -1    0    0  502    0  0.00000000000E+00 -0.00000000000E+00 -0.32793091240E+04  0.32793091240E+04  0.00000000000E+00 0. -1.
         25    1    1    2    0    0 -0.10080036736E+03 -0.10297132369E+03 -0.23003083212E+03  0.29883606089E+03  0.12500000000E+03 0.  0.
          2    1    1    2  501    0  0.41677306702E+02  0.48996949840E+02  0.37126651118E+03  0.37679771936E+03  0.00000000000E+00 0. -1.
          1    1    1    2  502    0  0.59123060656E+02  0.53974373849E+02 -0.30115781564E+04  0.30126419903E+04  0.00000000000E+00 0. -1.
<mgrwt>
<rscale>  0 0.72194373E+02</rscale>
<asrwt>0</asrwt>
<pdfrwt beam="2">  1        2 0.50450908E+00 0.81026532E+02</pdfrwt>
<pdfrwt beam="1">  1        1 0.62917947E-01 0.64324948E+02</pdfrwt>
<totfact> 0.14222923E+01</totfact>
</mgrwt>
</event>
<event>
 5    1  0.8459321E-003  0.2398530E+03  0.7546771E-02  0.1277237E+00
          1   -1    0    0  501    0 -0.00000000000E+00  0.00000000000E+00  0.18510335759E+04  0.18510335759E+04  0.00000000000E+00 0. -1.
          2   -1    0    0  502    0  0.00000000000E+00 -0.00000000000E+00 -0.33155452264E+03  0.33155452264E+03  0.00000000000E+00 0. -1.
         25    1    1    2    0    0  0.10527234861E+03 -0.23131542973E+03  0.94933556562E+03  0.99068264927E+03  0.12500000000E+03 0.  0.
          2    1    1    2  501    0 -0.12544239210E+03  0.19342316319E+03  0.86435887347E+03  0.89457508122E+03  0.00000000000E+00 0. -1.
          1    1    1    2  502    0  0.20170043492E+02  0.37892266541E+02 -0.29421538582E+03  0.29733036806E+03  0.00000000000E+00 0. -1.
<mgrwt>
<rscale>  0 0.10146903E+03</rscale>
<asrwt>0</asrwt>
<pdfrwt beam="2">  1        2 0.51008389E-01 0.42926152E+02</pdfrwt>
<pdfrwt beam="1">  1        1 0.28477439E+00 0.23985296E+03</pdfrwt>
<totfact> 0.57023850E+01</totfact>
</mgrwt>
</event>
<event>
 5    1  0.8459321E-003  0.7465770E+02  0.7546771E-02  0.1389954E+00
          2   -1    0    0  502    0  0.00000000000E+00  0.00000000000E+00  0.97626949719E+03  0.97626949719E+03  0.00000000000E+00 0. -1.
          1   -1    0    0  501    0 -0.00000000000E+00 -0.00000000000E+00 -0.12042739110E+04  0.12042739110E+04  0.00000000000E+00 0. -1.
         25    1    1    2    0    0  0.11902998613E+03 -0.37999529744E+02 -0.17891094335E+03  0.25148802657E+03  0.12500000000E+03 0.  0.
          2    1    1    2  501    0 -0.46502951489E+02  0.21784622116E+02 -0.98693689613E+03  0.98827199252E+03  0.00000000000E+00 0. -1.
          1    1    1    2  502    0 -0.72527034645E+02  0.16214907627E+02  0.93784342570E+03  0.94078338905E+03  0.00000000000E+00 0. -1.
<mgrwt>
<rscale>  0 0.61918257E+02</rscale>
<asrwt>0</asrwt>
<pdfrwt beam="1">  1        2 0.15019531E+00 0.74657702E+02</pdfrwt>
<pdfrwt beam="2">  1        1 0.18527291E+00 0.51352646E+02</pdfrwt>
<totfact> 0.51446656E+01</totfact>
</mgrwt>
</event>
<event>
 5    1  0.8459321E-003  0.1466422E+03  0.7546771E-02  0.1408501E+00
          1   -1    0    0  501    0 -0.00000000000E+00  0.00000000000E+00  0.79709505094E+03  0.79709505094E+03  0.00000000000E+00 0. -1.
          2   -1    0    0  502    0  0.00000000000E+00 -0.00000000000E+00 -0.17380014399E+04  0.17380014399E+04  0.00000000000E+00 0. -1.
         25    1    1    2    0    0  0.13907332423E+03 -0.66025544632E+02 -0.10978437165E+03  0.22666797373E+03  0.12500000000E+03 0.  0.
          2    1    1    2  501    0  0.62176532071E+00  0.22561119900E+02  0.73507092096E+03  0.73541733020E+03  0.00000000000E+00 0. -1.
          1    1    1    2  502    0 -0.13969508955E+03  0.43464424732E+02 -0.15661929383E+04  0.15730111869E+04  0.00000000000E+00 0. -1.
<mgrwt>
<rscale>  0 0.57529725E+02</rscale>
<asrwt>0</asrwt>
<pdfrwt beam="2">  1        2 0.26738483E+00 0.14664224E+03</pdfrwt>
<pdfrwt beam="1">  1        1 0.12263001E+00 0.22569686E+02</pdfrwt>
<totfact> 0.38946225E+01</totfact>
</mgrwt>
</event>
<event>
 5    1  0.8459321E-003  0.4147654E+02  0.7546771E-02  0.1593653E+00
         -2   -1    0    0    0  501 -0.00000000000E+00  0.00000000000E+00  0.95497197399E+02  0.95497197399E+02  0.00000000000E+00 0.  1.
          2   -1    0    0  502    0  0.00000000000E+00 -0.00000000000E+00 -0.11046158934E+04  0.11046158934E+04  0.00000000000E+00 0. -1.
         25    1    1    2    0    0 -0.25232511797E+02  0.29176860610E+02 -0.13787504931E+03  0.19005919623E+03  0.12500000000E+03 0.  0.
          1    1    1    2  502    0  0.39775631577E+02 -0.12286003608E+02 -0.93838580436E+03  0.93930876956E+03  0.00000000000E+00 0. -1.
         -1    1    1    2    0  501 -0.14543119780E+02 -0.16890857002E+02  0.67142157646E+02  0.70745125038E+02  0.00000000000E+00 0.  1.
<mgrwt>
<rscale>  0 0.30405167E+02</rscale>
<asrwt>0</asrwt>
<pdfrwt beam="2">  1        2 0.16994091E+00 0.41476541E+02</pdfrwt>
<pdfrwt beam="1">  1       -2 0.14691876E-01 0.22289087E+02</pdfrwt>
<totfact> 0.77876695E+02</totfact>
</mgrwt>
</event>
<event>
 5    1  0.8459321E-003  0.5031567E+02  0.7546771E-02  0.1475480E+00
         -2   -1    0    0    0  501  0.00000000000E+00  0.00000000000E+00  0.52282776440E+02  0.52282776440E+02  0.00000000000E+00 0.  1.
         -1   -1    0    0    0  502 -0.00000000000E+00 -0.00000000000E+00 -0.93835780798E+03  0.93835780798E+03  0.00000000000E+00 0.  1.
         25    1    1    2    0    0 -0.33338667504E-01 -0.85967840492E+02 -0.25417009272E+03  0.29600322084E+03  0.12500000000E+03 0.  0.
         -2    1    1    2    0  502 -0.10972271427E+02  0.47593647298E+02 -0.64926886553E+03  0.65110337562E+03  0.00000000000E+00 0.  1.
         -1    1    1    2    0  501  0.11005610095E+02  0.38374193194E+02  0.17363926712E+02  0.43533987960E+02  0.00000000000E+00 0.  1.
<mgrwt>
<rscale>  0 0.44818098E+02</rscale>
<asrwt>0</asrwt>
<pdfrwt beam="1">  1       -2 0.80435043E-02 0.39921199E+02</pdfrwt>
<pdfrwt beam="2">  1       -1 0.14436274E+00 0.50315671E+02</pdfrwt>
<totfact> 0.27861779E+02</totfact>
</mgrwt>
</event>
<event>
 5    1  0.8459321E-003  0.1772641E+03  0.7546771E-02  0.1238710E+00
          2   -1    0    0  502    0  0.00000000000E+00  0.00000000000E+00  0.48359247104E+03  0.48359247104E+03  0.00000000000E+00 0. -1.
          1   -1    0    0  501    0 -0.00000000000E+00 -0.00000000000E+00 -0.89912703691E+03  0.89912703691E+03  0.00000000000E+00 0. -1.
         25    1    1    2    0    0 -0.10914190851E+03 -0.17055763639E+03  0.32589295543E+03  0.40352581320E+03  0.12500000000E+03 0.  0.
          2    1    1    2  501    0  0.14906156822E+03  0.95594747571E+02 -0.83456652799E+03  0.85314652699E+03  0.00000000000E+00 0. -1.
          1    1    1    2  502    0 -0.39919659705E+02  0.74962888816E+02  0.93139006693E+02  0.12604716775E+03  0.00000000000E+00 0. -1.
<mgrwt>
<rscale>  0 0.12269858E+03</rscale>
<asrwt>0</asrwt>
<pdfrwt beam="1">  1        2 0.74398841E-01 0.84929464E+02</pdfrwt>
<pdfrwt beam="2">  1        1 0.13832724E+00 0.17726406E+03</pdfrwt>
<totfact> 0.17612630E+02</totfact>
</mgrwt>
</event>
<event>
 5    1  0.8459321E-003  0.6895065E+02  0.7546771E-02  0.1518458E+00
          2   -1    0    0  502    0  0.00000000000E+00  0.00000000000E+00  0.52084282712E+03  0.52084282712E+03  0.00000000000E+00 0. -1.
          1   -1    0    0  501    0 -0.00000000000E+00 -0.00000000000E+00 -0.55249819618E+03  0.55249819618E+03  0.00000000000E+00 0. -1.
         25    1    1    2    0    0  0.31689665470E+02  0.51275700063E+02 -0.24112859089E+03  0.27821112426E+03  0.12500000000E+03 0.  0.
          2    1    1    2  501    0  0.20716463894E+02 -0.63057946257E+01 -0.29004938393E+03  0.29085663142E+03  0.00000000000E+00 0. -1.
          1    1    1    2  502    0 -0.52406129364E+02 -0.44969905437E+02  0.49952260576E+03  0.50427326764E+03  0.00000000000E+00 0. -1.
<mgrwt>
<rscale>  0 0.38640908E+02</rscale>
<asrwt>0</asrwt>
<pdfrwt beam="1">  1        2 0.80129666E-01 0.68950649E+02</pdfrwt>
<pdfrwt beam="2">  1        1 0.84999723E-01 0.21654905E+02</pdfrwt>
<totfact> 0.35143669E+02</totfact>
</mgrwt>
</event>
<event>
 5    1  0.8459321E-003  0.5554264E+02  0.7546771E-02  0.1430104E+00
          1   -1    0    0  501    0 -0.00000000000E+00  0.00000000000E+00  0.36678560407E+02  0.36678560407E+02  0.00000000000E+00 0. -1.
          2   -1    0    0  502    0  0.00000000000E+00 -0.00000000000E+00 -0.39043977360E+04  0.39043977360E+04  0.00000000000E+00 0. -1.
         25    1    1    2    0    0 -0.75867589782E+02  0.41227275556E+01 -0.26557272880E+04  0.26597528675E+04  0.12500000000E+03 0.  0.
          2    1    1    2  501    0  0.37689067030E+02  0.33548457909E+02  0.15403786412E+02  0.52756435034E+02  0.00000000000E+00 0. -1.
          1    1    1    2  502    0  0.38178522752E+02 -0.37671185465E+02 -0.12273956740E+04  0.12285669938E+04  0.00000000000E+00 0. -1.
<mgrwt>
<rscale>  0 0.52939075E+02</rscale>
<asrwt>0</asrwt>
<pdfrwt beam="2">  1        2 0.60067651E+00 0.55542638E+02</pdfrwt>
<pdfrwt beam="1">  1        1 0.56428560E-02 0.50457554E+02</pdfrwt>
<totfact> 0.12148886E+02</totfact>
</mgrwt>
</event>
<event>
 5    1  0.8459321E-003  0.5567938E+02  0.7546771E-02  0.1499314E+00
          1   -1    0    0  501    0 -0.00000000000E+00  0.00000000000E+00  0.28113636390E+02  0.28113636390E+02  0.00000000000E+00 0. -1.
          2   -1    0    0  502    0  0.00000000000E+00 -0.00000000000E+00 -0.18942808485E+04  0.18942808485E+04  0.00000000000E+00 0. -1.
         25    1    1    2    0    0  0.10265710592E+02 -0.83088834484E+02 -0.22999525479E+03  0.27483077786E+03  0.12500000000E+03 0.  0.
          2    1    1    2  501    0  0.49698580363E+01  0.30130797107E+02 -0.39437645936E+02  0.49878776450E+02  0.00000000000E+00 0. -1.
          1    1    1    2  502    0 -0.15235568628E+02  0.52958037377E+02 -0.15967343114E+04  0.15976849306E+04  0.00000000000E+00 0. -1.
<mgrwt>
<rscale>  0 0.41235085E+02</rscale>
<asrwt>0</asrwt>
<pdfrwt beam="2">  1        2 0.29142782E+00 0.55679378E+02</pdfrwt>
<pdfrwt beam="1">  1        1 0.43251748E-02 0.30537918E+02</pdfrwt>
<totfact> 0.21936322E+03</totfact>
</mgrwt>
</event>
<event>
 5    1  0.8459321E-003  0.1309956E+03  0.7546771E-02  0.1280257E+00
         -2   -1    0    0    0  501 -0.00000000000E+00  0.00000000000E+00  0.64205202101E+02  0.64205202101E+02  0.00000000000E+00 0.  1.
          2   -1    0    0  502    0  0.00000000000E+00 -0.00000000000E+00 -0.20065580703E+04  0.20065580703E+04  0.00000000000E+00 0. -1.
         25    1    1    2    0    0 -0.14242762527E+03 -0.13129656959E+03 -0.11663747342E+04  0.11889404687E+04  0.12500000000E+03 0.  0.
          1    1    1    2  502    0  0.31248581401E+02  0.69680633182E+02 -0.74771822463E+03  0.75160788176E+03  0.00000000000E+00 0. -1.
         -1    1    1    2    0  501  0.11117904386E+03  0.61615936408E+02 -0.28259909396E+02  0.13021492193E+03  0.00000000000E+00 0.  1.
<mgrwt>
<rscale>  0 0.10001849E+03</rscale>
<asrwt>0</asrwt>
<pdfrwt beam="2">  1        2 0.30870127E+00 0.76366645E+02</pdfrwt>
<pdfrwt beam="1">  1       -2 0.98777226E-02 0.13099564E+03</pdfrwt>
<totfact> 0.54795443E+02</totfact>
</mgrwt>
</event>
<event>
 5    1  0.8459321E-003  0.1023312E+03  0.7546771E-02  0.1436687E+00
          2   -1    0    0  502    0  0.00000000000E+00  0.00000000000E+00  0.16800367684E+03  0.16800367684E+03  0.00000000000E+00 0. -1.
          1   -1    0    0  501    0 -0.00000000000E+00 -0.00000000000E+00 -0.50719642731E+03  0.50719642731E+03  0.00000000000E+00 0. -1.
         25    1    1    2    0    0  0.55473424708E+02  0.67348995955E+02 -0.24584452572E+03  0.28927101294E+03  0.12500000000E+03 0.  0.
          2    1    1    2  501    0 -0.62402130126E+02 -0.92471272162E+02 -0.22531191079E+03  0.25141682355E+03  0.00000000000E+00 0. -1.
          1    1    1    2  502    0  0.69287054186E+01  0.25122276208E+02  0.13196368603E+03  0.13451226766E+03  0.00000000000E+00 0. -1.
<mgrwt>
<rscale>  0 0.51640821E+02</rscale>
<asrwt>0</asrwt>
<pdfrwt beam="1">  1        2 0.25846720E-01 0.26060233E+02</pdfrwt>
<pdfrwt beam="2">  1        1 0.78030218E-01 0.10233118E+03</pdfrwt>
<totfact> 0.11873204E+03</totfact>
</mgrwt>
</event>
<event>
 5    1  0.8459321E-003  0.2355613E+03  0.7546771E-02  0.1215584E+00
          2   -1    0    0  502    0  0.00000000000E+00  0.00000000000E+00  0.14246452900E+04  0.14246452900E+04  0.00000000000E+00 0. -1.
          1   -1    0    0  501    0 -0.00000000000E+00 -0.00000000000E+00 -0.50278158136E+03  0.50278158136E+03  0.00000000000E+00 0. -1.
         25    1    1    2    0    0 -0.66374381388E+02  0.21895310589E+03  0.68475793171E+03  0.73271034258E+03  0.12500000000E+03 0.  0.
          2    1    1    2  501    0 -0.13051325300E+02 -0.23603190176E+03 -0.44707743755E+03  0.50572683428E+03  0.00000000000E+00 0. -1.
          1    1    1    2  502    0  0.79425706689E+02  0.17078795878E+02  0.68418321447E+03  0.68898969449E+03  0.00000000000E+00 0. -1.
<mgrwt>
<rscale>  0 0.13833753E+03</rscale>
<asrwt>0</asrwt>
<pdfrwt beam="1">  1        2 0.21917620E+00 0.81241173E+02</pdfrwt>
<pdfrwt beam="2">  1        1 0.77351013E-01 0.23556126E+03</pdfrwt>
<totfact> 0.10123844E+02</totfact>
</mgrwt>
</event>
<event>
 5    1  0.8459321E-003  0.7846778E+02  0.7546771E-02  0.1472046E+00
          1   -1    0    0  501    0 -0.00000000000E+00  0.00000000000E+00  0.10088930470E+04  0.10088930470E+04  0.00000000000E+00 0. -1.
          2   -1    0    0  502    0  0.00000000000E+00 -0.00000000000E+00 -0.34652741011E+03  0.34652741011E+03  0.00000000000E+00 0. -1.
         25    1    1    2    0    0 -0.52125734508E+02 -0.11653317445E+02 -0.85072042701E+02  0.16035942272E+03  0.12500000000E+03 0.  0.
          2    1    1    2  501    0  0.78250308891E+02  0.92738636293E+01  0.96887564338E+03  0.97207465132E+03  0.00000000000E+00 0. -1.
          1    1    1    2  502    0 -0.26124574383E+02  0.23794538160E+01 -0.22143796384E+03  0.22298638303E+03  0.00000000000E+00 0. -1.
<mgrwt>
<rscale>  0 0.45369843E+02</rscale>
<asrwt>0</asrwt>
<pdfrwt beam="2">  1        2 0.53311910E-01 0.26232712E+02</pdfrwt>
<pdfrwt beam="1">  1        1 0.15521431E+00 0.78467778E+02</pdfrwt>
<totfact> 0.21620859E+02</totfact>
</mgrwt>
</event>
<event>
 5    1  0.8459321E-003  0.1618445E+03  0.7546771E-02  0.1220523E+00
          2   -1    0    0  502    0  0.00000000000E+00  0.00000000000E+00  0.45634247422E+03  0.45634247422E+03  0.00000000000E+00 0. -1.
         -2   -1    0    0    0  501 -0.00000000000E+00 -0.00000000000E+00 -0.60843341911E+03  0.60843341911E+03  0.00000000000E+00 0.  1.
         25    1    1    2    0    0  0.18331812976E+02  0.13783748811E+03  0.19028287254E+02  0.18794228958E+03  0.12500000000E+03 0.  0.
          1    1    1    2  502    0  0.93471386544E+02 -0.14784949378E+03  0.32451087129E+03  0.36865116100E+03  0.00000000000E+00 0. -1.
         -1    1    1    2    0  501 -0.11180319952E+03  0.10012005672E+02 -0.49563010344E+03  0.50818244275E+03  0.00000000000E+00 0.  1.
<mgrwt>
<rscale>  0 0.13478555E+03</rscale>
<asrwt>0</asrwt>
<pdfrwt beam="1">  1        2 0.70206535E-01 0.16184453E+03</pdfrwt>
<pdfrwt beam="2">  1       -2 0.93605141E-01 0.11225059E+03</pdfrwt>
<totfact> 0.71824020E+01</totfact>
</mgrwt>
</event>
<event>
 5    1  0.8459321E-003  0.9904927E+02  0.7546771E-02  0.1383446E+00
         -2   -1    0    0    0  501 -0.00000000000E+00  0.00000000000E+00  0.10527801578E+02  0.10527801578E+02  0.00000000000E+00 0.  1.
          2   -1    0    0  502    0  0.00000000000E+00 -0.00000000000E+00 -0.32554736261E+04  0.32554736261E+04  0.00000000000E+00 0. -1.
         25    1    1    2    0    0  0.85780839594E+02  0.93074514840E+02 -0.13306538437E+04  0.13424924095E+04  0.12500000000E+03 0.  0.
          1    1    1    2  502    0 -0.77354936465E+02 -0.53159167361E+02 -0.17946583008E+04  0.17971110427E+04  0.00000000000E+00 0. -1.
         -1    1    1    2    0  501 -0.84259031297E+01 -0.39915347479E+02 -0.11963368007E+03  0.12639797552E+03  0.00000000000E+00 0.  1.
<mgrwt>
<rscale>  0 0.63566607E+02</rscale>
<asrwt>0</asrwt>
<pdfrwt beam="2">  1        2 0.50084240E+00 0.99049270E+02</pdfrwt>
<pdfrwt beam="1">  1       -2 0.16196608E-02 0.40794985E+02</pdfrwt>
<totfact> 0.13920672E+03</totfact>
</mgrwt>
</event>
<event>
 5    1  0.8459321E-003  0.1201476E+03  0.7546771E-02  0.1335510E+00
          2   -1    0    0  502    0  0.00000000000E+00  0.00000000000E+00  0.30708306659E+04  0.30708306659E+04  0.00000000000E+00 0. -1.
         -2   -1    0    0    0  501 -0.00000000000E+00 -0.00000000000E+00 -0.17183551434E+03  0.17183551434E+03  0.00000000000E+00 0.  1.
         25    1    1    2    0    0  0.15314778508E+03  0.52591888406E+02  0.74157358311E+02  0.21758783190E+03  0.12500000000E+03 0.  0.
          1    1    1    2  502    0 -0.11838454778E+03 -0.16188527507E+02  0.29173302788E+04  0.29197761773E+04  0.00000000000E+00 0. -1.
         -1    1    1    2    0  501 -0.34763237302E+02 -0.36403360898E+02 -0.92492485560E+02  0.10530217110E+03  0.00000000000E+00 0.  1.
<mgrwt>
<rscale>  0 0.77767088E+02</rscale>
<asrwt>0</asrwt>
<pdfrwt beam="1">  1        2 0.47243545E+00 0.12014762E+03</pdfrwt>
<pdfrwt beam="2">  1       -2 0.26436235E-01 0.50335746E+02</pdfrwt>
<totfact> 0.26662255E+01</totfact>
</mgrwt>
</event>
<event>
 5    1  0.8459321E-003  0.7340981E+02  0.7546771E-02  0.1405105E+00
          2   -1    0    0  502    0  0.00000000000E+00  0.00000000000E+00  0.10464590280E+04  0.10464590280E+04  0.00000000000E+00 0. -1.
          1   -1    0    0  501    0 -0.00000000000E+00 -0.00000000000E+00 -0.21566285990E+03  0.21566285990E+03  0.00000000000E+00 0. -1.
         25    1    1    2    0    0 -0.58363428561E+02  0.23461353837E+02 -0.44366738389E+02  0.14679963349E+03  0.12500000000E+03 0.  0.
          2    1    1    2  501    0 -0.12285897761E+02 -0.44641411665E+02 -0.11419206816E+03  0.12322186230E+03  0.00000000000E+00 0. -1.
          1    1    1    2  502    0  0.70649326321E+02  0.21180057828E+02  0.98935497462E+03  0.99210039208E+03  0.00000000000E+00 0. -1.
<mgrwt>
<rscale>  0 0.58300606E+02</rscale>
<asrwt>0</asrwt>
<pdfrwt beam="1">  1        2 0.16099369E+00 0.73409813E+02</pdfrwt>
<pdfrwt beam="2">  1        1 0.33178902E-01 0.46301176E+02</pdfrwt>
<totfact> 0.46731206E+02</totfact>
</mgrwt>
</event>
<event>
 5    1  0.8459321E-003  0.6175889E+02  0.7546771E-02  0.1424686E+00
          1   -1    0    0  501    0 -0.00000000000E+00  0.00000000000E+00  0.78421389877E+03  0.78421389877E+03  0.00000000000E+00 0. -1.
          2   -1    0    0  502    0  0.00000000000E+00 -0.00000000000E+00 -0.28836627766E+02  0.28836627766E+02  0.00000000000E+00 0. -1.
         25    1    1    2    0    0  0.28311696452E+02 -0.68987993400E+00  0.31507632991E+03  0.34014720601E+03  0.12500000000E+03 0.  0.
          2    1    1    2  501    0 -0.63112053923E+02 -0.31328519892E+02  0.41159754846E+03  0.41758490084E+03  0.00000000000E+00 0. -1.
          1    1    1    2  502    0  0.34800357471E+02  0.32018399826E+02  0.28703392635E+02  0.55318419684E+02  0.00000000000E+00 0. -1.
<mgrwt>
<rscale>  0 0.54041758E+02</rscale>
<asrwt>0</asrwt>
<pdfrwt beam="2">  1        2 0.44364049E-02 0.47288929E+02</pdfrwt>
<pdfrwt beam="1">  1        1 0.12064828E+00 0.61758886E+02</pdfrwt>
<totfact> 0.54090768E+03</totfact>
</mgrwt>
</event>
<event>
 5    1  0.8459321E-003  0.7770988E+02  0.7546771E-02  0.1496925E+00
          2   -1    0    0  502    0  0.00000000000E+00  0.00000000000E+00  0.13583249159E+02  0.13583249159E+02  0.00000000000E+00 0. -1.
          1   -1    0    0  501    0 -0.00000000000E+00 -0.00000000000E+00 -0.12465240744E+04  0.12465240744E+04  0.00000000000E+00 0. -1.
         25    1    1    2    0    0  0.12023092436E+02 -0.79475994020E+02 -0.58963304290E+03  0.60807327984E+03  0.12500000000E+03 0.  0.
          2    1    1    2  501    0  0.10080674322E+02  0.76985947998E+02 -0.57443083503E+03  0.57965441464E+03  0.00000000000E+00 0. -1.
          1    1    1    2  502    0 -0.22103766758E+02  0.24900460225E+01 -0.68876947338E+02  0.72379629101E+02  0.00000000000E+00 0. -1.
<mgrwt>
<rscale>  0 0.41575784E+02</rscale>
<asrwt>0</asrwt>
<pdfrwt beam="1">  1        2 0.20897310E-02 0.22243580E+02</pdfrwt>
<pdfrwt beam="2">  1        1 0.19177290E+00 0.77709877E+02</pdfrwt>
<totfact> 0.58242539E+03</totfact>
</mgrwt>
</event>
<event>
 5    1  0.8459321E-003  0.1139314E+03  0.7546771E-02  0.1279395E+00
          2   -1    0    0  502    0  0.00000000000E+00  0.00000000000E+00  0.30181291929E+03  0.30181291929E+03  0.00000000000E+00 0. -1.
          1   -1    0    0  501    0 -0.00000000000E+00 -0.00000000000E+00 -0.11807334199E+04  0.11807334199E+04  0.00000000000E+00 0. -1.
         25    1    1    2    0    0 -0.38052927350E+02 -0.56604304214E+01 -0.41072992487E+03  0.43105003994E+03  0.12500000000E+03 0.  0.
          2    1    1    2  501    0 -0.43653657604E+02 -0.77016435312E+02 -0.74553789810E+03  0.75077555277E+03  0.00000000000E+00 0. -1.
          1    1    1    2  502    0  0.81706584953E+02  0.82676865733E+02  0.27734732235E+03  0.30072074648E+03  0.00000000000E+00 0. -1.
<mgrwt>
<rscale>  0 0.10042958E+03</rscale>
<asrwt>0</asrwt>
<pdfrwt beam="1">  1        2 0.46432757E-01 0.11393144E+03</pdfrwt>
<pdfrwt beam="2">  1        1 0.18165130E+00 0.88527810E+02</pdfrwt>
<totfact> 0.18992335E+02</totfact>
</mgrwt>
</event>
<event>
 5    1  0.8459321E-003  0.5046597E+02  0.7546771E-02  0.1530548E+00
         -2   -1    0    0    0  501 -0.00000000000E+00  0.00000000000E+00  0.92868472338E+02  0.92868472338E+02  0.00000000000E+00 0.  1.
          2   -1    0    0  502    0  0.00000000000E+00 -0.00000000000E+00 -0.79908635207E+03  0.79908635207E+03  0.00000000000E+00 0. -1.
         25    1    1    2    0    0 -0.65226695609E+02  0.38483820673E+02 -0.17951549219E+03  0.23148723120E+03  0.12500000000E+03 0.  0.
          1    1    1    2  502    0  0.45368871131E+02 -0.19746507272E+02 -0.58971877612E+03  0.59179092079E+03  0.00000000000E+00 0. -1.
         -1    1    1    2    0  501  0.19857824478E+02 -0.18737313401E+02  0.63016388572E+02  0.68676672423E+02  0.00000000000E+00 0.  1.
<mgrwt>
<rscale>  0 0.37119284E+02</rscale>
<asrwt>0</asrwt>
<pdfrwt beam="2">  1        2 0.12293636E+00 0.50465970E+02</pdfrwt>
<pdfrwt beam="1">  1       -2 0.14287458E-01 0.27302383E+02</pdfrwt>
<totfact> 0.12347040E+03</totfact>
</mgrwt>
</event>
<event>
 5    1  0.8459321E-003  0.9610351E+02  0.7546771E-02  0.1291726E+00
         -2   -1    0    0    0  501 -0.00000000000E+00  0.00000000000E+00  0.31644013968E+03  0.31644013968E+03  0.00000000000E+00 0.  1.
          2   -1    0    0  502    0  0.00000000000E+00 -0.00000000000E+00 -0.60099989290E+03  0.60099989290E+03  0.00000000000E+00 0. -1.
         25    1    1    2    0    0 -0.42526730082E+02  0.35456499444E+02  0.83751568467E+02  0.16032782461E+03  0.12500000000E+03 0.  0.
          1    1    1    2  502    0  0.43504822750E+02  0.85692557445E+02 -0.53916491136E+03  0.54766293068E+03  0.00000000000E+00 0. -1.
         -1    1    1    2    0  501 -0.97809266793E+00 -0.12114905689E+03  0.17085358967E+03  0.20944927728E+03  0.00000000000E+00 0.  1.
<mgrwt>
<rscale>  0 0.94756114E+02</rscale>
<asrwt>0</asrwt>
<pdfrwt beam="2">  1        2 0.92461521E-01 0.96103507E+02</pdfrwt>
<pdfrwt beam="1">  1       -2 0.48683099E-01 0.93427613E+02</pdfrwt>
<totfact> 0.21126571E+02</totfact>
</mgrwt>
</event>
<event>
 5    1  0.8459321E-003  0.6668164E+02  0.7546771E-02  0.1390435E+00
          1   -1    0    0  501    0 -0.00000000000E+00  0.00000000000E+00  0.37620378730E+03  0.37620378730E+03  0.00000000000E+00 0. -1.
          2   -1    0    0  502    0  0.00000000000E+00 -0.00000000000E+00 -0.25784157522E+03  0.25784157522E+03  0.00000000000E+00 0. -1.
         25    1    1    2    0    0 -0.11263288791E+03 -0.41525103728E+02  0.69608830604E+02  0.18676426579E+03  0.12500000000E+03 0.  0.
          2    1    1    2  501    0  0.57753510310E+02  0.25139645487E+02  0.23974793684E+03  0.24788413210E+03  0.00000000000E+00 0. -1.
          1    1    1    2  502    0  0.54879377598E+02  0.16385458241E+02 -0.19099455536E+03  0.19939696463E+03  0.00000000000E+00 0. -1.
<mgrwt>
<rscale>  0 0.61798677E+02</rscale>
<asrwt>0</asrwt>
<pdfrwt beam="2">  1        2 0.39667935E-01 0.57273286E+02</pdfrwt>
<pdfrwt beam="1">  1        1 0.57877506E-01 0.66681638E+02</pdfrwt>
<totfact> 0.11451181E+03</totfact>
</mgrwt>
</event>
<event>
 5    1  0.8459321E-003  0.3319606E+02  0.7546771E-02  0.1630028E+00
         -2   -1    0    0    0  501 -0.00000000000E+00  0.00000000000E+00  0.32438226895E+02  0.32438226895E+02  0.00000000000E+00 0.  1.
          2   -1    0    0  502    0  0.00000000000E+00 -0.00000000000E+00 -0.99931441747E+03  0.99931441747E+03  0.00000000000E+00 0. -1.
         25    1    1    2    0    0 -0.12042425769E+02 -0.39804148615E+01 -0.45197041175E+03  0.46910885391E+03  0.12500000000E+03 0.  0.
          1    1    1    2  502    0 -0.21658910229E+02  0.59008688262E+01 -0.52648019863E+03  0.52695856403E+03  0.00000000000E+00 0. -1.
         -1    1    1    2    0  501  0.33701335998E+02 -0.19204539647E+01  0.11574419807E+02  0.35685226430E+02  0.00000000000E+00 0.  1.
<mgrwt>
<rscale>  0 0.27298295E+02</rscale>
<asrwt>0</asrwt>
<pdfrwt beam="2">  1        2 0.15374064E+00 0.22448355E+02</pdfrwt>
<pdfrwt beam="1">  1       -2 0.49904978E-02 0.33196058E+02</pdfrwt>
<totfact> 0.47688068E+03</totfact>
</mgrwt>
</event>
<event>
 5    1  0.8459321E-003  0.7260885E+02  0.7546771E-02  0.1391340E+00
         -1   -1    0    0    0  501 -0.00000000000E+00  0.00000000000E+00  0.20298278150E+02  0.20298278150E+02  0.00000000000E+00 0.  1.
          1   -1    0    0  502    0  0.00000000000E+00 -0.00000000000E+00 -0.14631176214E+04  0.14631176214E+04  0.00000000000E+00 0. -1.
         25    1    1    2    0    0 -0.81284973326E+01 -0.10221680774E+03 -0.11315350112E+04  0.11430270469E+04  0.12500000000E+03 0.  0.
          2    1    1    2  502    0 -0.30091335102E+02  0.42675166246E+02 -0.21287022709E+03  0.21918118496E+03  0.00000000000E+00 0. -1.
         -2    1    1    2    0  501  0.38219832434E+02  0.59541641492E+02 -0.98414104958E+02  0.12120766773E+03  0.00000000000E+00 0.  1.
<mgrwt>
<rscale>  0 0.61574720E+02</rscale>
<asrwt>0</asrwt>
<pdfrwt beam="2">  1        1 0.22509507E+00 0.52217413E+02</pdfrwt>
<pdfrwt beam="1">  1       -1 0.31228113E-02 0.72608847E+02</pdfrwt>
<totfact> 0.27286134E+03</totfact>
</mgrwt>
</event>
<event>
 5    1  0.8459321E-003  0.8961193E+02  0.7546771E-02  0.1309751E+00
         -2   -1    0    0    0  501 -0.00000000000E+00  0.00000000000E+00  0.30380737345E+03  0.30380737345E+03  0.00000000000E+00 0.  1.
          2   -1    0    0  502    0  0.00000000000E+00 -0.00000000000E+00 -0.21351014041E+04  0.21351014041E+04  0.00000000000E+00 0. -1.
         25    1    1    2    0    0 -0.57412236816E+02 -0.21450226073E+02  0.10394098991E+03  0.17373832772E+03  0.12500000000E+03 0.  0.
          1    1    1    2  502    0 -0.45375331014E+02  0.71726132622E+02 -0.20793906697E+04  0.20811220810E+04  0.00000000000E+00 0. -1.
         -1    1    1    2    0  501  0.10278756783E+03 -0.50275906550E+02  0.14415564917E+03  0.18404836882E+03  0.00000000000E+00 0.  1.
<mgrwt>
<rscale>  0 0.87210685E+02</rscale>
<asrwt>0</asrwt>
<pdfrwt beam="2">  1        2 0.32847715E+00 0.84873781E+02</pdfrwt>
<pdfrwt beam="1">  1       -2 0.46739595E-01 0.89611933E+02</pdfrwt>
<totfact> 0.31948965E+01</totfact>
</mgrwt>
</event>
<event>
 5    1  0.8459321E-003  0.6654267E+02  0.7546771E-02  0.1373100E+00
          2   -1    0    0  502    0  0.00000000000E+00  0.00000000000E+00  0.23954012456E+03  0.23954012456E+03  0.00000000000E+00 0. -1.
          1   -1    0    0  501    0 -0.00000000000E+00 -0.00000000000E+00 -0.90812965707E+03  0.90812965707E+03  0.00000000000E+00 0. -1.
         25    1    1    2    0    0 -0.24524202338E+02 -0.19213587470E+01 -0.39822616370E+02  0.13347647319E+03  0.12500000000E+03 0.  0.
          2    1    1    2  501    0 -0.62323194591E+01  0.65789368280E+02 -0.81357587510E+03  0.81625534445E+03  0.00000000000E+00 0. -1.
          1    1    1    2  502    0  0.30756521797E+02 -0.63868009533E+02  0.18480895896E+03  0.19793796399E+03  0.00000000000E+00 0. -1.
<mgrwt>
<rscale>  0 0.66312891E+02</rscale>
<asrwt>0</asrwt>
<pdfrwt beam="1">  1        2 0.36852327E-01 0.66542669E+02</pdfrwt>
<pdfrwt beam="2">  1        1 0.13971225E+00 0.66083907E+02</pdfrwt>
<totfact> 0.38152608E+02</totfact>
</mgrwt>
</event>
<event>
 5    1  0.8459321E-003  0.1121147E+03  0.7546771E-02  0.1299803E+00
          1   -1    0    0  501    0 -0.00000000000E+00  0.00000000000E+00  0.11318307636E+03  0.11318307636E+03  0.00000000000E+00 0. -1.
          2   -1    0    0  502    0  0.00000000000E+00 -0.00000000000E+00 -0.32533534237E+04  0.32533534237E+04  0.00000000000E+00 0. -1.
         25    1    1    2    0    0 -0.77374028815E+02 -0.96383265377E+02 -0.28523673024E+03  0.33505442313E+03  0.12500000000E+03 0.  0.
          2    1    1    2  501    0 -0.31427989673E+02  0.67328385338E+02  0.71361503270E+02  0.10302084331E+03  0.00000000000E+00 0. -1.
          1    1    1    2  502    0  0.10880201849E+03  0.29054880039E+02 -0.29262951204E+04  0.29284612336E+04  0.00000000000E+00 0. -1.
<mgrwt>
<rscale>  0 0.91270916E+02</rscale>
<asrwt>0</asrwt>
<pdfrwt beam="2">  1        2 0.50051581E+00 0.11211472E+03</pdfrwt>
<pdfrwt beam="1">  1        1 0.17412784E-01 0.74302288E+02</pdfrwt>
<totfact> 0.67107929E+01</totfact>
</mgrwt>
</event>
<event>
 5    1  0.8459321E-003  0.9350582E+02  0.7546771E-02  0.1418566E+00
          2   -1    0    0  502    0  0.00000000000E+00  0.00000000000E+00  0.90573463032E+03  0.90573463032E+03  0.00000000000E+00 0. -1.
          1   -1    0    0  501    0 -0.00000000000E+00 -0.00000000000E+00 -0.91693248918E+02  0.91693248918E+02  0.00000000000E+00 0. -1.
         25    1    1    2    0    0 -0.32684394766E+02 -0.97104631672E+02  0.64020691894E+03  0.66029347885E+03  0.12500000000E+03 0.  0.
          2    1    1    2  501    0  0.16615781456E+00  0.93344048986E+02 -0.53410015466E+02  0.10754426457E+03  0.00000000000E+00 0. -1.
          1    1    1    2  502    0  0.32518236951E+02  0.37605826856E+01  0.22724447793E+03  0.22959013582E+03  0.00000000000E+00 0. -1.
<mgrwt>
<rscale>  0 0.55325486E+02</rscale>
<asrwt>0</asrwt>
<pdfrwt beam="1">  1        2 0.13934378E+00 0.32734962E+02</pdfrwt>
<pdfrwt beam="2">  1        1 0.14106654E-01 0.93505818E+02</pdfrwt>
<totfact> 0.17333559E+03</totfact>
</mgrwt>
</event>
<event>
 5    1  0.8459321E-003  0.1006601E+03  0.7546771E-02  0.1332103E+00
          1   -1    0    0  501    0 -0.00000000000E+00  0.00000000000E+00  0.15619919030E+02  0.15619919030E+02  0.00000000000E+00 0. -1.
          2   -1    0    0  502    0  0.00000000000E+00 -0.00000000000E+00 -0.38020602508E+04  0.38020602508E+04  0.00000000000E+00 0. -1.
         25    1    1    2    0    0 -0.36945007619E+02 -0.14540441580E+03 -0.19157792878E+04  0.19257057557E+04  0.12500000000E+03 0.  0.
          2    1    1    2  501    0  0.49392616714E+01  0.61700657820E+02 -0.90986291144E+02  0.11004486656E+03  0.00000000000E+00 0. -1.
          1    1    1    2  502    0  0.32005745948E+02  0.83703757976E+02 -0.17796747528E+04  0.17819295476E+04  0.00000000000E+00 0. -1.
<mgrwt>
<rscale>  0 0.78934536E+02</rscale>
<asrwt>0</asrwt>
<pdfrwt beam="2">  1        2 0.58493226E+00 0.10066007E+03</pdfrwt>
<pdfrwt beam="1">  1        1 0.24030648E-02 0.61898041E+02</pdfrwt>
<totfact> 0.40508865E+02</totfact>
</mgrwt>
</event>
<event>
 5    1  0.8459321E-003  0.4487591E+02  0.7546771E-02  0.1513737E+00
         -1   -1    0    0    0  501 -0.00000000000E+00  0.00000000000E+00  0.46038572170E+03  0.46038572170E+03  0.00000000000E+00 0.  1.
          1   -1    0    0  502    0  0.00000000000E+00 -0.00000000000E+00 -0.38068172581E+03  0.38068172581E+03  0.00000000000E+00 0. -1.
         25    1    1    2    0    0 -0.89487153803E+01 -0.91906173133E+01 -0.31463878093E+02  0.12953579651E+03  0.12500000000E+03 0.  0.
          2    1    1    2  502    0 -0.33803031762E+02 -0.60767135269E+01 -0.29793990698E+03  0.29991291998E+03  0.00000000000E+00 0. -1.
         -2    1    1    2    0  501  0.42751747143E+02  0.15267330840E+02  0.40910778096E+03  0.41161873101E+03  0.00000000000E+00 0.  1.
<mgrwt>
<rscale>  0 0.39258862E+02</rscale>
<asrwt>0</asrwt>
<pdfrwt beam="2">  1        1 0.58566419E-01 0.34344889E+02</pdfrwt>
<pdfrwt beam="1">  1       -1 0.70828573E-01 0.44875912E+02</pdfrwt>
<totfact> 0.14547380E+02</totfact>
</mgrwt>
</event>
<event>
 5    1  0.8459321E-003  0.4084238E+02  0.7546771E-02  0.1534607E+00
          2   -1    0    0  502    0  0.00000000000E+00  0.00000000000E+00  0.49078621252E+02  0.49078621252E+02  0.00000000000E+00 0. -1.
          1   -1    0    0  501    0 -0.00000000000E+00 -0.00000000000E+00 -0.15128796740E+04  0.15128796740E+04  0.00000000000E+00 0. -1.
         25    1    1    2    0    0 -0.15666593025E+02 -0.67971870334E+02 -0.49885611949E+03  0.51898751936E+03  0.12500000000E+03 0.  0.
          2    1    1    2  501    0 -0.11719697352E+01  0.39768925548E+02 -0.99657583562E+03  0.99736970934E+03  0.00000000000E+00 0. -1.
          1    1    1    2  502    0  0.16838562760E+02  0.28202944786E+02  0.31630902344E+02  0.45601066583E+02  0.00000000000E+00 0. -1.
<mgrwt>
<rscale>  0 0.36627324E+02</rscale>
<asrwt>0</asrwt>
<pdfrwt beam="1">  1        2 0.75505568E-02 0.32847272E+02</pdfrwt>
<pdfrwt beam="2">  1        1 0.23275073E+00 0.40842383E+02</pdfrwt>
<totfact> 0.89194183E+02</totfact>
</mgrwt>
</event>
<event>
 5    1  0.8459321E-003  0.6649856E+02  0.7546771E-02  0.1379845E+00
          2   -1    0    0  502    0  0.00000000000E+00  0.00000000000E+00  0.36129713143E+03  0.36129713143E+03  0.00000000000E+00 0. -1.
          1   -1    0    0  501    0 -0.00000000000E+00 -0.00000000000E+00 -0.16433227485E+04  0.16433227485E+04  0.00000000000E+00 0. -1.
         25    1    1    2    0    0 -0.17231791279E+02  0.52531510121E+02 -0.72391942699E+03  0.73670946170E+03  0.12500000000E+03 0.  0.
          2    1    1    2  501    0 -0.49191844994E+02 -0.49375617027E+02 -0.90854682871E+03  0.91121629108E+03  0.00000000000E+00 0. -1.
          1    1    1    2  502    0  0.66423636273E+02 -0.31558930945E+01  0.35044063864E+03  0.35669412713E+03  0.00000000000E+00 0. -1.
<mgrwt>
<rscale>  0 0.64504462E+02</rscale>
<asrwt>0</asrwt>
<pdfrwt beam="1">  1        2 0.55584173E-01 0.66498565E+02</pdfrwt>
<pdfrwt beam="2">  1        1 0.25281889E+00 0.62570156E+02</pdfrwt>
<totfact> 0.81826568E+01</totfact>
</mgrwt>
</event>
<event>
 5    1  0.8459321E-003  0.6661598E+02  0.7546771E-02  0.1483123E+00
          1   -1    0    0  501    0 -0.00000000000E+00  0.00000000000E+00  0.10113923239E+03  0.10113923239E+03  0.00000000000E+00 0. -1.
          2   -1    0    0  502    0  0.00000000000E+00 -0.00000000000E+00 -0.24692467240E+04  0.24692467240E+04  0.00000000000E+00 0. -1.
         25    1    1    2    0    0 -0.75442616898E+02  0.16545778497E+02 -0.78433838613E+02  0.16655995398E+03  0.12500000000E+03 0.  0.
          2    1    1    2  501    0  0.96906985218E+01 -0.26872841383E+02  0.52999245839E+02  0.60207801001E+02  0.00000000000E+00 0. -1.
          1    1    1    2  502    0  0.65751918376E+02  0.10327062887E+02 -0.23426728988E+04  0.23436182014E+04  0.00000000000E+00 0. -1.
<mgrwt>
<rscale>  0 0.43623413E+02</rscale>
<asrwt>0</asrwt>
<pdfrwt beam="2">  1        2 0.37988407E+00 0.66615982E+02</pdfrwt>
<pdfrwt beam="1">  1        1 0.15559883E-01 0.28566751E+02</pdfrwt>
<totfact> 0.21690831E+02</totfact>
</mgrwt>
</event>
<event>
 5    1  0.8459321E-003  0.5330348E+02  0.7546771E-02  0.1458851E+00
          1   -1    0    0  501    0 -0.00000000000E+00  0.00000000000E+00  0.24910041086E+03  0.24910041086E+03  0.00000000000E+00 0. -1.
          2   -1    0    0  502    0  0.00000000000E+00 -0.00000000000E+00 -0.36930562161E+03  0.36930562161E+03  0.00000000000E+00 0. -1.
         25    1    1    2    0    0  0.38710381606E+02 -0.94362469928E+01  0.17054181847E+03  0.21516748883E+03  0.12500000000E+03 0.  0.
          2    1    1    2  501    0 -0.67706224117E+02 -0.21595748229E+02  0.31835855481E+02  0.77871887225E+02  0.00000000000E+00 0. -1.
          1    1    1    2  502    0  0.28995842511E+02  0.31031995222E+02 -0.32258288470E+03  0.32536665642E+03  0.00000000000E+00 0. -1.
<mgrwt>
<rscale>  0 0.47579674E+02</rscale>
<asrwt>0</asrwt>
<pdfrwt beam="2">  1        2 0.56816250E-01 0.42470503E+02</pdfrwt>
<pdfrwt beam="1">  1        1 0.38323140E-01 0.53303475E+02</pdfrwt>
<totfact> 0.12992677E+03</totfact>
</mgrwt>
</event>
<event>
 5    1  0.8459321E-003  0.1042738E+03  0.7546771E-02  0.1340280E+00
          2   -1    0    0  502    0  0.00000000000E+00  0.00000000000E+00  0.15234398696E+04  0.15234398696E+04  0.00000000000E+00 0. -1.
          1   -1    0    0  501    0 -0.00000000000E+00 -0.00000000000E+00 -0.72076205209E+03  0.72076205209E+03  0.00000000000E+00 0. -1.
         25    1    1    2    0    0 -0.11939463412E+03  0.78314178451E+01  0.10463490405E+03  0.20221244499E+03  0.12500000000E+03 0.  0.
          2    1    1    2  501    0  0.95249465906E+02  0.42300409749E+02 -0.66736220337E+03  0.67545103146E+03  0.00000000000E+00 0. -1.
          1    1    1    2  502    0  0.24145168214E+02 -0.50131827594E+02  0.13654051168E+04  0.13665384452E+04  0.00000000000E+00 0. -1.
<mgrwt>
<rscale>  0 0.76171860E+02</rscale>
<asrwt>0</asrwt>
<pdfrwt beam="1">  1        2 0.23437536E+00 0.55643412E+02</pdfrwt>
<pdfrwt beam="2">  1        1 0.11088647E+00 0.10427384E+03</pdfrwt>
<totfact> 0.58338865E+01</totfact>
</mgrwt>
</event>
<event>
 5    1  0.8459321E-003  0.4343506E+02  0.7546771E-02  0.1542002E+00
          1   -1    0    0  502    0  0.00000000000E+00  0.00000000000E+00  0.12619773430E+04  0.12619773430E+04  0.00000000000E+00 0. -1.
         -1   -1    0    0    0  501 -0.00000000000E+00 -0.00000000000E+00 -0.40606283722E+03  0.40606283722E+03  0.00000000000E+00 0.  1.
         25    1    1    2    0    0  0.29752642990E+02 -0.33936045703E+02 -0.27184001618E+02  0.13564971399E+03  0.12500000000E+03 0.  0.
          2    1    1    2  502    0 -0.27797745416E+02 -0.96706756177E+01  0.12060968822E+04  0.12064559362E+04  0.00000000000E+00 0. -1.
         -2    1    1    2    0  501 -0.19548975740E+01  0.43606721321E+02 -0.32299837480E+03  0.32593453007E+03  0.00000000000E+00 0.  1.
<mgrwt>
<rscale>  0 0.35754389E+02</rscale>
<asrwt>0</asrwt>
<pdfrwt beam="1">  1        1 0.19415036E+00 0.29431898E+02</pdfrwt>
<pdfrwt beam="2">  1       -1 0.62471206E-01 0.43435063E+02</pdfrwt>
<totfact> 0.35106353E+01</totfact>
</mgrwt>
</event>
<event>
 5    1  0.8459321E-003  0.1839416E+03  0.7546771E-02  0.1220755E+00
          1   -1    0    0  501    0 -0.00000000000E+00  0.00000000000E+00  0.15005314239E+04  0.15005314239E+04  0.00000000000E+00 0. -1.
          2   -1    0    0  502    0  0.00000000000E+00 -0.00000000000E+00 -0.76116440720E+03  0.76116440720E+03  0.00000000000E+00 0. -1.
         25    1    1    2    0    0  0.97160470581E+02 -0.11616825415E+02 -0.22488456802E+02  0.16033040375E+03  0.12500000000E+03 0.  0.
          2    1    1    2  501    0 -0.18837628141E+03 -0.25625919890E+02  0.14216247750E+04  0.14342800675E+04  0.00000000000E+00 0. -1.
          1    1    1    2  502    0  0.91215810829E+02  0.37242745304E+02 -0.65976930146E+03  0.66708535988E+03  0.00000000000E+00 0. -1.
<mgrwt>
<rscale>  0 0.13462173E+03</rscale>
<asrwt>0</asrwt>
<pdfrwt beam="2">  1        2 0.11710222E+00 0.98525866E+02</pdfrwt>
<pdfrwt beam="1">  1        1 0.23085099E+00 0.18394165E+03</pdfrwt>
<totfact> 0.39856193E+01</totfact>
</mgrwt>
</event>
<event>
 5    1  0.8459321E-003  0.2088912E+03  0.7546771E-02  0.1234769E+00
          2   -1    0    0  502    0  0.00000000000E+00  0.00000000000E+00  0.98310462259E+03  0.98310462259E+03  0.00000000000E+00 0. -1.
          1   -1    0    0  501    0 -0.00000000000E+00 -0.00000000000E+00 -0.11563596430E+04  0.11563596430E+04  0.00000000000E+00 0. -1.
         25    1    1    2    0    0 -0.15787148347E+02  0.24905275112E+03 -0.73560842558E+03  0.78677904311E+03  0.12500000000E+03 0.  0.
          2    1    1    2  501    0  0.59789340309E+02 -0.45328719039E+02 -0.38011347537E+03  0.38744768956E+03  0.00000000000E+00 0. -1.
          1    1    1    2  502    0 -0.44002191961E+02 -0.20372403208E+03  0.94246688051E+03  0.96523753295E+03  0.00000000000E+00 0. -1.
<mgrwt>
<rscale>  0 0.12519204E+03</rscale>
<asrwt>0</asrwt>
<pdfrwt beam="1">  1        2 0.15124687E+00 0.20889119E+03</pdfrwt>
<pdfrwt beam="2">  1        1 0.17790148E+00 0.75029714E+02</pdfrwt>
<totfact> 0.50607077E+01</totfact>
</mgrwt>
</event>
<event>
 5    1  0.8459321E-003  0.1363801E+03  0.7546771E-02  0.1331954E+00
         -2   -1    0    0    0  501 -0.00000000000E+00  0.00000000000E+00  0.40092703435E+03  0.40092703435E+03  0.00000000000E+00 0.  1.
          2   -1    0    0  502    0  0.00000000000E+00 -0.00000000000E+00 -0.77172970307E+03  0.77172970307E+03  0.00000000000E+00 0. -1.
         25    1    1    2    0    0  0.80154299540E+02 -0.75631891993E+02 -0.39494098350E+02  0.17125909794E+03  0.12500000000E+03 0.  0.
          1    1    1    2  502    0  0.44493544032E+02  0.10629691018E+02 -0.65076867339E+03  0.65237453358E+03  0.00000000000E+00 0. -1.
         -1    1    1    2    0  501 -0.12464784357E+03  0.65002200975E+02  0.31946010302E+03  0.34902310591E+03  0.00000000000E+00 0.  1.
<mgrwt>
<rscale>  0 0.78986058E+02</rscale>
<asrwt>0</asrwt>
<pdfrwt beam="2">  1        2 0.11872765E+00 0.45745664E+02</pdfrwt>
<pdfrwt beam="1">  1       -2 0.61681083E-01 0.13638008E+03</pdfrwt>
<totfact> 0.10073126E+02</totfact>
</mgrwt>
</event>
<event>
 5    1  0.8459321E-003  0.7633576E+02  0.7546771E-02  0.1341066E+00
         -1   -1    0    0    0  501 -0.00000000000E+00  0.00000000000E+00  0.17250750043E+03  0.17250750043E+03  0.00000000000E+00 0.  1.
          1   -1    0    0  502    0  0.00000000000E+00 -0.00000000000E+00 -0.71854227882E+03  0.71854227882E+03  0.00000000000E+00 0. -1.
         25    1    1    2    0    0  0.71927089383E+02 -0.76219403860E+02 -0.26898678808E+03  0.31458193825E+03  0.12500000000E+03 0.  0.
          2    1    1    2  502    0 -0.76120974022E+02  0.84296636616E+00 -0.41354058595E+03  0.42048891722E+03  0.00000000000E+00 0. -1.
         -2    1    1    2    0  501  0.41938846394E+01  0.75376437493E+02  0.13649259565E+03  0.15597892378E+03  0.00000000000E+00 0.  1.
<mgrwt>
<rscale>  0 0.75913222E+02</rscale>
<asrwt>0</asrwt>
<pdfrwt beam="2">  1        1 0.11054497E+00 0.76335764E+02</pdfrwt>
<pdfrwt beam="1">  1       -1 0.26539615E-01 0.75493020E+02</pdfrwt>
<totfact> 0.35378489E+02</totfact>
</mgrwt>
</event>
<event>
 5    1  0.8459321E-003  0.5883367E+02  0.7546771E-02  0.1463710E+00
          1   -1    0    0  501    0 -0.00000000000E+00  0.00000000000E+00  0.96776038553E+02  0.96776038553E+02  0.00000000000E+00 0. -1.
          2   -1    0    0  502    0  0.00000000000E+00 -0.00000000000E+00 -0.26367332472E+04  0.26367332472E+04  0.00000000000E+00 0. -1.
         25    1    1    2    0    0  0.26279287735E+02 -0.38561299371E+02 -0.82697636012E+03  0.83767086315E+03  0.12500000000E+03 0.  0.
          2    1    1    2  501    0  0.31564594739E+02  0.19583668972E+02  0.87119875949E+02  0.94708587345E+02  0.00000000000E+00 0. -1.
          1    1    1    2  502    0 -0.57843882474E+02  0.18977630399E+02 -0.18001007244E+04  0.18011298352E+04  0.00000000000E+00 0. -1.
<mgrwt>
<rscale>  0 0.46748799E+02</rscale>
<asrwt>0</asrwt>
<pdfrwt beam="2">  1        2 0.40565128E+00 0.58833673E+02</pdfrwt>
<pdfrwt beam="1">  1        1 0.14888621E-01 0.37146248E+02</pdfrwt>
<totfact> 0.19412826E+02</totfact>
</mgrwt>
</event>
<event>
 5    1  0.8459321E-003  0.9762585E+02  0.7546771E-02  0.1410799E+00
          1   -1    0    0  501    0 -0.00000000000E+00  0.00000000000E+00  0.18941233517E+02  0.18941233517E+02  0.00000000000E+00 0. -1.
          2   -1    0    0  502    0  0.00000000000E+00 -0.00000000000E+00 -0.14394113400E+04  0.14394113400E+04  0.00000000000E+00 0. -1.
         25    1    1    2    0    0  0.38711190962E+02 -0.65820845239E+02 -0.57150861836E+03  0.58998139025E+03  0.12500000000E+03 0.  0.
          2    1    1    2  501    0 -0.53647595241E+02  0.95581592561E+02 -0.31787097460E+03  0.33623780543E+03  0.00000000000E+00 0. -1.
          1    1    1    2  502    0  0.14936404280E+02 -0.29760747321E+02 -0.53109051349E+03  0.53213337780E+03  0.00000000000E+00 0. -1.
<mgrwt>
<rscale>  0 0.57015843E+02</rscale>
<asrwt>0</asrwt>
<pdfrwt beam="2">  1        2 0.22144790E+00 0.33298622E+02</pdfrwt>
<pdfrwt beam="1">  1        1 0.29140359E-02 0.97625851E+02</pdfrwt>
<totfact> 0.75114982E+03</totfact>
</mgrwt>
</event>
<event>
 5    1  0.8459321E-003  0.4648857E+02  0.7546771E-02  0.1487415E+00
         -1   -1    0    0    0  502 -0.00000000000E+00  0.00000000000E+00  0.64691463947E+02  0.64691463947E+02  0.00000000000E+00 0.  1.
         -2   -1    0    0    0  501  0.00000000000E+00 -0.00000000000E+00 -0.38352883735E+03  0.38352883735E+03  0.00000000000E+00 0.  1.
         25    1    1    2    0    0  0.38895438344E+01 -0.21775313617E+02 -0.14849338595E+03  0.19535756577E+03  0.12500000000E+03 0.  0.
         -2    1    1    2    0  502 -0.43580215371E+02  0.23330146383E+02  0.23682352826E+02  0.54812268129E+02  0.00000000000E+00 0.  1.
         -1    1    1    2    0  501  0.39690671537E+02 -0.15548327661E+01 -0.19402634029E+03  0.19805046740E+03  0.00000000000E+00 0.  1.
<mgrwt>
<rscale>  0 0.42971825E+02</rscale>
<asrwt>0</asrwt>
<pdfrwt beam="2">  1       -2 0.59004436E-01 0.39721114E+02</pdfrwt>
<pdfrwt beam="1">  1       -1 0.99525330E-02 0.46488569E+02</pdfrwt>
<totfact> 0.11183333E+03</totfact>
</mgrwt>
</event>
<event>
 5    1  0.8459321E-003  0.3278516E+03  0.7546771E-02  0.1318884E+00
          1   -1    0    0  501    0 -0.00000000000E+00  0.00000000000E+00  0.67876496420E+02  0.67876496420E+02  0.00000000000E+00 0. -1.
          2   -1    0    0  502    0  0.00000000000E+00 -0.00000000000E+00 -0.28146183941E+04  0.28146183941E+04  0.00000000000E+00 0. -1.
         25    1    1    2    0    0 -0.31401828255E+03 -0.10016672384E+02 -0.19560850433E+04  0.19850948371E+04  0.12500000000E+03 0.  0.
          2    1    1    2  501    0  0.33148877700E+03 -0.22820920230E+01 -0.46511830727E+03  0.57116114800E+03  0.00000000000E+00 0. -1.
          1    1    1    2  502    0 -0.17470494450E+02  0.12298764407E+02 -0.32553854711E+03  0.32623890546E+03  0.00000000000E+00 0. -1.
<mgrwt>
<rscale>  0 0.83693858E+02</rscale>
<asrwt>0</asrwt>
<pdfrwt beam="2">  1        2 0.43301812E+00 0.21365341E+02</pdfrwt>
<pdfrwt beam="1">  1        1 0.10442540E-01 0.32785164E+03</pdfrwt>
<totfact> 0.33103788E+02</totfact>
</mgrwt>
</event>
<event>
 5    1  0.8459321E-003  0.6621376E+02  0.7546771E-02  0.1399474E+00
          2   -1    0    0  502    0  0.00000000000E+00  0.00000000000E+00  0.27518301417E+03  0.27518301417E+03  0.00000000000E+00 0. -1.
          1   -1    0    0  501    0 -0.00000000000E+00 -0.00000000000E+00 -0.48700089736E+03  0.48700089736E+03  0.00000000000E+00 0. -1.
         25    1    1    2    0    0  0.55588676865E+01  0.11108256895E+03  0.43628583470E+02  0.17291238079E+03  0.12500000000E+03 0.  0.
          2    1    1    2  501    0 -0.19107552035E+02 -0.50148846103E+02 -0.41473294446E+03  0.41819065094E+03  0.00000000000E+00 0. -1.
          1    1    1    2  502    0  0.13548684348E+02 -0.60933722847E+02  0.15928647780E+03  0.17108087981E+03  0.00000000000E+00 0. -1.
<mgrwt>
<rscale>  0 0.59610458E+02</rscale>
<asrwt>0</asrwt>
<pdfrwt beam="1">  1        2 0.42335849E-01 0.66213762E+02</pdfrwt>
<pdfrwt beam="2">  1        1 0.74923213E-01 0.53665681E+02</pdfrwt>
<totfact> 0.78289449E+02</totfact>
</mgrwt>
</event>
<event>
 5    1  0.8459321E-003  0.5399309E+02  0.7546771E-02  0.1543912E+00
          2   -1    0    0  502    0  0.00000000000E+00  0.00000000000E+00  0.23306929452E+03  0.23306929452E+03  0.00000000000E+00 0. -1.
         -2   -1    0    0    0  501 -0.00000000000E+00 -0.00000000000E+00 -0.28792488149E+03  0.28792488149E+03  0.00000000000E+00 0.  1.
         25    1    1    2    0    0 -0.59363810219E+02  0.62938777199E+01  0.10205019785E+03  0.17205498465E+03  0.12500000000E+03 0.  0.
          1    1    1    2  502    0  0.51263185124E+02  0.15643489890E+02  0.87936417087E+02  0.10298274795E+03  0.00000000000E+00 0. -1.
         -1    1    1    2    0  501  0.81006250951E+01 -0.21937367610E+02 -0.24484220191E+03  0.24595644342E+03  0.00000000000E+00 0.  1.
<mgrwt>
<rscale>  0 0.35533646E+02</rscale>
<asrwt>0</asrwt>
<pdfrwt beam="1">  1        2 0.35856815E-01 0.53993091E+02</pdfrwt>
<pdfrwt beam="2">  1       -2 0.44296136E-01 0.23385214E+02</pdfrwt>
<totfact> 0.67363885E+02</totfact>
</mgrwt>
</event>
<event>
 5    1  0.8459321E-003  0.1141526E+03  0.7546771E-02  0.1345964E+00
          2   -1    0    0  502    0  0.00000000000E+00  0.00000000000E+00  0.53366315794E+03  0.53366315794E+03  0.00000000000E+00 0. -1.
          1   -1    0    0  501    0 -0.00000000000E+00 -0.00000000000E+00 -0.34022432932E+03  0.34022432932E+03  0.00000000000E+00 0. -1.
         25    1    1    2    0    0 -0.16210746191E+02 -0.11926260074E+03 -0.84456958040E+02  0.19298791151E+03  0.12500000000E+03 0.  0.
          2    1    1    2  501    0 -0.43287204018E+02  0.21645032570E+02 -0.19163499329E+03  0.19765186596E+03  0.00000000000E+00 0. -1.
          1    1    1    2  502    0  0.59497950209E+02  0.97617568168E+02  0.46953077995E+03  0.48324770979E+03  0.00000000000E+00 0. -1.
<mgrwt>
<rscale>  0 0.74328094E+02</rscale>
<asrwt>0</asrwt>
<pdfrwt beam="1">  1        2 0.82102024E-01 0.11415258E+03</pdfrwt>
<pdfrwt beam="2">  1        1 0.52342204E-01 0.48397205E+02</pdfrwt>
<totfact> 0.60254819E+02</totfact>
</mgrwt>
</event>
<event>
 5    1  0.8459321E-003  0.1837307E+03  0.7546771E-02  0.1260430E+00
          1   -1    0    0  502    0  0.00000000000E+00  0.00000000000E+00  0.19818393342E+04  0.19818393342E+04  0.00000000000E+00 0. -1.
         -1   -1    0    0    0  501 -0.00000000000E+00 -0.00000000000E+00 -0.54406644559E+03  0.54406644559E+03  0.00000000000E+00 0.  1.
         25    1    1    2    0    0  0.83975443127E+02  0.14846997869E+03 -0.24147129523E+03  0.32098067861E+03  0.12500000000E+03 0.  0.
          2    1    1    2  502    0 -0.14201809175E+03 -0.11716186062E+03  0.19335051477E+04  0.19422508067E+04  0.00000000000E+00 0. -1.
         -2    1    1    2    0  501  0.58042648623E+02 -0.31308118064E+02 -0.25426096378E+03  0.26267429455E+03  0.00000000000E+00 0.  1.
<mgrwt>
<rscale>  0 0.11007581E+03</rscale>
<asrwt>0</asrwt>
<pdfrwt beam="1">  1        1 0.30489836E+00 0.18373068E+03</pdfrwt>
<pdfrwt beam="2">  1       -1 0.83702531E-01 0.65948065E+02</pdfrwt>
<totfact> 0.57280148E+00</totfact>
</mgrwt>
</event>
<event>
 5    1  0.8459321E-003  0.4992145E+02  0.7546771E-02  0.1537482E+00
          1   -1    0    0  502    0  0.00000000000E+00  0.00000000000E+00  0.25792615067E+03  0.25792615067E+03  0.00000000000E+00 0. -1.
         -1   -1    0    0    0  501 -0.00000000000E+00 -0.00000000000E+00 -0.18887391263E+04  0.18887391263E+04  0.00000000000E+00 0.  1.
         25    1    1    2    0    0 -0.50004237577E+02  0.12645222518E+02 -0.10625848184E+03  0.17197729615E+03  0.12500000000E+03 0.  0.
          2    1    1    2  502    0  0.48122973845E+02  0.13660137253E+02  0.22218633311E+03  0.22774807702E+03  0.00000000000E+00 0. -1.
         -2    1    1    2    0  501  0.18812637321E+01 -0.26305359771E+02 -0.17467408269E+04  0.17469399038E+04  0.00000000000E+00 0.  1.
<mgrwt>
<rscale>  0 0.36284373E+02</rscale>
<asrwt>0</asrwt>
<pdfrwt beam="1">  1        1 0.39680947E-01 0.49921451E+02</pdfrwt>
<pdfrwt beam="2">  1       -1 0.29057525E+00 0.26372545E+02</pdfrwt>
<totfact> 0.62849537E+00</totfact>
</mgrwt>
</event>
<event>
 5    1  0.8459321E-003  0.4908204E+02  0.7546771E-02  0.1578499E+00
         -2   -1    0    0    0  501 -0.00000000000E+00  0.00000000000E+00  0.20637369357E+03  0.20637369357E+03  0.00000000000E+00 0.  1.
          2   -1    0    0  502    0  0.00000000000E+00 -0.00000000000E+00 -0.52070256531E+03  0.52070256531E+03  0.00000000000E+00 0. -1.
         25    1    1    2    0    0  0.14248556460E+02 -0.38392885495E+02 -0.26667025210E+03  0.29734669726E+03  0.12500000000E+03 0.  0.
          1    1    1    2  502    0 -0.17681056131E+02 -0.10701622658E+02 -0.23506350058E+03  0.23597032394E+03  0.00000000000E+00 0. -1.
         -1    1    1    2    0  501  0.34324996718E+01  0.49094508153E+02  0.18740488094E+03  0.19375923768E+03  0.00000000000E+00 0.  1.
<mgrwt>
<rscale>  0 0.31849676E+02</rscale>
<asrwt>0</asrwt>
<pdfrwt beam="2">  1        2 0.80108085E-01 0.20667474E+02</pdfrwt>
<pdfrwt beam="1">  1       -2 0.31749800E-01 0.49082044E+02</pdfrwt>
<totfact> 0.55373018E+02</totfact>
</mgrwt>
</event>
<event>
 5    1  0.8459321E-003  0.2945226E+02  0.7546771E-02  0.1642548E+00
          2   -1    0    0  502    0  0.00000000000E+00  0.00000000000E+00  0.27324350945E+03  0.27324350945E+03  0.00000000000E+00 0. -1.
          1   -1    0    0  501    0 -0.00000000000E+00 -0.00000000000E+00 -0.64046874684E+03  0.64046874684E+03  0.00000000000E+00 0. -1.
         25    1    1    2    0    0  0.44165038783E+02  0.17403035529E+02  0.19640696928E+03  0.23760074469E+03  0.12500000000E+03 0.  0.
          2    1    1    2  501    0 -0.23545845893E+02 -0.87546906213E-01 -0.61641143944E+03  0.61686098693E+03  0.00000000000E+00 0. -1.
          1    1    1    2  502    0 -0.20619192891E+02 -0.17315488623E+02  0.52779232769E+02  0.59250524668E+02  0.00000000000E+00 0. -1.
<mgrwt>
<rscale>  0 0.26334070E+02</rscale>
<asrwt>0</asrwt>
<pdfrwt beam="1">  1        2 0.42037463E-01 0.29452263E+02</pdfrwt>
<pdfrwt beam="2">  1        1 0.98533653E-01 0.23546009E+02</pdfrwt>
<totfact> 0.56336990E+02</totfact>
</mgrwt>
</event>
<event>
 5    1  0.8459321E-003  0.6799412E+02  0.7546771E-02  0.1470586E+00
          1   -1    0    0  501    0 -0.00000000000E+00  0.00000000000E+00  0.12980951580E+03  0.12980951580E+03  0.00000000000E+00 0. -1.
          2   -1    0    0  502    0  0.00000000000E+00 -0.00000000000E+00 -0.23331136494E+04  0.23331136494E+04  0.00000000000E+00 0. -1.
         25    1    1    2    0    0 -0.97181480530E+02 -0.11740769405E+02 -0.11533981477E+04  0.11642741829E+04  0.12500000000E+03 0.  0.
          2    1    1    2  501    0  0.66599178608E+02  0.12473993603E+02  0.11492725756E+03  0.13341411334E+03  0.00000000000E+00 0. -1.
          1    1    1    2  502    0  0.30582301922E+02 -0.73322419863E+00 -0.11648332434E+04  0.11652348689E+04  0.00000000000E+00 0. -1.
<mgrwt>
<rscale>  0 0.45607173E+02</rscale>
<asrwt>0</asrwt>
<pdfrwt beam="2">  1        2 0.35894054E+00 0.30591090E+02</pdfrwt>
<pdfrwt beam="1">  1        1 0.19970696E-01 0.67994118E+02</pdfrwt>
<totfact> 0.21833693E+02</totfact>
</mgrwt>
</event>
<event>
 5    1  0.8459321E-003  0.6708376E+02  0.7546771E-02  0.1464191E+00
          1   -1    0    0  501    0 -0.00000000000E+00  0.00000000000E+00  0.52198514888E+03  0.52198514888E+03  0.00000000000E+00 0. -1.
          2   -1    0    0  502    0  0.00000000000E+00 -0.00000000000E+00 -0.58193831639E+03  0.58193831639E+03  0.00000000000E+00 0. -1.
         25    1    1    2    0    0 -0.68578495593E+00  0.72220452664E+02 -0.38298266649E+03  0.40928839088E+03  0.12500000000E+03 0.  0.
          2    1    1    2  501    0  0.30637112864E+02 -0.59694706996E+02  0.50517878416E+03  0.50961524182E+03  0.00000000000E+00 0. -1.
          3    1    1    2  502    0 -0.29951327908E+02 -0.12525745667E+02 -0.18214928519E+03  0.18501983257E+03  0.00000000000E+00 0. -1.
<mgrwt>
<rscale>  0 0.46667703E+02</rscale>
<asrwt>0</asrwt>
<pdfrwt beam="2">  1        2 0.89528972E-01 0.32465002E+02</pdfrwt>
<pdfrwt beam="1">  1        1 0.80305407E-01 0.67083763E+02</pdfrwt>
<totfact> 0.32984823E+02</totfact>
</mgrwt>
</event>
<event>
 5    1  0.8459321E-003  0.1450733E+03  0.7546771E-02  0.1392383E+00
          1   -1    0    0  501    0 -0.00000000000E+00  0.00000000000E+00  0.40836951584E+02  0.40836951584E+02  0.00000000000E+00 0. -1.
          2   -1    0    0  502    0  0.00000000000E+00 -0.00000000000E+00 -0.26607172594E+04  0.26607172594E+04  0.00000000000E+00 0. -1.
         25    1    1    2    0    0 -0.12642688273E+03  0.89517883367E+02 -0.69083496549E+03  0.71894030188E+03  0.12500000000E+03 0.  0.
          2    1    1    2  501    0  0.12782799362E+03 -0.63638739058E+02 -0.16430512238E+03  0.21768339005E+03  0.00000000000E+00 0. -1.
          3    1    1    2  502    0 -0.14011108882E+01 -0.25879144309E+02 -0.17647402200E+04  0.17649305191E+04  0.00000000000E+00 0. -1.
<mgrwt>
<rscale>  0 0.61317791E+02</rscale>
<asrwt>0</asrwt>
<pdfrwt beam="2">  1        2 0.40934116E+00 0.25917045E+02</pdfrwt>
<pdfrwt beam="1">  1        1 0.62826073E-02 0.14507331E+03</pdfrwt>
<totfact> 0.72771061E+02</totfact>
</mgrwt>
</event>
<event>
 5    1  0.8459321E-003  0.6670795E+02  0.7546771E-02  0.1511016E+00
          2   -1    0    0  502    0  0.00000000000E+00  0.00000000000E+00  0.72884321603E+03  0.72884321603E+03  0.00000000000E+00 0. -1.
          1   -1    0    0  501    0 -0.00000000000E+00 -0.00000000000E+00 -0.17302175300E+04  0.17302175300E+04  0.00000000000E+00 0. -1.
         25    1    1    2    0    0  0.60534318374E+02  0.79619218535E+01 -0.18429103030E+03  0.23090253301E+03  0.12500000000E+03 0.  0.
          2    1    1    2  501    0  0.45083790466E+01 -0.23097333010E+02 -0.15209492937E+04  0.15211313442E+04  0.00000000000E+00 0. -1.
          1    1    1    2  502    0 -0.65042697420E+02  0.15135411157E+02  0.70386601004E+03  0.70702686883E+03  0.00000000000E+00 0. -1.
<mgrwt>
<rscale>  0 0.39621367E+02</rscale>
<asrwt>0</asrwt>
<pdfrwt beam="1">  1        2 0.11212973E+00 0.66707954E+02</pdfrwt>
<pdfrwt beam="2">  1        1 0.26618731E+00 0.23533216E+02</pdfrwt>
<totfact> 0.38209276E+01</totfact>
</mgrwt>
</event>
<event>
 5    1  0.8459321E-003  0.5711060E+02  0.7546771E-02  0.1486074E+00
          2   -1    0    0  502    0  0.00000000000E+00  0.00000000000E+00  0.22725409978E+03  0.22725409978E+03  0.00000000000E+00 0. -1.
          1   -1    0    0  501    0 -0.00000000000E+00 -0.00000000000E+00 -0.69019606409E+02  0.69019606409E+02  0.00000000000E+00 0. -1.
         25    1    1    2    0    0  0.20933502675E+02  0.52603781648E+02  0.83647057535E+02  0.16070843043E+03  0.12500000000E+03 0.  0.
          2    1    1    2  501    0 -0.32197915049E+02  0.53432143804E+01 -0.84207475200E+01  0.33707041731E+02  0.00000000000E+00 0. -1.
          3    1    1    2  502    0  0.11264412374E+02 -0.57946996028E+02  0.83008183358E+02  0.10185823403E+03  0.00000000000E+00 0. -1.
<mgrwt>
<rscale>  0 0.43173954E+02</rscale>
<asrwt>0</asrwt>
<pdfrwt beam="1">  1        2 0.34962169E-01 0.57110599E+02</pdfrwt>
<pdfrwt beam="2">  1        1 0.10618401E-01 0.32638255E+02</pdfrwt>
<totfact> 0.10062987E+04</totfact>
</mgrwt>
</event>
<event>
 5    1  0.8459321E-003  0.3894496E+02  0.7546771E-02  0.1544870E+00
          1   -1    0    0  502    0  0.00000000000E+00  0.00000000000E+00  0.33481764673E+03  0.33481764673E+03  0.00000000000E+00 0. -1.
         -1   -1    0    0    0  501 -0.00000000000E+00 -0.00000000000E+00 -0.37639686134E+02  0.37639686134E+02  0.00000000000E+00 0.  1.
         25    1    1    2    0    0  0.66313887883E+01  0.16014027124E+01  0.11529395038E+03  0.17018882103E+03  0.12500000000E+03 0.  0.
          2    1    1    2  502    0  0.34040356172E+02  0.18919935460E+02  0.11440031370E+03  0.12084759650E+03  0.00000000000E+00 0. -1.
         -2    1    1    2    0  501 -0.40671744960E+02 -0.20521338172E+02  0.67483696511E+02  0.81420915331E+02  0.00000000000E+00 0.  1.
<mgrwt>
<rscale>  0 0.35423641E+02</rscale>
<asrwt>0</asrwt>
<pdfrwt beam="1">  1        1 0.51510405E-01 0.38944959E+02</pdfrwt>
<pdfrwt beam="2">  1       -1 0.57907212E-02 0.32220714E+02</pdfrwt>
<totfact> 0.88498872E+03</totfact>
</mgrwt>
</event>
<event>
 5    1  0.8459321E-003  0.1131392E+03  0.7546771E-02  0.1419694E+00
          2   -1    0    0  502    0  0.00000000000E+00  0.00000000000E+00  0.89019899242E+03  0.89019899242E+03  0.00000000000E+00 0. -1.
          1   -1    0    0  501    0 -0.00000000000E+00 -0.00000000000E+00 -0.19846886079E+03  0.19846886079E+03  0.00000000000E+00 0. -1.
         25    1    1    2    0    0  0.25342782855E+02  0.90256169980E+02  0.37012384477E+03  0.40175252747E+03  0.12500000000E+03 0.  0.
          2    1    1    2  501    0 -0.11913541109E+02 -0.11347223908E+03 -0.16443103631E+03  0.20013857001E+03  0.00000000000E+00 0. -1.
          1    1    1    2  502    0 -0.13429241747E+02  0.23216069096E+02  0.48603732317E+03  0.48677675573E+03  0.00000000000E+00 0. -1.
<mgrwt>
<rscale>  0 0.55085670E+02</rscale>
<asrwt>0</asrwt>
<pdfrwt beam="1">  1        2 0.13695369E+00 0.26820336E+02</pdfrwt>
<pdfrwt beam="2">  1        1 0.30533671E-01 0.11313919E+03</pdfrwt>
<totfact> 0.68006553E+02</totfact>
</mgrwt>
</event>
<event>
 5    1  0.2103817E-002  0.7369509E+02  0.7546771E-02  0.1372631E+00
          2   -1    0    0  502    0  0.00000000000E+00  0.00000000000E+00  0.15172118978E+04  0.15172118978E+04  0.00000000000E+00 0. -1.
          1   -1    0    0  501    0 -0.00000000000E+00 -0.00000000000E+00 -0.18308977816E+04  0.18308977816E+04  0.00000000000E+00 0. -1.
         25    1    1    2    0    0  0.28305588340E+02 -0.65155646611E+02 -0.34533785453E+03  0.37407178240E+03  0.12500000000E+03 0.  0.
          2    1    1    2  501    0  0.41968995135E+02  0.42740761872E+02 -0.14696773746E+04  0.14708976017E+04  0.00000000000E+00 0. -1.
          1    1    1    2  502    0 -0.70274583475E+02  0.22414884739E+02  0.15013293453E+04  0.15031402953E+04  0.00000000000E+00 0. -1.
<mgrwt>
<rscale>  0 0.66441207E+02</rscale>
<asrwt>0</asrwt>
<pdfrwt beam="1">  1        2 0.23341721E+00 0.73695092E+02</pdfrwt>
<pdfrwt beam="2">  1        1 0.28167658E+00 0.59901330E+02</pdfrwt>
<totfact> 0.10515685E+01</totfact>
</mgrwt>
</event>
<event>
 5    1  0.8459321E-003  0.1145326E+03  0.7546771E-02  0.1450221E+00
          1   -1    0    0  501    0 -0.00000000000E+00  0.00000000000E+00  0.10642059197E+03  0.10642059197E+03  0.00000000000E+00 0. -1.
          2   -1    0    0  502    0  0.00000000000E+00 -0.00000000000E+00 -0.13501988591E+04  0.13501988591E+04  0.00000000000E+00 0. -1.
         25    1    1    2    0    0  0.81184957702E+01  0.11228372392E+03 -0.14335275749E+03  0.22101709823E+03  0.12500000000E+03 0.  0.
          2    1    1    2  501    0  0.21018224376E+02 -0.12380017730E+01  0.63052005775E+02  0.66474460032E+02  0.00000000000E+00 0. -1.
          1    1    1    2  502    0 -0.29136720146E+02 -0.11104572215E+03 -0.11634775154E+04  0.11691278928E+04  0.00000000000E+00 0. -1.
<mgrwt>
<rscale>  0 0.49106461E+02</rscale>
<asrwt>0</asrwt>
<pdfrwt beam="2">  1        2 0.20772291E+00 0.11453262E+03</pdfrwt>
<pdfrwt beam="1">  1        1 0.16372398E-01 0.21054653E+02</pdfrwt>
<totfact> 0.69723919E+02</totfact>
</mgrwt>
</event>
<event>
 5    1  0.8459321E-003  0.1511489E+03  0.7546771E-02  0.1277289E+00
          1   -1    0    0  501    0 -0.00000000000E+00  0.00000000000E+00  0.88620764760E+03  0.88620764760E+03  0.00000000000E+00 0. -1.
          2   -1    0    0  502    0  0.00000000000E+00 -0.00000000000E+00 -0.16996712088E+04  0.16996712088E+04  0.00000000000E+00 0. -1.
         25    1    1    2    0    0 -0.75800131582E+02 -0.43331426533E+02 -0.82451167116E+02  0.17333916878E+03  0.12500000000E+03 0.  0.
          2    1    1    2  501    0  0.12755887572E+03  0.87563037948E+02  0.83289862812E+03  0.84714737627E+03  0.00000000000E+00 0. -1.
          1    1    1    2  502    0 -0.51758744137E+02 -0.44231611414E+02 -0.15639110223E+04  0.15653923114E+04  0.00000000000E+00 0. -1.
<mgrwt>
<rscale>  0 0.10144353E+03</rscale>
<asrwt>0</asrwt>
<pdfrwt beam="2">  1        2 0.26148788E+00 0.68083794E+02</pdfrwt>
<pdfrwt beam="1">  1        1 0.13633964E+00 0.15114888E+03</pdfrwt>
<totfact> 0.33713724E+01</totfact>
</mgrwt>
</event>
<event>
 5    1  0.8459321E-003  0.1282178E+03  0.7546771E-02  0.1343094E+00
          1   -1    0    0  501    0 -0.00000000000E+00  0.00000000000E+00  0.21029791194E+03  0.21029791194E+03  0.00000000000E+00 0. -1.
          2   -1    0    0  502    0  0.00000000000E+00 -0.00000000000E+00 -0.14996595598E+04  0.14996595598E+04  0.00000000000E+00 0. -1.
         25    1    1    2    0    0 -0.11150757531E+03 -0.28374214936E+02 -0.23226101070E+03  0.28776589881E+03  0.12500000000E+03 0.  0.
          2    1    1    2  501    0  0.10790736914E+03  0.72392772351E+02  0.15896972023E+03  0.20531947242E+03  0.00000000000E+00 0. -1.
          1    1    1    2  502    0  0.36002061693E+01 -0.44018557415E+02 -0.12160703573E+04  0.12168721005E+04  0.00000000000E+00 0. -1.
<mgrwt>
<rscale>  0 0.75251632E+02</rscale>
<asrwt>0</asrwt>
<pdfrwt beam="2">  1        2 0.23071685E+00 0.44165540E+02</pdfrwt>
<pdfrwt beam="1">  1        1 0.32353526E-01 0.12821779E+03</pdfrwt>
<totfact> 0.29445189E+02</totfact>
</mgrwt>
</event>
<event>
 5    1  0.8459321E-003  0.8964270E+02  0.7546771E-02  0.1344492E+00
          2   -1    0    0  502    0  0.00000000000E+00  0.00000000000E+00  0.88905325681E+03  0.88905325681E+03  0.00000000000E+00 0. -1.
          1   -1    0    0  501    0 -0.00000000000E+00 -0.00000000000E+00 -0.64656068335E+03  0.64656068335E+03  0.00000000000E+00 0. -1.
         25    1    1    2    0    0  0.20957772509E+02 -0.14827239580E+03 -0.14260438431E+03  0.24162976226E+03  0.12500000000E+03 0.  0.
          2    1    1    2  501    0 -0.19252736764E+02  0.59371262453E+02 -0.44992893689E+03  0.45423745214E+03  0.00000000000E+00 0. -1.
          1    1    1    2  502    0 -0.17050357450E+01  0.88901133347E+02  0.83502589467E+03  0.83974672576E+03  0.00000000000E+00 0. -1.
<mgrwt>
<rscale>  0 0.74799978E+02</rscale>
<asrwt>0</asrwt>
<pdfrwt beam="1">  1        2 0.13677742E+00 0.89642702E+02</pdfrwt>
<pdfrwt beam="2">  1        1 0.99470875E-01 0.62414859E+02</pdfrwt>
<totfact> 0.14835335E+02</totfact>
</mgrwt>
</event>
<event>
 5    1  0.8716781E-003  0.8466561E+02  0.7546771E-02  0.1330204E+00
          1   -1    0    0  502    0  0.00000000000E+00  0.00000000000E+00  0.10710035406E+04  0.10710035406E+04  0.00000000000E+00 0. -1.
         -1   -1    0    0    0  501 -0.00000000000E+00 -0.00000000000E+00 -0.62973551831E+03  0.62973551831E+03  0.00000000000E+00 0.  1.
         25    1    1    2    0    0  0.29240375587E+02  0.15952587696E+02 -0.26914568456E+03  0.29861996607E+03  0.12500000000E+03 0.  0.
          2    1    1    2  502    0  0.64380528299E+02 -0.54985577424E+02  0.10470837636E+04  0.10505011538E+04  0.00000000000E+00 0. -1.
         -2    1    1    2    0  501 -0.93620903887E+02  0.39032989728E+02 -0.33667005676E+03  0.35161793903E+03  0.00000000000E+00 0.  1.
<mgrwt>
<rscale>  0 0.79595321E+02</rscale>
<asrwt>0</asrwt>
<pdfrwt beam="1">  1        1 0.16476978E+00 0.84665614E+02</pdfrwt>
<pdfrwt beam="2">  1       -1 0.96882387E-01 0.74828669E+02</pdfrwt>
<totfact> 0.17757499E+01</totfact>
</mgrwt>
</event>
<event>
 5    1  0.8459321E-003  0.1333663E+03  0.7546771E-02  0.1230248E+00
          2   -1    0    0  502    0  0.00000000000E+00  0.00000000000E+00  0.25726600988E+04  0.25726600988E+04  0.00000000000E+00 0. -1.
          1   -1    0    0  501    0 -0.00000000000E+00 -0.00000000000E+00 -0.13416819451E+04  0.13416819451E+04  0.00000000000E+00 0. -1.
         25    1    1    2    0    0  0.32860561478E+02 -0.10904227396E+03 -0.17407564534E+03  0.24268779185E+03  0.12500000000E+03 0.  0.
          2    1    1    2  501    0 -0.12273153780E+03  0.96521134673E+01 -0.11281808931E+04  0.11348781086E+04  0.00000000000E+00 0. -1.
          1    1    1    2  502    0  0.89870976317E+02  0.99390160492E+02  0.25332346921E+04  0.25367761434E+04  0.00000000000E+00 0. -1.
<mgrwt>
<rscale>  0 0.12813582E+03</rscale>
<asrwt>0</asrwt>
<pdfrwt beam="1">  1        2 0.39579386E+00 0.13336627E+03</pdfrwt>
<pdfrwt beam="2">  1        1 0.20641261E+00 0.12311049E+03</pdfrwt>
<totfact> 0.53974172E+00</totfact>
</mgrwt>
</event>
<event>
 5    1  0.8459321E-003  0.1184756E+03  0.7546771E-02  0.1358489E+00
         -2   -1    0    0    0  501  0.00000000000E+00  0.00000000000E+00  0.12476417279E+04  0.12476417279E+04  0.00000000000E+00 0.  1.
         -1   -1    0    0    0  502 -0.00000000000E+00 -0.00000000000E+00 -0.62545594487E+02  0.62545594487E+02  0.00000000000E+00 0.  1.
         25    1    1    2    0    0  0.13128636061E+03 -0.54609695020E+02  0.88924892343E+03  0.90917928655E+03  0.12500000000E+03 0.  0.
         -2    1    1    2    0  502 -0.40393861630E+02  0.11209870265E+02 -0.35348865772E+02  0.54834911873E+02  0.00000000000E+00 0.  1.
         -1    1    1    2    0  501 -0.90892498975E+02  0.43399824756E+02  0.33119607574E+03  0.34617312395E+03  0.00000000000E+00 0.  1.
<mgrwt>
<rscale>  0 0.70473781E+02</rscale>
<asrwt>0</asrwt>
<pdfrwt beam="1">  1       -2 0.19194486E+00 0.11847564E+03</pdfrwt>
<pdfrwt beam="2">  1       -1 0.96224001E-02 0.41920463E+02</pdfrwt>
<totfact> 0.72363925E+01</totfact>
</mgrwt>
</event>
<event>
 5    1  0.8459321E-003  0.7317921E+02  0.7546771E-02  0.1370783E+00
          2   -1    0    0  502    0  0.00000000000E+00  0.00000000000E+00  0.17061029741E+04  0.17061029741E+04  0.00000000000E+00 0. -1.
          1   -1    0    0  501    0 -0.00000000000E+00 -0.00000000000E+00 -0.47424294152E+03  0.47424294152E+03  0.00000000000E+00 0. -1.
         25    1    1    2    0    0  0.71319479147E+02 -0.73228340842E+02  0.24136689428E+03  0.29039944157E+03  0.12500000000E+03 0.  0.
          2    1    1    2  501    0 -0.61240681273E+02  0.11306304664E+01 -0.44671556601E+03  0.45089521653E+03  0.00000000000E+00 0. -1.
          1    1    1    2  502    0 -0.10078797874E+02  0.72097710375E+02  0.14372087043E+04  0.14390512575E+04  0.00000000000E+00 0. -1.
<mgrwt>
<rscale>  0 0.66950043E+02</rscale>
<asrwt>0</asrwt>
<pdfrwt beam="1">  1        2 0.26247738E+00 0.73179208E+02</pdfrwt>
<pdfrwt beam="2">  1        1 0.72960453E-01 0.61251117E+02</pdfrwt>
<totfact> 0.81893179E+01</totfact>
</mgrwt>
</event>
<event>
 5    1  0.8459321E-003  0.1045625E+03  0.7546771E-02  0.1367442E+00
          1   -1    0    0  501    0 -0.00000000000E+00  0.00000000000E+00  0.44904149205E+03  0.44904149205E+03  0.00000000000E+00 0. -1.
          2   -1    0    0  502    0  0.00000000000E+00 -0.00000000000E+00 -0.27614947228E+03  0.27614947228E+03  0.00000000000E+00 0. -1.
         25    1    1    2    0    0  0.67588292001E+02 -0.79638470159E+02 -0.36085686867E+02  0.16684615651E+03  0.12500000000E+03 0.  0.
          2    1    1    2  501    0 -0.95011623032E+02  0.45138928765E+02  0.37349607679E+03  0.38802583777E+03  0.00000000000E+00 0. -1.
          1    1    1    2  502    0  0.27423331031E+02  0.34499541394E+02 -0.16451837015E+03  0.17031897005E+03  0.00000000000E+00 0. -1.
<mgrwt>
<rscale>  0 0.67883580E+02</rscale>
<asrwt>0</asrwt>
<pdfrwt beam="2">  1        2 0.42484534E-01 0.44071050E+02</pdfrwt>
<pdfrwt beam="1">  1        1 0.69083307E-01 0.10456253E+03</pdfrwt>
<totfact> 0.84790085E+02</totfact>
</mgrwt>
</event>
<event>
 5    1  0.8459321E-003  0.5653358E+02  0.7546771E-02  0.1420699E+00
         -2   -1    0    0    0  501 -0.00000000000E+00  0.00000000000E+00  0.67768303718E+02  0.67768303718E+02  0.00000000000E+00 0.  1.
          2   -1    0    0  502    0  0.00000000000E+00 -0.00000000000E+00 -0.10659958842E+04  0.10659958842E+04  0.00000000000E+00 0. -1.
         25    1    1    2    0    0 -0.67227099906E+02  0.79859084007E+01 -0.10927343376E+03  0.17930125772E+03  0.12500000000E+03 0.  0.
          1    1    1    2  502    0  0.41621878940E+02  0.38717303535E+02 -0.89854771030E+03  0.90034404428E+03  0.00000000000E+00 0. -1.
         -1    1    1    2    0  501  0.25605220966E+02 -0.46703211936E+02  0.95935636111E+01  0.54118885877E+02  0.00000000000E+00 0.  1.
<mgrwt>
<rscale>  0 0.54873300E+02</rscale>
<asrwt>0</asrwt>
<pdfrwt beam="2">  1        2 0.16399935E+00 0.56533579E+02</pdfrwt>
<pdfrwt beam="1">  1       -2 0.10425894E-01 0.53261781E+02</pdfrwt>
<totfact> 0.14625715E+03</totfact>
</mgrwt>
</event>
<event>
 5    1  0.8459321E-003  0.1139630E+03  0.7546771E-02  0.1445766E+00
          2   -1    0    0  502    0  0.00000000000E+00  0.00000000000E+00  0.13098773299E+03  0.13098773299E+03  0.00000000000E+00 0. -1.
          1   -1    0    0  501    0 -0.00000000000E+00 -0.00000000000E+00 -0.31604811884E+03  0.31604811884E+03  0.00000000000E+00 0. -1.
         25    1    1    2    0    0  0.17478709873E+01 -0.99848661974E+02 -0.96986480464E+02  0.18709406122E+03  0.12500000000E+03 0.  0.
          2    1    1    2  501    0  0.53813245111E+01  0.12052197432E+03 -0.15102808255E+03  0.19329766338E+03  0.00000000000E+00 0. -1.
          3    1    1    2  502    0 -0.71291954985E+01 -0.20673312349E+02  0.62954177164E+02  0.66644127231E+02  0.00000000000E+00 0. -1.
<mgrwt>
<rscale>  0 0.49921426E+02</rscale>
<asrwt>0</asrwt>
<pdfrwt beam="1">  1        2 0.20151959E-01 0.21868042E+02</pdfrwt>
<pdfrwt beam="2">  1        1 0.48622788E-01 0.11396305E+03</pdfrwt>
<totfact> 0.27582743E+03</totfact>
</mgrwt>
</event>
<event>
 5    1  0.8459321E-003  0.7218115E+02  0.7546771E-02  0.1398280E+00
         -2   -1    0    0    0  501 -0.00000000000E+00  0.00000000000E+00  0.49143269012E+03  0.49143269012E+03  0.00000000000E+00 0.  1.
          2   -1    0    0  502    0  0.00000000000E+00 -0.00000000000E+00 -0.31637853175E+04  0.31637853175E+04  0.00000000000E+00 0. -1.
         25    1    1    2    0    0  0.10643350692E+02 -0.20550710959E+02  0.27303689831E+03  0.30118061105E+03  0.12500000000E+03 0.  0.
          1    1    1    2  502    0 -0.20743178365E+02  0.69210938710E+02 -0.31462706110E+04  0.31471001241E+04  0.00000000000E+00 0. -1.
         -1    1    1    2    0  501  0.10099827673E+02 -0.48660227750E+02  0.20088108533E+03  0.20693727244E+03  0.00000000000E+00 0.  1.
<mgrwt>
<rscale>  0 0.59893322E+02</rscale>
<asrwt>0</asrwt>
<pdfrwt beam="2">  1        2 0.48673621E+00 0.72181147E+02</pdfrwt>
<pdfrwt beam="1">  1       -2 0.75605027E-01 0.49697327E+02</pdfrwt>
<totfact> 0.34774490E+00</totfact>
</mgrwt>
</event>
<event>
 5    1  0.8459321E-003  0.1530230E+03  0.7546771E-02  0.1248914E+00
         -2   -1    0    0    0  501 -0.00000000000E+00  0.00000000000E+00  0.84644291661E+02  0.84644291661E+02  0.00000000000E+00 0.  1.
          2   -1    0    0  502    0  0.00000000000E+00 -0.00000000000E+00 -0.73881622551E+03  0.73881622551E+03  0.00000000000E+00 0. -1.
         25    1    1    2    0    0 -0.13030872747E+03 -0.13167596467E+03 -0.13275546224E+03  0.25993833284E+03  0.12500000000E+03 0.  0.
          1    1    1    2  502    0  0.86199850373E+02  0.21151870766E+02 -0.29034511180E+03  0.30360846462E+03  0.00000000000E+00 0. -1.
         -1    1    1    2    0  501  0.44108877094E+02  0.11052409390E+03 -0.23107135980E+03  0.25991371971E+03  0.00000000000E+00 0.  1.
<mgrwt>
<rscale>  0 0.11654128E+03</rscale>
<asrwt>0</asrwt>
<pdfrwt beam="2">  1        2 0.11366403E+00 0.88757061E+02</pdfrwt>
<pdfrwt beam="1">  1       -2 0.13022199E-01 0.15302297E+03</pdfrwt>
<totfact> 0.17148611E+03</totfact>
</mgrwt>
</event>
<event>
 5    1  0.8459321E-003  0.1246178E+03  0.7546771E-02  0.1314285E+00
         -2   -1    0    0    0  501 -0.00000000000E+00  0.00000000000E+00  0.70200753216E+02  0.70200753216E+02  0.00000000000E+00 0.  1.
          2   -1    0    0  502    0  0.00000000000E+00 -0.00000000000E+00 -0.32749591270E+04  0.32749591270E+04  0.00000000000E+00 0. -1.
         25    1    1    2    0    0 -0.16446262918E+03 -0.78351621110E+01 -0.55497428696E+03  0.59222529949E+03  0.12500000000E+03 0.  0.
          1    1    1    2  502    0  0.50262339844E+02 -0.30087879845E+02 -0.26303985642E+04  0.26310507767E+04  0.00000000000E+00 0. -1.
         -1    1    1    2    0  501  0.11420028933E+03  0.37923041956E+02 -0.19385522674E+02  0.12188380403E+03  0.00000000000E+00 0.  1.
<mgrwt>
<rscale>  0 0.85440463E+02</rscale>
<asrwt>0</asrwt>
<pdfrwt beam="2">  1        2 0.50383990E+00 0.58579718E+02</pdfrwt>
<pdfrwt beam="1">  1       -2 0.10800115E-01 0.12461775E+03</pdfrwt>
<totfact> 0.10392540E+02</totfact>
</mgrwt>
</event>
<event>
 5    1  0.8459321E-003  0.7369608E+02  0.7546771E-02  0.1353482E+00
          2   -1    0    0  502    0  0.00000000000E+00  0.00000000000E+00  0.43263857633E+03  0.43263857633E+03  0.00000000000E+00 0. -1.
         -2   -1    0    0    0  501 -0.00000000000E+00 -0.00000000000E+00 -0.16465499379E+04  0.16465499379E+04  0.00000000000E+00 0.  1.
         25    1    1    2    0    0  0.13520904108E+03  0.33494566136E+02 -0.53548688816E+03  0.56725177668E+03  0.12500000000E+03 0.  0.
          1    1    1    2  502    0 -0.73334547738E+02 -0.11006800327E+00  0.41238956944E+03  0.41885931408E+03  0.00000000000E+00 0. -1.
         -1    1    1    2    0  501 -0.61874493346E+02 -0.33384498133E+02 -0.10908140428E+04  0.10930774235E+04  0.00000000000E+00 0.  1.
<mgrwt>
<rscale>  0 0.71981244E+02</rscale>
<asrwt>0</asrwt>
<pdfrwt beam="1">  1        2 0.66559780E-01 0.73696077E+02</pdfrwt>
<pdfrwt beam="2">  1       -2 0.25331538E+00 0.70306313E+02</pdfrwt>
<totfact> 0.58037255E+00</totfact>
</mgrwt>
</event>
<event>
 5    1  0.8459321E-003  0.8093463E+02  0.7546771E-02  0.1422001E+00
         -2   -1    0    0    0  501 -0.00000000000E+00  0.00000000000E+00  0.23052973297E+03  0.23052973297E+03  0.00000000000E+00 0.  1.
          2   -1    0    0  502    0  0.00000000000E+00 -0.00000000000E+00 -0.41766290348E+03  0.41766290348E+03  0.00000000000E+00 0. -1.
         25    1    1    2    0    0 -0.42780004201E+02 -0.85157554347E+02 -0.18321583635E+03  0.24140211373E+03  0.12500000000E+03 0.  0.
          1    1    1    2  502    0  0.36525628892E+02  0.47565015419E+01 -0.19549319029E+03  0.19893298701E+03  0.00000000000E+00 0. -1.
         -1    1    1    2    0  501  0.62543753087E+01  0.80401052805E+02  0.19157585612E+03  0.20785753571E+03  0.00000000000E+00 0.  1.
<mgrwt>
<rscale>  0 0.54599895E+02</rscale>
<asrwt>0</asrwt>
<pdfrwt beam="2">  1        2 0.64255831E-01 0.36834031E+02</pdfrwt>
<pdfrwt beam="1">  1       -2 0.35466113E-01 0.80934626E+02</pdfrwt>
<totfact> 0.57194478E+02</totfact>
</mgrwt>
</event>
<event>
 5    1  0.8459321E-003  0.1152729E+03  0.7546771E-02  0.1328847E+00
          2   -1    0    0  502    0  0.00000000000E+00  0.00000000000E+00  0.16753557020E+04  0.16753557020E+04  0.00000000000E+00 0. -1.
          3   -1    0    0  501    0 -0.00000000000E+00 -0.00000000000E+00 -0.15520233940E+03  0.15520233940E+03  0.00000000000E+00 0. -1.
         25    1    1    2    0    0  0.13009313963E+03 -0.10819034688E+03  0.93364246208E+02  0.23015485789E+03  0.12500000000E+03 0.  0.
          2    1    1    2  501    0 -0.42914552315E+02  0.35383195668E+02 -0.75528143190E+02  0.93798346199E+02  0.00000000000E+00 0. -1.
          1    1    1    2  502    0 -0.87178587318E+02  0.72807151216E+02  0.15023172596E+04  0.15066048373E+04  0.00000000000E+00 0. -1.
<mgrwt>
<rscale>  0 0.80071989E+02</rscale>
<asrwt>0</asrwt>
<pdfrwt beam="1">  1        2 0.25774702E+00 0.11527287E+03</pdfrwt>
<pdfrwt beam="2">  1        3 0.23877284E-01 0.55620404E+02</pdfrwt>
<totfact> 0.10789172E+02</totfact>
</mgrwt>
</event>
<event>
 5    1  0.8459321E-003  0.1794946E+03  0.7546771E-02  0.1250775E+00
          2   -1    0    0  502    0  0.00000000000E+00  0.00000000000E+00  0.10930483396E+04  0.10930483396E+04  0.00000000000E+00 0. -1.
          1   -1    0    0  501    0 -0.00000000000E+00 -0.00000000000E+00 -0.10189669098E+04  0.10189669098E+04  0.00000000000E+00 0. -1.
         25    1    1    2    0    0  0.82315799141E+02  0.23395263785E+03  0.29383741695E+03  0.40432060935E+03  0.12500000000E+03 0.  0.
          2    1    1    2  501    0 -0.78241499155E+02 -0.15979113996E+03 -0.95362322362E+03  0.97007844694E+03  0.00000000000E+00 0. -1.
          1    1    1    2  502    0 -0.40742999858E+01 -0.74161497893E+02  0.73386723647E+03  0.73761619319E+03  0.00000000000E+00 0. -1.
<mgrwt>
<rscale>  0 0.11546280E+03</rscale>
<asrwt>0</asrwt>
<pdfrwt beam="1">  1        2 0.16816128E+00 0.74273331E+02</pdfrwt>
<pdfrwt beam="2">  1        1 0.15676414E+00 0.17949456E+03</pdfrwt>
<totfact> 0.54204194E+01</totfact>
</mgrwt>
</event>
<event>
 5    1  0.8459321E-003  0.5688108E+02  0.7546771E-02  0.1416581E+00
          1   -1    0    0  501    0 -0.00000000000E+00  0.00000000000E+00  0.69224993860E+01  0.69224993860E+01  0.00000000000E+00 0. -1.
          2   -1    0    0  502    0  0.00000000000E+00 -0.00000000000E+00 -0.32230473254E+04  0.32230473254E+04  0.00000000000E+00 0. -1.
         25    1    1    2    0    0 -0.12415032194E+02  0.12032071465E+02 -0.95320401769E+03  0.96152056822E+03  0.12500000000E+03 0.  0.
          2    1    1    2  501    0 -0.41379259898E+02 -0.39028376685E+02 -0.35081766781E+03  0.35539906216E+03  0.00000000000E+00 0. -1.
          1    1    1    2  502    0  0.53794292093E+02  0.26996305220E+02 -0.19121031405E+04  0.19130501944E+04  0.00000000000E+00 0. -1.
<mgrwt>
<rscale>  0 0.55750880E+02</rscale>
<asrwt>0</asrwt>
<pdfrwt beam="2">  1        2 0.49585164E+00 0.54643137E+02</pdfrwt>
<pdfrwt beam="1">  1        1 0.10650038E-02 0.56881081E+02</pdfrwt>
<totfact> 0.31926346E+03</totfact>
</mgrwt>
</event>
<event>
 5    1  0.8459321E-003  0.1030431E+03  0.7546771E-02  0.1311598E+00
          2   -1    0    0  502    0  0.00000000000E+00  0.00000000000E+00  0.98865787793E+03  0.98865787793E+03  0.00000000000E+00 0. -1.
         -2   -1    0    0    0  501 -0.00000000000E+00 -0.00000000000E+00 -0.44175532430E+02  0.44175532430E+02  0.00000000000E+00 0.  1.
         25    1    1    2    0    0 -0.73431591886E+02 -0.61096662582E+01  0.51324941408E+03  0.53336618543E+03  0.12500000000E+03 0.  0.
          1    1    1    2  502    0 -0.18094550882E+02  0.70293680053E+02  0.35924661593E+03  0.36650613267E+03  0.00000000000E+00 0. -1.
         -1    1    1    2    0  501  0.91526142768E+02 -0.64184013795E+02  0.71986315490E+02  0.13296109226E+03  0.00000000000E+00 0.  1.
<mgrwt>
<rscale>  0 0.86483578E+02</rscale>
<asrwt>0</asrwt>
<pdfrwt beam="1">  1        2 0.15210120E+00 0.72585220E+02</pdfrwt>
<pdfrwt beam="2">  1       -2 0.67962365E-02 0.10304314E+03</pdfrwt>
<totfact> 0.32340220E+03</totfact>
</mgrwt>
</event>
<event>
 5    1  0.8459321E-003  0.8728253E+02  0.7546771E-02  0.1354639E+00
          1   -1    0    0  501    0 -0.00000000000E+00  0.00000000000E+00  0.16959965509E+02  0.16959965509E+02  0.00000000000E+00 0. -1.
          2   -1    0    0  502    0  0.00000000000E+00 -0.00000000000E+00 -0.14427030371E+04  0.14427030371E+04  0.00000000000E+00 0. -1.
         25    1    1    2    0    0 -0.72501242860E+02 -0.49444072641E+02 -0.57267484739E+03  0.59269100497E+03  0.12500000000E+03 0.  0.
          2    1    1    2  501    0  0.30725586612E+02  0.90799376208E+02 -0.52555024405E+03  0.53422059808E+03  0.00000000000E+00 0. -1.
          1    1    1    2  502    0  0.41775656248E+02 -0.41355303568E+02 -0.32751798015E+03  0.33275139957E+03  0.00000000000E+00 0. -1.
<mgrwt>
<rscale>  0 0.71629239E+02</rscale>
<asrwt>0</asrwt>
<pdfrwt beam="2">  1        2 0.22195424E+00 0.58783217E+02</pdfrwt>
<pdfrwt beam="1">  1        1 0.26092264E-02 0.87282529E+02</pdfrwt>
<totfact> 0.81924467E+03</totfact>
</mgrwt>
</event>
<event>
 5    1  0.8459321E-003  0.2676558E+03  0.7546771E-02  0.1225685E+00
          1   -1    0    0  501    0 -0.00000000000E+00  0.00000000000E+00  0.95666312682E+03  0.95666312682E+03  0.00000000000E+00 0. -1.
          2   -1    0    0  502    0  0.00000000000E+00 -0.00000000000E+00 -0.21618705103E+03  0.21618705103E+03  0.00000000000E+00 0. -1.
         25    1    1    2    0    0 -0.15526717684E+03  0.15133189164E+03  0.42929841622E+03  0.49692189306E+03  0.12500000000E+03 0.  0.
          2    1    1    2  501    0 -0.55503454417E+02  0.32488304339E+02  0.38204576198E+03  0.38742107276E+03  0.00000000000E+00 0. -1.
          1    1    1    2  502    0  0.21077063126E+03 -0.18382019598E+03 -0.70868102409E+02  0.28850721203E+03  0.00000000000E+00 0. -1.
<mgrwt>
<rscale>  0 0.13120086E+03</rscale>
<asrwt>0</asrwt>
<pdfrwt beam="2">  1        2 0.33259547E-01 0.26765578E+03</pdfrwt>
<pdfrwt beam="1">  1        1 0.14717894E+00 0.64312700E+02</pdfrwt>
<totfact> 0.40097039E+02</totfact>
</mgrwt>
</event>
<event>
 5    1  0.8459321E-003  0.8044087E+02  0.7546771E-02  0.1389259E+00
          2   -1    0    0  502    0  0.00000000000E+00  0.00000000000E+00  0.33780514014E+03  0.33780514014E+03  0.00000000000E+00 0. -1.
          1   -1    0    0  501    0 -0.00000000000E+00 -0.00000000000E+00 -0.72855376471E+03  0.72855376471E+03  0.00000000000E+00 0. -1.
         25    1    1    2    0    0 -0.27970996448E+02  0.43171921594E+02  0.19389813087E+03  0.23636344178E+03  0.12500000000E+03 0.  0.
          2    1    1    2  501    0  0.74457592937E+02 -0.31507512921E+02 -0.70022336463E+03  0.70487546197E+03  0.00000000000E+00 0. -1.
          3    1    1    2  502    0 -0.46486596489E+02 -0.11664408673E+02  0.11557660919E+03  0.12512000110E+03  0.00000000000E+00 0. -1.
<mgrwt>
<rscale>  0 0.62091416E+02</rscale>
<asrwt>0</asrwt>
<pdfrwt beam="1">  1        2 0.51970022E-01 0.47927676E+02</pdfrwt>
<pdfrwt beam="2">  1        1 0.11208519E+00 0.80440872E+02</pdfrwt>
<totfact> 0.36607119E+02</totfact>
</mgrwt>
</event>
<event>
 5    1  0.8459321E-003  0.2079047E+03  0.7546771E-02  0.1245790E+00
         -1   -1    0    0    0  501 -0.00000000000E+00  0.00000000000E+00  0.70558407739E+03  0.70558407739E+03  0.00000000000E+00 0.  1.
          1   -1    0    0  502    0  0.00000000000E+00 -0.00000000000E+00 -0.26278372596E+03  0.26278372596E+03  0.00000000000E+00 0. -1.
         25    1    1    2    0    0  0.15211550976E+03  0.64039697082E+02 -0.58640588464E+02  0.21518347921E+03  0.12500000000E+03 0.  0.
          2    1    1    2  502    0  0.19356568298E+02  0.64568403745E+02 -0.96656193172E+02  0.11783961633E+03  0.00000000000E+00 0. -1.
         -2    1    1    2    0  501 -0.17147207806E+03 -0.12860810083E+03  0.59809713307E+03  0.63534470781E+03  0.00000000000E+00 0.  1.
<mgrwt>
<rscale>  0 0.11838206E+03</rscale>
<asrwt>0</asrwt>
<pdfrwt beam="2">  1        1 0.40428266E-01 0.67407385E+02</pdfrwt>
<pdfrwt beam="1">  1       -1 0.10855140E+00 0.20790471E+03</pdfrwt>
<totfact> 0.88140995E+01</totfact>
</mgrwt>
</event>
<event>
 5    1  0.8459321E-003  0.6539054E+02  0.7546771E-02  0.1491132E+00
          2   -1    0    0  502    0  0.00000000000E+00  0.00000000000E+00  0.26652600081E+02  0.26652600081E+02  0.00000000000E+00 0. -1.
          1   -1    0    0  501    0 -0.00000000000E+00 -0.00000000000E+00 -0.15877041970E+04  0.15877041970E+04  0.00000000000E+00 0. -1.
         25    1    1    2    0    0  0.37207298448E+02  0.28951557288E+02 -0.35486501401E+03  0.37917905255E+03  0.12500000000E+03 0.  0.
          2    1    1    2  501    0  0.46613054493E+01  0.27119016610E+02 -0.11350777764E+04  0.11354112591E+04  0.00000000000E+00 0. -1.
          1    1    1    2  502    0 -0.41868603898E+02 -0.56070573898E+02 -0.71108806506E+02  0.99766485416E+02  0.00000000000E+00 0. -1.
<mgrwt>
<rscale>  0 0.42418533E+02</rscale>
<asrwt>0</asrwt>
<pdfrwt beam="1">  1        2 0.41004005E-02 0.65390541E+02</pdfrwt>
<pdfrwt beam="2">  1        1 0.24426216E+00 0.27516701E+02</pdfrwt>
<totfact> 0.19340325E+03</totfact>
</mgrwt>
</event>
<event>
 5    1  0.8459321E-003  0.5642204E+02  0.7546771E-02  0.1512623E+00
         -1   -1    0    0    0  501 -0.00000000000E+00  0.00000000000E+00  0.36372541916E+03  0.36372541916E+03  0.00000000000E+00 0.  1.
          1   -1    0    0  502    0  0.00000000000E+00 -0.00000000000E+00 -0.43763268417E+02  0.43763268417E+02  0.00000000000E+00 0. -1.
         25    1    1    2    0    0 -0.61357401768E+02  0.14118311021E+01  0.21595571917E+03  0.25696030172E+03  0.12500000000E+03 0.  0.
          2    1    1    2  502    0  0.12135904830E+02 -0.24702726847E+02  0.90264584461E+02  0.94367367812E+02  0.00000000000E+00 0.  1.
         -2    1    1    2    0  501  0.49221496938E+02  0.23290895745E+02  0.13741847109E+02  0.56161018041E+02  0.00000000000E+00 0. -1.
<mgrwt>
<rscale>  0 0.39406762E+02</rscale>
<asrwt>0</asrwt>
<pdfrwt beam="2">  1        1 0.67328108E-02 0.27522807E+02</pdfrwt>
<pdfrwt beam="1">  1       -1 0.55957755E-01 0.56422039E+02</pdfrwt>
<totfact> 0.30760060E+03</totfact>
</mgrwt>
</event>
<event>
 5    1  0.8459321E-003  0.7137598E+02  0.7546771E-02  0.1431449E+00
          2   -1    0    0  502    0  0.00000000000E+00  0.00000000000E+00  0.16822272163E+04  0.16822272163E+04  0.00000000000E+00 0. -1.
         -2   -1    0    0    0  501 -0.00000000000E+00 -0.00000000000E+00 -0.36938209543E+02  0.36938209543E+02  0.00000000000E+00 0.  1.
         25    1    1    2    0    0  0.19599128068E+02  0.97016858571E+02  0.13306163083E+04  0.13401347531E+04  0.12500000000E+03 0.  0.
          1    1    1    2  502    0  0.15483395879E+02 -0.35649582138E+02  0.30525398238E+03  0.30771841351E+03  0.00000000000E+00 0. -1.
         -1    1    1    2    0  501 -0.35082523946E+02 -0.61367276433E+02  0.94187161195E+01  0.71312259231E+02  0.00000000000E+00 0.  1.
<mgrwt>
<rscale>  0 0.52670256E+02</rscale>
<asrwt>0</asrwt>
<pdfrwt beam="1">  1        2 0.25880413E+00 0.38866801E+02</pdfrwt>
<pdfrwt beam="2">  1       -2 0.56828027E-02 0.71375977E+02</pdfrwt>
<totfact> 0.18793865E+03</totfact>
</mgrwt>
</event>
<event>
 5    1  0.8459321E-003  0.1059033E+03  0.7546771E-02  0.1389108E+00
          2   -1    0    0  502    0  0.00000000000E+00  0.00000000000E+00  0.69537654163E+03  0.69537654163E+03  0.00000000000E+00 0. -1.
         -2   -1    0    0    0  501 -0.00000000000E+00 -0.00000000000E+00 -0.45467732621E+03  0.45467732621E+03  0.00000000000E+00 0.  1.
         25    1    1    2    0    0  0.12311785870E+03  0.51289703472E+02  0.10697435010E+03  0.21179507169E+03  0.12500000000E+03 0.  0.
          1    1    1    2  502    0 -0.35820254512E+02  0.67381602197E+01  0.52852464394E+03  0.52977994742E+03  0.00000000000E+00 0. -1.
         -1    1    1    2    0  501 -0.87297604192E+02 -0.58027863692E+02 -0.39479977862E+03  0.40847884873E+03  0.00000000000E+00 0.  1.
<mgrwt>
<rscale>  0 0.62129034E+02</rscale>
<asrwt>0</asrwt>
<pdfrwt beam="1">  1        2 0.10698101E+00 0.36448504E+02</pdfrwt>
<pdfrwt beam="2">  1       -2 0.69950358E-01 0.10590330E+03</pdfrwt>
<totfact> 0.88077275E+01</totfact>
</mgrwt>
</event>
<event>
 5    1  0.8459321E-003  0.1153539E+03  0.7546771E-02  0.1302888E+00
          2   -1    0    0  502    0  0.00000000000E+00  0.00000000000E+00  0.28589850736E+04  0.28589850736E+04  0.00000000000E+00 0. -1.
         -2   -1    0    0    0  501 -0.00000000000E+00 -0.00000000000E+00 -0.30676218410E+02  0.30676218410E+02  0.00000000000E+00 0.  1.
         25    1    1    2    0    0  0.71661793753E+02  0.36500505889E+02  0.65621771580E+03  0.67284053842E+03  0.12500000000E+03 0.  0.
          1    1    1    2  502    0 -0.66154692779E+02 -0.10647944518E+03  0.21325963386E+04  0.21362774770E+04  0.00000000000E+00 0. -1.
         -1    1    1    2    0  501 -0.55071009738E+01  0.69978939290E+02  0.39494800819E+02  0.80543276548E+02  0.00000000000E+00 0.  1.
<mgrwt>
<rscale>  0 0.89984992E+02</rscale>
<asrwt>0</asrwt>
<pdfrwt beam="1">  1        2 0.43984365E+00 0.11535386E+03</pdfrwt>
<pdfrwt beam="2">  1       -2 0.47194205E-02 0.70195300E+02</pdfrwt>
<totfact> 0.53964615E+02</totfact>
</mgrwt>
</event>
<event>
 5    1  0.8459321E-003  0.7298619E+02  0.7546771E-02  0.1451598E+00
          1   -1    0    0  501    0 -0.00000000000E+00  0.00000000000E+00  0.12207098530E+02  0.12207098530E+02  0.00000000000E+00 0. -1.
          2   -1    0    0  502    0  0.00000000000E+00 -0.00000000000E+00 -0.25098433144E+04  0.25098433144E+04  0.00000000000E+00 0. -1.
         25    1    1    2    0    0  0.92396508480E+02 -0.42055123009E+02 -0.12286823234E+04  0.12391896546E+04  0.12500000000E+03 0.  0.
          2    1    1    2  501    0 -0.61851730773E+02  0.30361004494E+02 -0.17016615849E+03  0.18358635213E+03  0.00000000000E+00 0. -1.
          1    1    1    2  502    0 -0.30544777707E+02  0.11694118514E+02 -0.10987877339E+04  0.10992744062E+04  0.00000000000E+00 0. -1.
<mgrwt>
<rscale>  0 0.48858428E+02</rscale>
<asrwt>0</asrwt>
<pdfrwt beam="2">  1        2 0.38612986E+00 0.32706817E+02</pdfrwt>
<pdfrwt beam="1">  1        1 0.18780146E-02 0.72986191E+02</pdfrwt>
<totfact> 0.40450191E+03</totfact>
</mgrwt>
</event>
<event>
 5    1  0.8459321E-003  0.4263657E+02  0.7546771E-02  0.1583795E+00
          2   -1    0    0  502    0  0.00000000000E+00  0.00000000000E+00  0.11674720486E+03  0.11674720486E+03  0.00000000000E+00 0. -1.
         -2   -1    0    0    0  501 -0.00000000000E+00 -0.00000000000E+00 -0.17889124597E+03  0.17889124597E+03  0.00000000000E+00 0.  1.
         25    1    1    2    0    0 -0.53279309342E+02 -0.22523507728E+02 -0.12333191406E+02  0.13828630017E+03  0.12500000000E+03 0.  0.
          3    1    1    2  502    0  0.11564370852E+02  0.19913120637E+02  0.46760996699E+02  0.52123486635E+02  0.00000000000E+00 0. -1.
         -1    1    1    2    0  501  0.41714938490E+02  0.26103870907E+01 -0.96571846402E+02  0.10522866402E+03  0.00000000000E+00 0.  1.
<mgrwt>
<rscale>  0 0.31333923E+02</rscale>
<asrwt>0</asrwt>
<pdfrwt beam="1">  1        2 0.17961108E-01 0.23027528E+02</pdfrwt>
<pdfrwt beam="2">  1       -2 0.27521730E-01 0.42636565E+02</pdfrwt>
<totfact> 0.32015236E+03</totfact>
</mgrwt>
</event>
<event>
 5    1  0.8459321E-003  0.6382152E+02  0.7546771E-02  0.1388804E+00
          2   -1    0    0  502    0  0.00000000000E+00  0.00000000000E+00  0.10706364313E+04  0.10706364313E+04  0.00000000000E+00 0. -1.
         -2   -1    0    0    0  501 -0.00000000000E+00 -0.00000000000E+00 -0.71109685064E+02  0.71109685064E+02  0.00000000000E+00 0.  1.
         25    1    1    2    0    0 -0.11143830461E+02  0.11949230869E+02  0.29255569030E+03  0.31856051388E+03  0.12500000000E+03 0.  0.
          1    1    1    2  502    0 -0.51301919045E+01 -0.70353767044E+02  0.74713624136E+03  0.75045888265E+03  0.00000000000E+00 0. -1.
         -1    1    1    2    0  501  0.16274022365E+02  0.58404536174E+02 -0.40165185455E+02  0.72726719796E+02  0.00000000000E+00 0.  1.
<mgrwt>
<rscale>  0 0.62205030E+02</rscale>
<asrwt>0</asrwt>
<pdfrwt beam="1">  1        2 0.16471329E+00 0.63821525E+02</pdfrwt>
<pdfrwt beam="2">  1       -2 0.10939952E-01 0.60629478E+02</pdfrwt>
<totfact> 0.13536703E+03</totfact>
</mgrwt>
</event>
<event>
 5    1  0.8459321E-003  0.3241459E+02  0.7546771E-02  0.1598894E+00
          1   -1    0    0  502    0  0.00000000000E+00  0.00000000000E+00  0.63695318644E+03  0.63695318644E+03  0.00000000000E+00 0. -1.
         -1   -1    0    0    0  501 -0.00000000000E+00 -0.00000000000E+00 -0.11772273966E+03  0.11772273966E+03  0.00000000000E+00 0.  1.
         25    1    1    2    0    0  0.55617862988E+01  0.69326039944E+01 -0.47071905512E+02  0.13386470317E+03  0.12500000000E+03 0.  0.
          2    1    1    2  502    0  0.61398682890E+01 -0.31963272039E+02  0.58598407795E+03  0.58688728761E+03  0.00000000000E+00 0. -1.
         -2    1    1    2    0  501 -0.11701654588E+02  0.25030668045E+02 -0.19681725659E+02  0.33923935323E+02  0.00000000000E+00 0.  1.
<mgrwt>
<rscale>  0 0.29927284E+02</rscale>
<asrwt>0</asrwt>
<pdfrwt beam="1">  1        1 0.97992796E-01 0.32414594E+02</pdfrwt>
<pdfrwt beam="2">  1       -1 0.18111191E-01 0.27630835E+02</pdfrwt>
<totfact> 0.75110510E+02</totfact>
</mgrwt>
</event>
<event>
 5    1  0.8459321E-003  0.1042685E+03  0.7546771E-02  0.1387335E+00
          1   -1    0    0  501    0 -0.00000000000E+00  0.00000000000E+00  0.52555359052E+03  0.52555359052E+03  0.00000000000E+00 0. -1.
          2   -1    0    0  502    0  0.00000000000E+00 -0.00000000000E+00 -0.19091589221E+03  0.19091589221E+03  0.00000000000E+00 0. -1.
         25    1    1    2    0    0  0.10165914165E+03 -0.66766326776E+02  0.42138075639E+00  0.17440613817E+03  0.12500000000E+03 0.  0.
          2    1    1    2  501    0 -0.57211350333E+01  0.37114405421E+02  0.41283040735E+03  0.41453486670E+03  0.00000000000E+00 0. -1.
          1    1    1    2  502    0 -0.95938006613E+02  0.29651921355E+02 -0.78614089786E+02  0.12752847786E+03  0.00000000000E+00 0. -1.
<mgrwt>
<rscale>  0 0.62574516E+02</rscale>
<asrwt>0</asrwt>
<pdfrwt beam="2">  1        2 0.29371676E-01 0.10426848E+03</pdfrwt>
<pdfrwt beam="1">  1        1 0.80854398E-01 0.37552769E+02</pdfrwt>
<totfact> 0.10632845E+03</totfact>
</mgrwt>
</event>
<event>
 5    1  0.9221985E-003  0.9419853E+02  0.7546771E-02  0.1395460E+00
          2   -1    0    0  502    0  0.00000000000E+00  0.00000000000E+00  0.33950248942E+03  0.33950248942E+03  0.00000000000E+00 0. -1.
         -2   -1    0    0    0  501 -0.00000000000E+00 -0.00000000000E+00 -0.84849856644E+02  0.84849856644E+02  0.00000000000E+00 0.  1.
         25    1    1    2    0    0 -0.93707723136E+02  0.29395544096E+02  0.24267243191E+03  0.29010367904E+03  0.12500000000E+03 0.  0.
          1    1    1    2  502    0  0.92130797304E+02  0.95176479295E+01  0.19328404633E+02  0.94616365707E+02  0.00000000000E+00 0. -1.
         -1    1    1    2    0  501  0.15769258316E+01 -0.38913192026E+02 -0.73482037635E+01  0.39632301312E+02  0.00000000000E+00 0.  1.
<mgrwt>
<rscale>  0 0.60568754E+02</rscale>
<asrwt>0</asrwt>
<pdfrwt beam="1">  1        2 0.52231151E-01 0.94198527E+02</pdfrwt>
<pdfrwt beam="2">  1       -2 0.13053824E-01 0.38945131E+02</pdfrwt>
<totfact> 0.36719720E+03</totfact>
</mgrwt>
</event>
<event>
 5    1  0.8459321E-003  0.5315233E+02  0.7546771E-02  0.1531903E+00
         -2   -1    0    0    0  501 -0.00000000000E+00  0.00000000000E+00  0.74859594537E+03  0.74859594537E+03  0.00000000000E+00 0.  1.
          2   -1    0    0  502    0  0.00000000000E+00 -0.00000000000E+00 -0.84158906386E+03  0.84158906386E+03  0.00000000000E+00 0. -1.
         25    1    1    2    0    0  0.59446043740E+02  0.15871535265E+02  0.38599005391E+03  0.41036454460E+03  0.12500000000E+03 0.  0.
          1    1    1    2  502    0 -0.52406345132E+02  0.88374040090E+01 -0.82807788313E+03  0.82978160093E+03  0.00000000000E+00 0. -1.
         -1    1    1    2    0  501 -0.70396986083E+01 -0.24708939274E+02  0.34909471074E+03  0.35003886370E+03  0.00000000000E+00 0.  1.
<mgrwt>
<rscale>  0 0.36954029E+02</rscale>
<asrwt>0</asrwt>
<pdfrwt beam="2">  1        2 0.12947524E+00 0.53152334E+02</pdfrwt>
<pdfrwt beam="1">  1       -2 0.11516861E+00 0.25692198E+02</pdfrwt>
<totfact> 0.23812620E+01</totfact>
</mgrwt>
</event>
<event>
 5    1  0.8459321E-003  0.2472428E+03  0.7546771E-02  0.1209571E+00
          2   -1    0    0  502    0  0.00000000000E+00  0.00000000000E+00  0.26436466119E+03  0.26436466119E+03  0.00000000000E+00 0. -1.
          1   -1    0    0  501    0 -0.00000000000E+00 -0.00000000000E+00 -0.27750050156E+04  0.27750050156E+04  0.00000000000E+00 0. -1.
         25    1    1    2    0    0 -0.84979647447E+02  0.24790107853E+03 -0.22452564397E+03  0.36703303668E+03  0.12500000000E+03 0.  0.
          2    1    1    2  501    0  0.82490792430E+02 -0.18409096325E+01 -0.23998378787E+04  0.24012559138E+04  0.00000000000E+00 0. -1.
          1    1    1    2  502    0  0.24888550174E+01 -0.24606016890E+03  0.11372316830E+03  0.27108072621E+03  0.00000000000E+00 0. -1.
<mgrwt>
<rscale>  0 0.14282973E+03</rscale>
<asrwt>0</asrwt>
<pdfrwt beam="1">  1        2 0.40671486E-01 0.24724278E+03</pdfrwt>
<pdfrwt beam="2">  1        1 0.42692385E+00 0.82511331E+02</pdfrwt>
<totfact> 0.21297805E+01</totfact>
</mgrwt>
</event>
<event>
 5    1  0.8459321E-003  0.1569698E+03  0.7546771E-02  0.1242635E+00
          1   -1    0    0  501    0 -0.00000000000E+00  0.00000000000E+00  0.17026716042E+04  0.17026716042E+04  0.00000000000E+00 0. -1.
          2   -1    0    0  502    0  0.00000000000E+00 -0.00000000000E+00 -0.24834984151E+03  0.24834984151E+03  0.00000000000E+00 0. -1.
         25    1    1    2    0    0  0.90225258815E+02 -0.81959362008E+02  0.62276754222E+03  0.64677843655E+03  0.12500000000E+03 0.  0.
          2    1    1    2  501    0  0.67944603818E+02  0.62276109533E+02  0.10387511217E+04  0.10428320458E+04  0.00000000000E+00 0. -1.
          1    1    1    2  502    0 -0.15816986263E+03  0.19683252475E+02 -0.20719690121E+03  0.26141096332E+03  0.00000000000E+00 0. -1.
<mgrwt>
<rscale>  0 0.12028076E+03</rscale>
<asrwt>0</asrwt>
<pdfrwt beam="2">  1        2 0.38207669E-01 0.15696983E+03</pdfrwt>
<pdfrwt beam="1">  1        1 0.26194947E+00 0.92167147E+02</pdfrwt>
<totfact> 0.10735398E+02</totfact>
</mgrwt>
</event>
<event>
 5    1  0.8459321E-003  0.8459684E+02  0.7546771E-02  0.1329407E+00
         -2   -1    0    0    0  501 -0.00000000000E+00  0.00000000000E+00  0.34395887706E+03  0.34395887706E+03  0.00000000000E+00 0.  1.
          2   -1    0    0  502    0  0.00000000000E+00 -0.00000000000E+00 -0.38727782242E+03  0.38727782242E+03  0.00000000000E+00 0. -1.
         25    1    1    2    0    0 -0.38144473020E+02  0.15725838153E+02  0.39844726256E+02  0.13753146919E+03  0.12500000000E+03 0.  0.
          1    1    1    2  502    0 -0.12661129748E+02 -0.83644010851E+02 -0.32583515674E+03  0.33663804617E+03  0.00000000000E+00 0. -1.
         -1    1    1    2    0  501  0.50805602768E+02  0.67918172698E+02  0.24267148513E+03  0.25706718412E+03  0.00000000000E+00 0.  1.
<mgrwt>
<rscale>  0 0.79874729E+02</rscale>
<asrwt>0</asrwt>
<pdfrwt beam="2">  1        2 0.59581203E-01 0.84596837E+02</pdfrwt>
<pdfrwt beam="1">  1       -2 0.52916751E-01 0.75416204E+02</pdfrwt>
<totfact> 0.28833483E+02</totfact>
</mgrwt>
</event>
<event>
 5    1  0.8459321E-003  0.4057685E+02  0.7546771E-02  0.1530463E+00
         -1   -1    0    0    0  501 -0.00000000000E+00  0.00000000000E+00  0.39519501688E+02  0.39519501688E+02  0.00000000000E+00 0.  1.
          1   -1    0    0  502    0  0.00000000000E+00 -0.00000000000E+00 -0.20090118724E+04  0.20090118724E+04  0.00000000000E+00 0. -1.
         25    1    1    2    0    0  0.24973063105E+01  0.10892844509E+02 -0.59755416312E+03  0.61059058989E+03  0.12500000000E+03 0.  0.
          2    1    1    2  502    0 -0.32557553480E+02 -0.26726495901E+02 -0.13957922373E+04  0.13964276814E+04  0.00000000000E+00 0. -1.
         -2    1    1    2    0  501  0.30060247170E+02  0.15833651392E+02  0.23854029620E+02  0.41513102816E+02  0.00000000000E+00 0.  1.
<mgrwt>
<rscale>  0 0.37129664E+02</rscale>
<asrwt>0</asrwt>
<pdfrwt beam="2">  1        1 0.30907885E+00 0.40576853E+02</pdfrwt>
<pdfrwt beam="1">  1       -1 0.60799213E-02 0.33975329E+02</pdfrwt>
<totfact> 0.45881280E+02</totfact>
</mgrwt>
</event>
<event>
 5    1  0.8459321E-003  0.6561797E+02  0.7546771E-02  0.1493389E+00
         -2   -1    0    0    0  501 -0.00000000000E+00  0.00000000000E+00  0.90115173177E+03  0.90115173177E+03  0.00000000000E+00 0.  1.
          2   -1    0    0  502    0  0.00000000000E+00 -0.00000000000E+00 -0.32273853116E+03  0.32273853116E+03  0.00000000000E+00 0. -1.
         25    1    1    2    0    0 -0.26075597526E+02  0.65930655475E+02  0.24936595965E+03  0.28781099692E+03  0.12500000000E+03 0.  0.
          1    1    1    2  502    0 -0.19448381155E+02 -0.18721354398E+02 -0.30121087631E+03  0.30241812223E+03  0.00000000000E+00 0. -1.
         -1    1    1    2    0  501  0.45523978681E+02 -0.47209301077E+02  0.63025811728E+03  0.63366114379E+03  0.00000000000E+00 0.  1.
<mgrwt>
<rscale>  0 0.42087474E+02</rscale>
<asrwt>0</asrwt>
<pdfrwt beam="2">  1        2 0.49652082E-01 0.26994974E+02</pdfrwt>
<pdfrwt beam="1">  1       -2 0.13863873E+00 0.65617972E+02</pdfrwt>
<totfact> 0.41566914E+01</totfact>
</mgrwt>
</event>
<event>
 5    1  0.8459321E-003  0.5654797E+02  0.7546771E-02  0.1459440E+00
          1   -1    0    0  501    0 -0.00000000000E+00  0.00000000000E+00  0.24770884626E+03  0.24770884626E+03  0.00000000000E+00 0. -1.
          2   -1    0    0  502    0  0.00000000000E+00 -0.00000000000E+00 -0.67932449180E+03  0.67932449180E+03  0.00000000000E+00 0. -1.
         25    1    1    2    0    0  0.30910968976E+02 -0.29615246096E+02  0.46012392151E+02  0.13990958164E+03  0.12500000000E+03 0.  0.
          2    1    1    2  501    0 -0.43280411192E+01  0.59320135672E+02  0.14837527761E+03  0.15985253655E+03  0.00000000000E+00 0. -1.
          1    1    1    2  502    0 -0.26582927857E+02 -0.29704889575E+02 -0.62600331530E+03  0.62727121988E+03  0.00000000000E+00 0. -1.
<mgrwt>
<rscale>  0 0.47477923E+02</rscale>
<asrwt>0</asrwt>
<pdfrwt beam="2">  1        2 0.10451146E+00 0.39862671E+02</pdfrwt>
<pdfrwt beam="1">  1        1 0.38109054E-01 0.56547971E+02</pdfrwt>
<totfact> 0.69109218E+02</totfact>
</mgrwt>
</event>
<event>
 5    1  0.8459321E-003  0.5607506E+02  0.7546771E-02  0.1532685E+00
          2   -1    0    0  502    0  0.00000000000E+00  0.00000000000E+00  0.61781950532E+02  0.61781950532E+02  0.00000000000E+00 0. -1.
          1   -1    0    0  501    0 -0.00000000000E+00 -0.00000000000E+00 -0.17691969857E+04  0.17691969857E+04  0.00000000000E+00 0. -1.
         25    1    1    2    0    0  0.46925870080E+02 -0.16127849288E+01 -0.32687070657E+03  0.35309219358E+03  0.12500000000E+03 0.  0.
          2    1    1    2  501    0 -0.50548274262E+02  0.25568601128E+02 -0.14256026351E+04  0.14267276386E+04  0.00000000000E+00 0. -1.
          1    1    1    2  502    0  0.36224041817E+01 -0.23955816199E+02  0.45058306530E+02  0.51159104069E+02  0.00000000000E+00 0. -1.
<mgrwt>
<rscale>  0 0.36859120E+02</rscale>
<asrwt>0</asrwt>
<pdfrwt beam="1">  1        2 0.95049160E-02 0.24228144E+02</pdfrwt>
<pdfrwt beam="2">  1        1 0.27218414E+00 0.56075064E+02</pdfrwt>
<totfact> 0.44291957E+02</totfact>
</mgrwt>
</event>
<event>
 5    1  0.8459321E-003  0.7632696E+02  0.7546771E-02  0.1378439E+00
          2   -1    0    0  502    0  0.00000000000E+00  0.00000000000E+00  0.64454625610E+03  0.64454625610E+03  0.00000000000E+00 0. -1.
          1   -1    0    0  501    0 -0.00000000000E+00 -0.00000000000E+00 -0.14535966717E+04  0.14535966717E+04  0.00000000000E+00 0. -1.
         25    1    1    2    0    0 -0.12847697740E+03  0.13768373576E+02 -0.64694076645E+02  0.19106602363E+03  0.12500000000E+03 0.  0.
          2    1    1    2  501    0  0.73444430761E+02 -0.17254764811E+02 -0.13233321973E+04  0.13254810129E+04  0.00000000000E+00 0. -1.
          1    1    1    2  502    0  0.55032546643E+02  0.34863912350E+01  0.57897585834E+03  0.58159589120E+03  0.00000000000E+00 0. -1.
<mgrwt>
<rscale>  0 0.64875942E+02</rscale>
<asrwt>0</asrwt>
<pdfrwt beam="1">  1        2 0.99160964E-01 0.55142870E+02</pdfrwt>
<pdfrwt beam="2">  1        1 0.22363025E+00 0.76326964E+02</pdfrwt>
<totfact> 0.57175792E+01</totfact>
</mgrwt>
</event>
<event>
 5    1  0.8459321E-003  0.7914955E+02  0.7546771E-02  0.1422227E+00
          2   -1    0    0  502    0  0.00000000000E+00  0.00000000000E+00  0.60034196898E+02  0.60034196898E+02  0.00000000000E+00 0. -1.
          1   -1    0    0  501    0 -0.00000000000E+00 -0.00000000000E+00 -0.63347159751E+03  0.63347159751E+03  0.00000000000E+00 0. -1.
         25    1    1    2    0    0  0.55773893083E+02  0.48175846679E+02 -0.97748435668E+02  0.17496112719E+03  0.12500000000E+03 0.  0.
          2    1    1    2  501    0 -0.21756425560E+02  0.30665442821E+02 -0.40659757503E+03  0.40833233947E+03  0.00000000000E+00 0. -1.
          1    1    1    2  502    0 -0.34017467524E+02 -0.78841289500E+02 -0.69091389911E+02  0.11021232774E+03  0.00000000000E+00 0. -1.
<mgrwt>
<rscale>  0 0.54552471E+02</rscale>
<asrwt>0</asrwt>
<pdfrwt beam="1">  1        2 0.92360301E-02 0.79149553E+02</pdfrwt>
<pdfrwt beam="2">  1        1 0.97457171E-01 0.37599354E+02</pdfrwt>
<totfact> 0.31100013E+03</totfact>
</mgrwt>
</event>
<event>
 5    1  0.8459321E-003  0.4991299E+02  0.7546771E-02  0.1549037E+00
         -2   -1    0    0    0  501 -0.00000000000E+00  0.00000000000E+00  0.33216690559E+03  0.33216690559E+03  0.00000000000E+00 0.  1.
          2   -1    0    0  502    0  0.00000000000E+00 -0.00000000000E+00 -0.37052960585E+02  0.37052960585E+02  0.00000000000E+00 0. -1.
         25    1    1    2    0    0  0.19937801101E+02  0.25006985580E+02  0.15839370690E+03  0.20429496232E+03  0.12500000000E+03 0.  0.
          1    1    1    2  502    0 -0.38197528852E+02 -0.41302745134E+02  0.51537269478E+02  0.76295859070E+02  0.00000000000E+00 0. -1.
         -1    1    1    2    0  501  0.18259727751E+02  0.16295759555E+02  0.85182968626E+02  0.88629044794E+02  0.00000000000E+00 0.  1.
<mgrwt>
<rscale>  0 0.34950867E+02</rscale>
<asrwt>0</asrwt>
<pdfrwt beam="2">  1        2 0.57004557E-02 0.49912988E+02</pdfrwt>
<pdfrwt beam="1">  1       -2 0.51102599E-01 0.24473852E+02</pdfrwt>
<totfact> 0.41819476E+03</totfact>
</mgrwt>
</event>
<event>
 5    1  0.8459321E-003  0.6307474E+02  0.7546771E-02  0.1492565E+00
         -1   -1    0    0    0  501 -0.00000000000E+00  0.00000000000E+00  0.47615547342E+02  0.47615547342E+02  0.00000000000E+00 0.  1.
          1   -1    0    0  502    0  0.00000000000E+00 -0.00000000000E+00 -0.16821035512E+04  0.16821035512E+04  0.00000000000E+00 0. -1.
         25    1    1    2    0    0  0.39461178516E+02  0.55934866291E+01 -0.94218114326E+03  0.95127218945E+03  0.12500000000E+03 0.  0.
          2    1    1    2  502    0  0.18107035665E+02  0.21676639319E+02 -0.71138912878E+03  0.71194960073E+03  0.00000000000E+00 0. -1.
         -2    1    1    2    0  501 -0.57568214181E+02 -0.27270125948E+02  0.19082268225E+02  0.66497308320E+02  0.00000000000E+00 0.  1.
<mgrwt>
<rscale>  0 0.42207853E+02</rscale>
<asrwt>0</asrwt>
<pdfrwt beam="2">  1        1 0.25878511E+00 0.28244317E+02</pdfrwt>
<pdfrwt beam="1">  1       -1 0.73254703E-02 0.63074736E+02</pdfrwt>
<totfact> 0.61533353E+02</totfact>
</mgrwt>
</event>
<event>
 5    1  0.8459321E-003  0.6472365E+02  0.7546771E-02  0.1414884E+00
         -2   -1    0    0    0  501 -0.00000000000E+00  0.00000000000E+00  0.13596347534E+02  0.13596347534E+02  0.00000000000E+00 0.  1.
          2   -1    0    0  502    0  0.00000000000E+00 -0.00000000000E+00 -0.43235547484E+04  0.43235547484E+04  0.00000000000E+00 0. -1.
         25    1    1    2    0    0  0.92799034629E+02 -0.56947554376E+02 -0.93889636042E+03  0.95341809317E+03  0.12500000000E+03 0.  0.
          1    1    1    2  502    0 -0.59026830280E+02  0.21920345873E+02 -0.32789941453E+04  0.32795986452E+04  0.00000000000E+00 0. -1.
         -1    1    1    2    0  501 -0.33772204349E+02  0.35027208502E+02 -0.92067895148E+02  0.10413435763E+03  0.00000000000E+00 0.  1.
<mgrwt>
<rscale>  0 0.56118039E+02</rscale>
<asrwt>0</asrwt>
<pdfrwt beam="2">  1        2 0.66516350E+00 0.64723649E+02</pdfrwt>
<pdfrwt beam="1">  1       -2 0.20917419E-02 0.48656625E+02</pdfrwt>
<totfact> 0.19758912E+02</totfact>
</mgrwt>
</event>
<event>
 5    1  0.8459321E-003  0.7136545E+02  0.7546771E-02  0.1418500E+00
         -1   -1    0    0    0  501 -0.00000000000E+00  0.00000000000E+00  0.41173905251E+03  0.41173905251E+03  0.00000000000E+00 0.  1.
          1   -1    0    0  502    0  0.00000000000E+00 -0.00000000000E+00 -0.12585503392E+03  0.12585503392E+03  0.00000000000E+00 0. -1.
         25    1    1    2    0    0  0.61893923696E+02 -0.49290004791E+02  0.14938843301E+03  0.21024335014E+03  0.12500000000E+03 0.  0.
          2    1    1    2  502    0 -0.71271361148E+02  0.74148490865E+01 -0.79561722022E+02  0.10707312696E+03  0.00000000000E+00 0. -1.
         -2    1    1    2    0  501  0.93774374522E+01  0.41875155704E+02  0.21605730761E+03  0.22027760932E+03  0.00000000000E+00 0.  1.
<mgrwt>
<rscale>  0 0.55339454E+02</rscale>
<asrwt>0</asrwt>
<pdfrwt beam="2">  1        1 0.19362313E-01 0.71365449E+02</pdfrwt>
<pdfrwt beam="1">  1       -1 0.63344469E-01 0.42912294E+02</pdfrwt>
<totfact> 0.69090022E+02</totfact>
</mgrwt>
</event>
<event>
 5    1  0.8459321E-003  0.6679678E+02  0.7546771E-02  0.1492975E+00
          1   -1    0    0  501    0 -0.00000000000E+00  0.00000000000E+00  0.34090520329E+02  0.34090520329E+02  0.00000000000E+00 0. -1.
          2   -1    0    0  502    0  0.00000000000E+00 -0.00000000000E+00 -0.69692212275E+03  0.69692212275E+03  0.00000000000E+00 0. -1.
         25    1    1    2    0    0  0.61594162709E+02  0.28069585632E+02 -0.50018978933E+03  0.51999669986E+03  0.12500000000E+03 0.  0.
          2    1    1    2  501    0  0.66648792319E+01 -0.25746130897E+02  0.75379368017E+01  0.27642437710E+02  0.00000000000E+00 0. -1.
          3    1    1    2  502    0 -0.68259041941E+02 -0.23234547351E+01 -0.17017974989E+03  0.18337350551E+03  0.00000000000E+00 0. -1.
<mgrwt>
<rscale>  0 0.42147927E+02</rscale>
<asrwt>0</asrwt>
<pdfrwt beam="2">  1        2 0.10721877E+00 0.66796784E+02</pdfrwt>
<pdfrwt beam="1">  1        1 0.52446963E-02 0.26594809E+02</pdfrwt>
<totfact> 0.74148876E+03</totfact>
</mgrwt>
</event>
<event>
 5    1  0.8459321E-003  0.2851243E+02  0.7546771E-02  0.1651299E+00
          2   -1    0    0  502    0  0.00000000000E+00  0.00000000000E+00  0.27754261900E+03  0.27754261900E+03  0.00000000000E+00 0. -1.
          1   -1    0    0  501    0 -0.00000000000E+00 -0.00000000000E+00 -0.30534410265E+03  0.30534410265E+03  0.00000000000E+00 0. -1.
         25    1    1    2    0    0  0.50268810263E+02  0.83501581574E+01 -0.10374268712E+03  0.17024753612E+03  0.12500000000E+03 0.  0.
          2    1    1    2  501    0 -0.21902416293E+02 -0.74819716791E+01 -0.16672261341E+03  0.16832149465E+03  0.00000000000E+00 0. -1.
          1    1    1    2  502    0 -0.28366393970E+02 -0.86818647829E+00  0.24266381687E+03  0.24431769087E+03  0.00000000000E+00 0. -1.
<mgrwt>
<rscale>  0 0.25688970E+02</rscale>
<asrwt>0</asrwt>
<pdfrwt beam="1">  1        2 0.42698864E-01 0.28512433E+02</pdfrwt>
<pdfrwt beam="2">  1        1 0.46976016E-01 0.23145102E+02</pdfrwt>
<totfact> 0.13429306E+03</totfact>
</mgrwt>
</event>
<event>
 5    1  0.8459321E-003  0.6264074E+02  0.7546771E-02  0.1400901E+00
         -2   -1    0    0    0  501 -0.00000000000E+00  0.00000000000E+00  0.65287590325E+02  0.65287590325E+02  0.00000000000E+00 0.  1.
          2   -1    0    0  502    0  0.00000000000E+00 -0.00000000000E+00 -0.19578569337E+04  0.19578569337E+04  0.00000000000E+00 0. -1.
         25    1    1    2    0    0 -0.14306366508E+02 -0.34570357280E+02 -0.55426379179E+03  0.56941472813E+03  0.12500000000E+03 0.  0.
          1    1    1    2  502    0  0.65897660155E+02  0.12562295988E+02 -0.13813806755E+04  0.13830086347E+04  0.00000000000E+00 0. -1.
         -1    1    1    2    0  501 -0.51591293647E+02  0.22008061293E+02  0.43075123932E+02  0.70721161217E+02  0.00000000000E+00 0.  1.
<mgrwt>
<rscale>  0 0.59274607E+02</rscale>
<asrwt>0</asrwt>
<pdfrwt beam="2">  1        2 0.30120873E+00 0.62640739E+02</pdfrwt>
<pdfrwt beam="1">  1       -2 0.10044246E-01 0.56089360E+02</pdfrwt>
<totfact> 0.54388780E+02</totfact>
</mgrwt>
</event>
<event>
 5    1  0.8459321E-003  0.1387018E+03  0.7546771E-02  0.1228483E+00
          1   -1    0    0  501    0 -0.00000000000E+00  0.00000000000E+00  0.26685379177E+04  0.26685379177E+04  0.00000000000E+00 0. -1.
          2   -1    0    0  502    0  0.00000000000E+00 -0.00000000000E+00 -0.58873891282E+03  0.58873891282E+03  0.00000000000E+00 0. -1.
         25    1    1    2    0    0 -0.21070847887E+03  0.13423064827E+03  0.70030026920E+03  0.75396379027E+03  0.12500000000E+03 0.  0.
          2    1    1    2  501    0  0.11324647957E+03 -0.63276424448E+02  0.19327403484E+04  0.19370890340E+04  0.00000000000E+00 0. -1.
          1    1    1    2  502    0  0.97461999299E+02 -0.70954223819E+02 -0.55324161277E+03  0.56622400627E+03  0.00000000000E+00 0. -1.
<mgrwt>
<rscale>  0 0.12931009E+03</rscale>
<asrwt>0</asrwt>
<pdfrwt beam="2">  1        2 0.90575219E-01 0.12055432E+03</pdfrwt>
<pdfrwt beam="1">  1        1 0.41054429E+00 0.13870179E+03</pdfrwt>
<totfact> 0.97162570E+00</totfact>
</mgrwt>
</event>
<event>
 5    1  0.8459321E-003  0.1556451E+03  0.7546771E-02  0.1232135E+00
          1   -1    0    0  502    0  0.00000000000E+00  0.00000000000E+00  0.11193068420E+04  0.11193068420E+04  0.00000000000E+00 0. -1.
         -1   -1    0    0    0  501 -0.00000000000E+00 -0.00000000000E+00 -0.27525633289E+03  0.27525633289E+03  0.00000000000E+00 0.  1.
         25    1    1    2    0    0  0.92195587246E+02 -0.16100356468E+03  0.29921890217E+03  0.37360289823E+03  0.12500000000E+03 0.  0.
          2    1    1    2  502    0  0.47262441410E+02  0.92030801039E+02  0.75355912456E+03  0.76062787282E+03  0.00000000000E+00 0. -1.
         -2    1    1    2    0  501 -0.13945802866E+03  0.68972763641E+02 -0.20872751761E+03  0.26033240384E+03  0.00000000000E+00 0.  1.
<mgrwt>
<rscale>  0 0.12689610E+03</rscale>
<asrwt>0</asrwt>
<pdfrwt beam="1">  1        1 0.17220105E+00 0.10345727E+03</pdfrwt>
<pdfrwt beam="2">  1       -1 0.42347129E-01 0.15564513E+03</pdfrwt>
<totfact> 0.78995950E+01</totfact>
</mgrwt>
</event>
<event>
 5    1  0.8459321E-003  0.4846395E+02  0.7546771E-02  0.1485563E+00
          1   -1    0    0  501    0 -0.00000000000E+00  0.00000000000E+00  0.58469135951E+03  0.58469135951E+03  0.00000000000E+00 0. -1.
          2   -1    0    0  502    0  0.00000000000E+00 -0.00000000000E+00 -0.89974013958E+03  0.89974013958E+03  0.00000000000E+00 0. -1.
         25    1    1    2    0    0 -0.85862179126E+02 -0.77433848427E+01 -0.61936356911E+02  0.16399203066E+03  0.12500000000E+03 0.  0.
          2    1    1    2  501    0  0.37939285495E+02  0.71084360536E+01  0.53223406978E+03  0.53363191835E+03  0.00000000000E+00 0. -1.
          1    1    1    2  502    0  0.47922893631E+02  0.63494878909E+00 -0.78534649294E+03  0.78680755008E+03  0.00000000000E+00 0. -1.
<mgrwt>
<rscale>  0 0.43251394E+02</rscale>
<asrwt>0</asrwt>
<pdfrwt beam="2">  1        2 0.13842156E+00 0.48463955E+02</pdfrwt>
<pdfrwt beam="1">  1        1 0.89952517E-01 0.38599472E+02</pdfrwt>
<totfact> 0.17426721E+02</totfact>
</mgrwt>
</event>
<event>
 5    1  0.1326465E-002  0.8891892E+02  0.7546771E-02  0.1343397E+00
          2   -1    0    0  502    0  0.00000000000E+00  0.00000000000E+00  0.69314859221E+03  0.69314859221E+03  0.00000000000E+00 0. -1.
         -2   -1    0    0    0  501 -0.00000000000E+00 -0.00000000000E+00 -0.42403124737E+02  0.42403124737E+02  0.00000000000E+00 0.  1.
         25    1    1    2    0    0 -0.86546689481E+02 -0.96429584773E+02  0.28650194104E+03  0.33837458016E+03  0.12500000000E+03 0.  0.
          1    1    1    2  502    0  0.57872915473E+02  0.26179140829E+02  0.26354706246E+03  0.27109348183E+03  0.00000000000E+00 0. -1.
         -1    1    1    2    0  501  0.28673774008E+02  0.70250443944E+02  0.10069646397E+03  0.12608365496E+03  0.00000000000E+00 0.  1.
<mgrwt>
<rscale>  0 0.75153253E+02</rscale>
<asrwt>0</asrwt>
<pdfrwt beam="1">  1        2 0.10663824E+00 0.63518673E+02</pdfrwt>
<pdfrwt beam="2">  1       -2 0.65235582E-02 0.88918916E+02</pdfrwt>
<totfact> 0.52794267E+03</totfact>
</mgrwt>
</event>
<event>
 5    1  0.8459321E-003  0.4137400E+02  0.7546771E-02  0.1601205E+00
         -1   -1    0    0    0  501 -0.00000000000E+00  0.00000000000E+00  0.10606745094E+04  0.10606745094E+04  0.00000000000E+00 0.  1.
          3   -1    0    0  502    0  0.00000000000E+00 -0.00000000000E+00 -0.26616443722E+02  0.26616443722E+02  0.00000000000E+00 0. -1.
         25    1    1    2    0    0 -0.58956775120E+02 -0.11070203788E+02  0.57412939484E+03  0.59063356894E+03  0.12500000000E+03 0.  0.
          2    1    1    2  502    0  0.19479069425E+02  0.87365926865E+01 -0.11037987145E+02  0.24033296854E+02  0.00000000000E+00 0. -1.
         -2    1    1    2    0  501  0.39477705695E+02  0.23336111016E+01  0.47096665797E+03  0.47262408731E+03  0.00000000000E+00 0.  1.
<mgrwt>
<rscale>  0 0.29719968E+02</rscale>
<asrwt>0</asrwt>
<pdfrwt beam="2">  1        3 0.40948383E-02 0.21348588E+02</pdfrwt>
<pdfrwt beam="1">  1       -1 0.16318066E+00 0.41374001E+02</pdfrwt>
<totfact> 0.32975476E+02</totfact>
</mgrwt>
</event>
<event>
 5    1  0.8459321E-003  0.1938370E+03  0.7546771E-02  0.1243179E+00
          1   -1    0    0  501    0 -0.00000000000E+00  0.00000000000E+00  0.10439105986E+04  0.10439105986E+04  0.00000000000E+00 0. -1.
          2   -1    0    0  502    0  0.00000000000E+00 -0.00000000000E+00 -0.65321952681E+03  0.65321952681E+03  0.00000000000E+00 0. -1.
         25    1    1    2    0    0 -0.81933300248E+02  0.13188269897E+03  0.23447416986E+02  0.20070100483E+03  0.12500000000E+03 0.  0.
          2    1    1    2  501    0  0.42657162500E+02 -0.19486773164E+03  0.91864499811E+03  0.94005409360E+03  0.00000000000E+00 0. -1.
          1    1    1    2  502    0  0.39276137749E+02  0.62985032680E+02 -0.55140134327E+03  0.55637502702E+03  0.00000000000E+00 0. -1.
<mgrwt>
<rscale>  0 0.11995017E+03</rscale>
<asrwt>0</asrwt>
<pdfrwt beam="2">  1        2 0.10049531E+00 0.74227551E+02</pdfrwt>
<pdfrwt beam="1">  1        1 0.16060163E+00 0.19383697E+03</pdfrwt>
<totfact> 0.98278198E+01</totfact>
</mgrwt>
</event>
<event>
 5    1  0.8459321E-003  0.5919084E+02  0.7546771E-02  0.1411384E+00
          2   -1    0    0  502    0  0.00000000000E+00  0.00000000000E+00  0.86902901107E+03  0.86902901107E+03  0.00000000000E+00 0. -1.
          1   -1    0    0  501    0 -0.00000000000E+00 -0.00000000000E+00 -0.42992217879E+04  0.42992217879E+04  0.00000000000E+00 0. -1.
         25    1    1    2    0    0  0.71197716992E+02 -0.21930190717E+02 -0.31265161387E+04  0.31299006715E+04  0.12500000000E+03 0.  0.
          2    1    1    2  501    0 -0.19645297980E+02  0.51019832314E+02 -0.11693640254E+04  0.11706413562E+04  0.00000000000E+00 0. -1.
          1    1    1    2  502    0 -0.51552419012E+02 -0.29089641598E+02  0.86568738726E+03  0.86770877120E+03  0.00000000000E+00 0. -1.
<mgrwt>
<rscale>  0 0.56886249E+02</rscale>
<asrwt>0</asrwt>
<pdfrwt beam="1">  1        2 0.13369677E+00 0.59190835E+02</pdfrwt>
<pdfrwt beam="2">  1        1 0.66141873E+00 0.54671391E+02</pdfrwt>
<totfact> 0.46418763E-01</totfact>
</mgrwt>
</event>
<event>
 5    1  0.8459321E-003  0.6719851E+02  0.7546771E-02  0.1468538E+00
          2   -1    0    0  502    0  0.00000000000E+00  0.00000000000E+00  0.10205112339E+04  0.10205112339E+04  0.00000000000E+00 0. -1.
          1   -1    0    0  501    0 -0.00000000000E+00 -0.00000000000E+00 -0.21865317486E+04  0.21865317486E+04  0.00000000000E+00 0. -1.
         25    1    1    2    0    0  0.69224024382E+02 -0.15440149867E+01  0.32022143483E+03  0.35065811962E+03  0.12500000000E+03 0.  0.
          2    1    1    2  501    0 -0.59426665389E+02  0.31388003691E+02 -0.21704329455E+04  0.21714732110E+04  0.00000000000E+00 0. -1.
          3    1    1    2  502    0 -0.97973589930E+01 -0.29843988704E+02  0.68419099592E+03  0.68491165182E+03  0.00000000000E+00 0. -1.
<mgrwt>
<rscale>  0 0.45943155E+02</rscale>
<asrwt>0</asrwt>
<pdfrwt beam="1">  1        2 0.15700173E+00 0.31411016E+02</pdfrwt>
<pdfrwt beam="2">  1        1 0.33638949E+00 0.67198512E+02</pdfrwt>
<totfact> 0.12006185E+01</totfact>
</mgrwt>
</event>
<event>
 5    1  0.8459321E-003  0.1099599E+03  0.7546771E-02  0.1306524E+00
         -1   -1    0    0    0  501 -0.00000000000E+00  0.00000000000E+00  0.18216942940E+03  0.18216942940E+03  0.00000000000E+00 0.  1.
          1   -1    0    0  502    0  0.00000000000E+00 -0.00000000000E+00 -0.14767290404E+04  0.14767290404E+04  0.00000000000E+00 0. -1.
         25    1    1    2    0    0  0.57841100200E+01  0.65675659135E+02 -0.14685544254E+03  0.20380939413E+03  0.12500000000E+03 0.  0.
          2    1    1    2  502    0  0.66160257401E+02  0.26389948880E+02 -0.12780539302E+04  0.12800372875E+04  0.00000000000E+00 0. -1.
         -2    1    1    2    0  501 -0.71944367421E+02 -0.92065608015E+02  0.13034976166E+03  0.17505178818E+03  0.00000000000E+00 0.  1.
<mgrwt>
<rscale>  0 0.88500639E+02</rscale>
<asrwt>0</asrwt>
<pdfrwt beam="2">  1        1 0.22718908E+00 0.71229271E+02</pdfrwt>
<pdfrwt beam="1">  1       -1 0.28026067E-01 0.10995989E+03</pdfrwt>
<totfact> 0.95832398E+01</totfact>
</mgrwt>
</event>
<event>
 5    1  0.8459321E-003  0.6021779E+02  0.7546771E-02  0.1447712E+00
          2   -1    0    0  502    0  0.00000000000E+00  0.00000000000E+00  0.34589201335E+03  0.34589201335E+03  0.00000000000E+00 0. -1.
         -2   -1    0    0    0  501 -0.00000000000E+00 -0.00000000000E+00 -0.21657061808E+03  0.21657061808E+03  0.00000000000E+00 0.  1.
         25    1    1    2    0    0  0.20325528427E+02  0.25090152962E+02 -0.26486873765E+02  0.13179225077E+03  0.12500000000E+03 0.  0.
          1    1    1    2  502    0 -0.11184220564E+02  0.39230534525E+02  0.28402185525E+03  0.28693646664E+03  0.00000000000E+00 0. -1.
         -1    1    1    2    0  501 -0.91413078627E+01 -0.64320687487E+02 -0.12821358622E+03  0.14373391402E+03  0.00000000000E+00 0.  1.
<mgrwt>
<rscale>  0 0.49563123E+02</rscale>
<asrwt>0</asrwt>
<pdfrwt beam="1">  1        2 0.53214156E-01 0.40793647E+02</pdfrwt>
<pdfrwt beam="2">  1       -2 0.33318557E-01 0.60217788E+02</pdfrwt>
<totfact> 0.77100627E+02</totfact>
</mgrwt>
</event>
<event>
 5    1  0.8459321E-003  0.1306588E+03  0.7546771E-02  0.1321115E+00
          1   -1    0    0  501    0 -0.00000000000E+00  0.00000000000E+00  0.19493623668E+04  0.19493623668E+04  0.00000000000E+00 0. -1.
          2   -1    0    0  502    0  0.00000000000E+00 -0.00000000000E+00 -0.81774404039E+02  0.81774404039E+02  0.00000000000E+00 0. -1.
         25    1    1    2    0    0 -0.10373218889E+03  0.59217214310E+02  0.36957522964E+03  0.40801702886E+03  0.12500000000E+03 0.  0.
          2    1    1    2  501    0  0.13272327884E+03 -0.15384759434E+02  0.15461144230E+04  0.15518769180E+04  0.00000000000E+00 0. -1.
          1    1    1    2  502    0 -0.28991089955E+02 -0.43832454876E+02 -0.48101689892E+02  0.71242823973E+02  0.00000000000E+00 0. -1.
<mgrwt>
<rscale>  0 0.82864026E+02</rscale>
<asrwt>0</asrwt>
<pdfrwt beam="2">  1        2 0.12580679E-01 0.52552520E+02</pdfrwt>
<pdfrwt beam="1">  1        1 0.29990187E+00 0.13065875E+03</pdfrwt>
<totfact> 0.23768014E+02</totfact>
</mgrwt>
</event>
<event>
 5    1  0.8459321E-003  0.1536058E+03  0.7546771E-02  0.1251915E+00
          2   -1    0    0  502    0  0.00000000000E+00  0.00000000000E+00  0.35145701537E+03  0.35145701537E+03  0.00000000000E+00 0. -1.
          1   -1    0    0  501    0 -0.00000000000E+00 -0.00000000000E+00 -0.11738217636E+04  0.11738217636E+04  0.00000000000E+00 0. -1.
         25    1    1    2    0    0  0.20641982346E+03  0.10095083382E+03 -0.18627541015E+02  0.26224454169E+03  0.12500000000E+03 0.  0.
          2    1    1    2  501    0 -0.14443327712E+03 -0.41610524877E+02 -0.10196630983E+04  0.10306819302E+04  0.00000000000E+00 0. -1.
          1    1    1    2  502    0 -0.61986546339E+02 -0.59340308944E+02  0.21592589103E+03  0.23235230709E+03  0.00000000000E+00 0. -1.
<mgrwt>
<rscale>  0 0.11480911E+03</rscale>
<asrwt>0</asrwt>
<pdfrwt beam="1">  1        2 0.54070310E-01 0.85811446E+02</pdfrwt>
<pdfrwt beam="2">  1        1 0.18058796E+00 0.15360576E+03</pdfrwt>
<totfact> 0.15692311E+02</totfact>
</mgrwt>
</event>
<event>
 5    1  0.8459321E-003  0.5305275E+02  0.7546771E-02  0.1483621E+00
         -1   -1    0    0    0  501 -0.00000000000E+00  0.00000000000E+00  0.28921506972E+03  0.28921506972E+03  0.00000000000E+00 0.  1.
          1   -1    0    0  502    0  0.00000000000E+00 -0.00000000000E+00 -0.49026538869E+02  0.49026538869E+02  0.00000000000E+00 0. -1.
         25    1    1    2    0    0 -0.37336481465E+02 -0.19742472719E+02  0.10065320868E+03  0.16595133773E+03  0.12500000000E+03 0.  0.
          2    1    1    2  502    0  0.33933333220E+02  0.55324624839E+02  0.97296951903E+02  0.11695718048E+03  0.00000000000E+00 0. -1.
         -2    1    1    2    0  501  0.34031482444E+01 -0.35582152120E+02  0.42238370263E+02  0.55333090370E+02  0.00000000000E+00 0.  1.
<mgrwt>
<rscale>  0 0.43547045E+02</rscale>
<asrwt>0</asrwt>
<pdfrwt beam="2">  1        1 0.75425446E-02 0.53052746E+02</pdfrwt>
<pdfrwt beam="1">  1       -1 0.44494625E-01 0.35744524E+02</pdfrwt>
<totfact> 0.42534543E+03</totfact>
</mgrwt>
</event>
<event>
 5    1  0.8459321E-003  0.1015792E+03  0.7546771E-02  0.1385397E+00
          2   -1    0    0  502    0  0.00000000000E+00  0.00000000000E+00  0.39478697800E+03  0.39478697800E+03  0.00000000000E+00 0. -1.
          1   -1    0    0  501    0 -0.00000000000E+00 -0.00000000000E+00 -0.13320929332E+04  0.13320929332E+04  0.00000000000E+00 0. -1.
         25    1    1    2    0    0  0.39040891965E+02 -0.13058922636E+03 -0.14284592586E+02  0.18549066519E+03  0.12500000000E+03 0.  0.
          2    1    1    2  501    0 -0.14739551506E+01  0.39127295568E+02 -0.12239790978E+04  0.12246052219E+04  0.00000000000E+00 0. -1.
          1    1    1    2  502    0 -0.37566936814E+02  0.91461930792E+02  0.30095773519E+03  0.31678402405E+03  0.00000000000E+00 0. -1.
<mgrwt>
<rscale>  0 0.63066144E+02</rscale>
<asrwt>0</asrwt>
<pdfrwt beam="1">  1        2 0.60736458E-01 0.10157920E+03</pdfrwt>
<pdfrwt beam="2">  1        1 0.20493738E+00 0.39155048E+02</pdfrwt>
<totfact> 0.12229029E+02</totfact>
</mgrwt>
</event>
<event>
 5    1  0.8459321E-003  0.1408723E+03  0.7546771E-02  0.1335555E+00
         -1   -1    0    0    0  501 -0.00000000000E+00  0.00000000000E+00  0.53259851809E+03  0.53259851809E+03  0.00000000000E+00 0.  1.
          1   -1    0    0  502    0  0.00000000000E+00 -0.00000000000E+00 -0.29028335433E+04  0.29028335433E+04  0.00000000000E+00 0. -1.
         25    1    1    2    0    0 -0.10763495261E+03  0.21050623892E+02 -0.85849517739E+03  0.87445261816E+03  0.12500000000E+03 0.  0.
          2    1    1    2  502    0  0.14739365996E+03 -0.37200953076E+02 -0.20326390362E+04  0.20383155431E+04  0.00000000000E+00 0. -1.
         -2    1    1    2    0  501 -0.39758707344E+02  0.16150329184E+02  0.52089918841E+03  0.52266390007E+03  0.00000000000E+00 0.  1.
<mgrwt>
<rscale>  0 0.77751887E+02</rscale>
<asrwt>0</asrwt>
<pdfrwt beam="2">  1        1 0.44658978E+00 0.14087231E+03</pdfrwt>
<pdfrwt beam="1">  1       -1 0.81938232E-01 0.42913727E+02</pdfrwt>
<totfact> 0.15648288E+00</totfact>
</mgrwt>
</event>
<event>
 5    1  0.8459321E-003  0.5790250E+02  0.7546771E-02  0.1430576E+00
          2   -1    0    0  502    0  0.00000000000E+00  0.00000000000E+00  0.19151661896E+04  0.19151661896E+04  0.00000000000E+00 0. -1.
          1   -1    0    0  501    0 -0.00000000000E+00 -0.00000000000E+00 -0.21015530596E+03  0.21015530596E+03  0.00000000000E+00 0. -1.
         25    1    1    2    0    0 -0.35784192813E+00  0.31752292425E+02  0.52135099492E+03  0.53706628644E+03  0.12500000000E+03 0.  0.
          2    1    1    2  501    0  0.48585164587E+02 -0.32079293721E+02 -0.19767921514E+03  0.20607443171E+03  0.00000000000E+00 0. -1.
          1    1    1    2  502    0 -0.48227322659E+02  0.32700129655E+00  0.13813391038E+04  0.13821807774E+04  0.00000000000E+00 0. -1.
<mgrwt>
<rscale>  0 0.52844554E+02</rscale>
<asrwt>0</asrwt>
<pdfrwt beam="1">  1        2 0.29464094E+00 0.48228431E+02</pdfrwt>
<pdfrwt beam="2">  1        1 0.32331587E-01 0.57902504E+02</pdfrwt>
<totfact> 0.18113193E+02</totfact>
</mgrwt>
</event>
<event>
 5    1  0.8459321E-003  0.1679450E+03  0.7546771E-02  0.1211857E+00
          1   -1    0    0  501    0 -0.00000000000E+00  0.00000000000E+00  0.69964762566E+03  0.69964762566E+03  0.00000000000E+00 0. -1.
          2   -1    0    0  502    0  0.00000000000E+00 -0.00000000000E+00 -0.32419633351E+04  0.32419633351E+04  0.00000000000E+00 0. -1.
         25    1    1    2    0    0  0.47208893042E+02 -0.30027206698E+02 -0.63539722158E+02  0.15097221273E+03  0.12500000000E+03 0.  0.
          2    1    1    2  501    0  0.10751595686E+03 -0.49934179348E+02  0.64813202569E+03  0.65888407628E+03  0.00000000000E+00 0. -1.
          1    1    1    2  502    0 -0.15472484991E+03  0.79961386046E+02 -0.31269080129E+04  0.31317546717E+04  0.00000000000E+00 0. -1.
<mgrwt>
<rscale>  0 0.14109985E+03</rscale>
<asrwt>0</asrwt>
<pdfrwt beam="2">  1        2 0.49876359E+00 0.16794497E+03</pdfrwt>
<pdfrwt beam="1">  1        1 0.10763810E+00 0.11854579E+03</pdfrwt>
<totfact> 0.64425453E+00</totfact>
</mgrwt>
</event>
<event>
 5    1  0.8459321E-003  0.1075786E+03  0.7546771E-02  0.1342300E+00
         -2   -1    0    0    0  501 -0.00000000000E+00  0.00000000000E+00  0.13803736521E+03  0.13803736521E+03  0.00000000000E+00 0.  1.
          2   -1    0    0  502    0  0.00000000000E+00 -0.00000000000E+00 -0.14783023312E+04  0.14783023312E+04  0.00000000000E+00 0. -1.
         25    1    1    2    0    0 -0.10939073104E+03  0.93819685284E+02 -0.60172883640E+03  0.63124563994E+03  0.12500000000E+03 0.  0.
          1    1    1    2  502    0  0.57515132575E+02 -0.82959185781E+02 -0.85300148702E+03  0.85895387178E+03  0.00000000000E+00 0. -1.
         -1    1    1    2    0  501  0.51875598466E+02 -0.10860499503E+02  0.11446535739E+03  0.12614018474E+03  0.00000000000E+00 0.  1.
<mgrwt>
<rscale>  0 0.75509550E+02</rscale>
<asrwt>0</asrwt>
<pdfrwt beam="2">  1        2 0.22743115E+00 0.10757856E+03</pdfrwt>
<pdfrwt beam="1">  1       -2 0.21236516E-01 0.53000266E+02</pdfrwt>
<totfact> 0.27153112E+02</totfact>
</mgrwt>
</event>
<event>
 5    1  0.8459321E-003  0.1027298E+03  0.7546771E-02  0.1278472E+00
          1   -1    0    0  501    0 -0.00000000000E+00  0.00000000000E+00  0.36777889921E+02  0.36777889921E+02  0.00000000000E+00 0. -1.
          2   -1    0    0  502    0  0.00000000000E+00 -0.00000000000E+00 -0.26545361022E+04  0.26545361022E+04  0.00000000000E+00 0. -1.
         25    1    1    2    0    0  0.32728631993E+02 -0.86699720116E+02 -0.58297851503E+03  0.60338789664E+03  0.12500000000E+03 0.  0.
          2    1    1    2  501    0  0.66224042585E+02  0.91067068946E+02 -0.99946928263E+02  0.15055970023E+03  0.00000000000E+00 0. -1.
          1    1    1    2  502    0 -0.98952674579E+02 -0.43673488304E+01 -0.19348327690E+04  0.19373663952E+04  0.00000000000E+00 0. -1.
<mgrwt>
<rscale>  0 0.10087263E+03</rscale>
<asrwt>0</asrwt>
<pdfrwt beam="2">  1        2 0.40839031E+00 0.99049006E+02</pdfrwt>
<pdfrwt beam="1">  1        1 0.56581349E-02 0.10272982E+03</pdfrwt>
<totfact> 0.66561449E+02</totfact>
</mgrwt>
</event>
<event>
 5    1  0.8459321E-003  0.2476462E+02  0.7546771E-02  0.1702134E+00
          2   -1    0    0  502    0  0.00000000000E+00  0.00000000000E+00  0.30867285897E+03  0.30867285897E+03  0.00000000000E+00 0. -1.
          1   -1    0    0  501    0 -0.00000000000E+00 -0.00000000000E+00 -0.10282596187E+03  0.10282596187E+03  0.00000000000E+00 0. -1.
         25    1    1    2    0    0 -0.24185825292E+02  0.24681757778E+02  0.79397293366E+02  0.15206272885E+03  0.12500000000E+03 0.  0.
          2    1    1    2  501    0 -0.85059379922E-01 -0.20185017503E+02 -0.64146919857E+02  0.67247821480E+02  0.00000000000E+00 0. -1.
          1    1    1    2  502    0  0.24270884672E+02 -0.44967402756E+01  0.19059652359E+03  0.19218827051E+03  0.00000000000E+00 0. -1.
<mgrwt>
<rscale>  0 0.22357969E+02</rscale>
<asrwt>0</asrwt>
<pdfrwt beam="1">  1        2 0.47488132E-01 0.24764622E+02</pdfrwt>
<pdfrwt beam="2">  1        1 0.15819379E-01 0.20185197E+02</pdfrwt>
<totfact> 0.42788135E+03</totfact>
</mgrwt>
</event>
<event>
 5    1  0.8459321E-003  0.6721609E+02  0.7546771E-02  0.1409811E+00
          1   -1    0    0  501    0 -0.00000000000E+00  0.00000000000E+00  0.72974337768E+02  0.72974337768E+02  0.00000000000E+00 0. -1.
          2   -1    0    0  502    0  0.00000000000E+00 -0.00000000000E+00 -0.90151279271E+03  0.90151279271E+03  0.00000000000E+00 0. -1.
         25    1    1    2    0    0  0.58689380900E+02  0.82032809944E+02 -0.22373177811E+03  0.27541738121E+03  0.12500000000E+03 0.  0.
          2    1    1    2  501    0 -0.22702625246E+01 -0.48684715175E+02  0.32385213978E+02  0.58516302583E+02  0.00000000000E+00 0. -1.
          1    1    1    2  502    0 -0.56419118375E+02 -0.33348094769E+02 -0.63719189080E+03  0.64055344668E+03  0.00000000000E+00 0. -1.
<mgrwt>
<rscale>  0 0.57235936E+02</rscale>
<asrwt>0</asrwt>
<pdfrwt beam="2">  1        2 0.13869427E+00 0.67216094E+02</pdfrwt>
<pdfrwt beam="1">  1        1 0.11226822E-01 0.48737620E+02</pdfrwt>
<totfact> 0.21734536E+03</totfact>
</mgrwt>
</event>
<event>
 5    1  0.8459321E-003  0.9706308E+02  0.7546771E-02  0.1323252E+00
          2   -1    0    0  502    0  0.00000000000E+00  0.00000000000E+00  0.37637556772E+03  0.37637556772E+03  0.00000000000E+00 0. -1.
         -2   -1    0    0    0  501 -0.00000000000E+00 -0.00000000000E+00 -0.22028951322E+03  0.22028951322E+03  0.00000000000E+00 0.  1.
         25    1    1    2    0    0 -0.40069167770E+02 -0.68009774291E+01  0.47155727552E+02  0.13964402651E+03  0.12500000000E+03 0.  0.
          1    1    1    2  502    0 -0.57199064103E+02 -0.39317441082E+02  0.26135603401E+03  0.27041555174E+03  0.00000000000E+00 0. -1.
         -1    1    1    2    0  501  0.97268231873E+02  0.46118418511E+02 -0.15242570707E+03  0.18660550269E+03  0.00000000000E+00 0.  1.
<mgrwt>
<rscale>  0 0.82079477E+02</rscale>
<asrwt>0</asrwt>
<pdfrwt beam="1">  1        2 0.57903933E-01 0.69408891E+02</pdfrwt>
<pdfrwt beam="2">  1       -2 0.33890694E-01 0.97063078E+02</pdfrwt>
<totfact> 0.69333363E+02</totfact>
</mgrwt>
</event>
<event>
 5    1  0.8459321E-003  0.4188516E+02  0.7546771E-02  0.1532325E+00
          1   -1    0    0  502    0  0.00000000000E+00  0.00000000000E+00  0.71611661635E+03  0.71611661635E+03  0.00000000000E+00 0. -1.
         -1   -1    0    0    0  501 -0.00000000000E+00 -0.00000000000E+00 -0.18076530506E+02  0.18076530506E+02  0.00000000000E+00 0.  1.
         25    1    1    2    0    0  0.49003248996E+01  0.11657753920E+02  0.27708561641E+03  0.30423897717E+03  0.12500000000E+03 0.  0.
          2    1    1    2  502    0 -0.19291510165E+02 -0.40812250463E+02  0.33550380562E+03  0.33852711226E+03  0.00000000000E+00 0. -1.
         -2    1    1    2    0  501  0.14391185265E+02  0.29154496543E+02  0.85450663814E+02  0.91427057418E+02  0.00000000000E+00 0.  1.
<mgrwt>
<rscale>  0 0.36902701E+02</rscale>
<asrwt>0</asrwt>
<pdfrwt beam="1">  1        1 0.11017176E+00 0.41885157E+02</pdfrwt>
<pdfrwt beam="2">  1       -1 0.27810053E-02 0.32512934E+02</pdfrwt>
<totfact> 0.95956014E+03</totfact>
</mgrwt>
</event>
<event>
 5    1  0.8459321E-003  0.9583600E+02  0.7546771E-02  0.1395193E+00
          1   -1    0    0  501    0 -0.00000000000E+00  0.00000000000E+00  0.64802909702E+02  0.64802909702E+02  0.00000000000E+00 0. -1.
          2   -1    0    0  502    0  0.00000000000E+00 -0.00000000000E+00 -0.12025467114E+04  0.12025467114E+04  0.00000000000E+00 0. -1.
         25    1    1    2    0    0 -0.55489434625E+02  0.76633939094E+02 -0.61152420183E+02  0.16827494309E+03  0.12500000000E+03 0.  0.
          2    1    1    2  501    0 -0.27034978384E+02 -0.27215850845E+02 -0.31697468088E+02  0.49762657452E+02  0.00000000000E+00 0. -1.
          1    1    1    2  502    0  0.82524413009E+02 -0.49418088248E+02 -0.10448939134E+04  0.10493120206E+04  0.00000000000E+00 0. -1.
<mgrwt>
<rscale>  0 0.60633305E+02</rscale>
<asrwt>0</asrwt>
<pdfrwt beam="2">  1        2 0.18500718E+00 0.95836002E+02</pdfrwt>
<pdfrwt beam="1">  1        1 0.99696787E-02 0.38361342E+02</pdfrwt>
<totfact> 0.16380452E+03</totfact>
</mgrwt>
</event>
<event>
 5    1  0.8459321E-003  0.1307663E+03  0.7546771E-02  0.1277443E+00
          1   -1    0    0  502    0  0.00000000000E+00  0.00000000000E+00  0.19937224679E+04  0.19937224679E+04  0.00000000000E+00 0. -1.
         -1   -1    0    0    0  501 -0.00000000000E+00 -0.00000000000E+00 -0.77900092619E+02  0.77900092619E+02  0.00000000000E+00 0.  1.
         25    1    1    2    0    0 -0.11043143536E+03  0.71552254639E+02  0.17056863795E+04  0.17153150884E+04  0.12500000000E+03 0.  0.
          2    1    1    2  502    0  0.14554637429E+03 -0.12538272394E+01  0.23277102548E+03  0.27453172759E+03  0.00000000000E+00 0. -1.
         -2    1    1    2    0  501 -0.35114938930E+02 -0.70298427399E+02 -0.22635029711E+02  0.81775744576E+02  0.00000000000E+00 0.  1.
<mgrwt>
<rscale>  0 0.10136918E+03</rscale>
<asrwt>0</asrwt>
<pdfrwt beam="1">  1        1 0.30672649E+00 0.13076632E+03</pdfrwt>
<pdfrwt beam="2">  1       -1 0.11984631E-01 0.78580709E+02</pdfrwt>
<totfact> 0.15984899E+02</totfact>
</mgrwt>
</event>
<event>
 5    1  0.8459321E-003  0.1452867E+03  0.7546771E-02  0.1393150E+00
          2   -1    0    0  502    0  0.00000000000E+00  0.00000000000E+00  0.13871901392E+04  0.13871901392E+04  0.00000000000E+00 0. -1.
         -2   -1    0    0    0  501 -0.00000000000E+00 -0.00000000000E+00 -0.31434016285E+03  0.31434016285E+03  0.00000000000E+00 0.  1.
         25    1    1    2    0    0  0.63386243481E+02 -0.11301307838E+03  0.21214342510E+03  0.27824378620E+03  0.12500000000E+03 0.  0.
          1    1    1    2  502    0 -0.10211048078E+02 -0.23607021128E+02  0.11227373716E+04  0.11230319508E+04  0.00000000000E+00 0. -1.
         -1    1    1    2    0  501 -0.53175195403E+02  0.13662009951E+03 -0.26203082037E+03  0.30025456502E+03  0.00000000000E+00 0.  1.
<mgrwt>
<rscale>  0 0.61130038E+02</rscale>
<asrwt>0</asrwt>
<pdfrwt beam="1">  1        2 0.21341386E+00 0.25720749E+02</pdfrwt>
<pdfrwt beam="2">  1       -2 0.48360026E-01 0.14528665E+03</pdfrwt>
<totfact> 0.78411433E+01</totfact>
</mgrwt>
</event>
<event>
 5    1  0.8459321E-003  0.1106387E+03  0.7546771E-02  0.1347830E+00
          1   -1    0    0  501    0 -0.00000000000E+00  0.00000000000E+00  0.27445409451E+04  0.27445409451E+04  0.00000000000E+00 0. -1.
          2   -1    0    0  502    0  0.00000000000E+00 -0.00000000000E+00 -0.49477003250E+02  0.49477003250E+02  0.00000000000E+00 0. -1.
         25    1    1    2    0    0  0.89802981088E+02  0.55391068606E+02  0.99192792776E+03  0.10053252010E+04  0.12500000000E+03 0.  0.
          2    1    1    2  501    0 -0.11370902576E+03 -0.12455578469E+02  0.17292593521E+04  0.17330386005E+04  0.00000000000E+00 0. -1.
          1    1    1    2  502    0  0.23906044671E+02 -0.42935490137E+02 -0.26123337940E+02  0.55654146928E+02  0.00000000000E+00 0. -1.
<mgrwt>
<rscale>  0 0.73736218E+02</rscale>
<asrwt>0</asrwt>
<pdfrwt beam="2">  1        2 0.76118488E-02 0.49142195E+02</pdfrwt>
<pdfrwt beam="1">  1        1 0.42223695E+00 0.11063873E+03</pdfrwt>
<totfact> 0.13516578E+02</totfact>
</mgrwt>
</event>
<event>
 5    1  0.8459321E-003  0.1325079E+03  0.7546771E-02  0.1288558E+00
          2   -1    0    0  502    0  0.00000000000E+00  0.00000000000E+00  0.66981475534E+03  0.66981475534E+03  0.00000000000E+00 0. -1.
         -2   -1    0    0    0  501 -0.00000000000E+00 -0.00000000000E+00 -0.27463778143E+03  0.27463778143E+03  0.00000000000E+00 0.  1.
         25    1    1    2    0    0  0.16343443132E+02 -0.16158247370E+03  0.38655520220E+03  0.43752248890E+03  0.12500000000E+03 0.  0.
          1    1    1    2  502    0 -0.57518648214E+02  0.10522044547E+03  0.23835890066E+03  0.26682335460E+03  0.00000000000E+00 0. -1.
         -1    1    1    2    0  501  0.41175205082E+02  0.56362028228E+02 -0.22973712895E+03  0.24010669328E+03  0.00000000000E+00 0.  1.
<mgrwt>
<rscale>  0 0.96172173E+02</rscale>
<asrwt>0</asrwt>
<pdfrwt beam="1">  1        2 0.10304842E+00 0.13250792E+03</pdfrwt>
<pdfrwt beam="2">  1       -2 0.42251966E-01 0.69800256E+02</pdfrwt>
<totfact> 0.24240657E+02</totfact>
</mgrwt>
</event>
<event>
 5    1  0.8459321E-003  0.6892472E+02  0.7546771E-02  0.1457511E+00
          1   -1    0    0  501    0 -0.00000000000E+00  0.00000000000E+00  0.80239269212E+03  0.80239269212E+03  0.00000000000E+00 0. -1.
          2   -1    0    0  502    0  0.00000000000E+00 -0.00000000000E+00 -0.27889470946E+03  0.27889470946E+03  0.00000000000E+00 0. -1.
         25    1    1    2    0    0 -0.31765363662E+02  0.96321224025E+02  0.21644881250E+03  0.26974414722E+03  0.12500000000E+03 0.  0.
          2    1    1    2  501    0  0.11778338865E+02 -0.31005114327E+02  0.55416717469E+03  0.55515880961E+03  0.00000000000E+00 0. -1.
          1    1    1    2  502    0  0.19987024797E+02 -0.65316109698E+02 -0.24711800453E+03  0.25638444475E+03  0.00000000000E+00 0. -1.
<mgrwt>
<rscale>  0 0.47812368E+02</rscale>
<asrwt>0</asrwt>
<pdfrwt beam="2">  1        2 0.42906879E-01 0.68924719E+02</pdfrwt>
<pdfrwt beam="1">  1        1 0.12344503E+00 0.33166947E+02</pdfrwt>
<totfact> 0.40707320E+02</totfact>
</mgrwt>
</event>
<event>
 5    1  0.8459321E-003  0.8561133E+02  0.7546771E-02  0.1315349E+00
          2   -1    0    0  502    0  0.00000000000E+00  0.00000000000E+00  0.33084984625E+04  0.33084984625E+04  0.00000000000E+00 0. -1.
          1   -1    0    0  501    0 -0.00000000000E+00 -0.00000000000E+00 -0.74691254087E+03  0.74691254087E+03  0.00000000000E+00 0. -1.
         25    1    1    2    0    0  0.27597106475E+02 -0.24542399162E+02 -0.12807058691E+02  0.13096927271E+03  0.12500000000E+03 0.  0.
          2    1    1    2  501    0  0.44541214300E+02  0.71756792211E+02 -0.67180804489E+03  0.67709600957E+03  0.00000000000E+00 0. -1.
          1    1    1    2  502    0 -0.72138320775E+02 -0.47214393049E+02  0.32462010252E+04  0.32473457211E+04  0.00000000000E+00 0. -1.
<mgrwt>
<rscale>  0 0.85032125E+02</rscale>
<asrwt>0</asrwt>
<pdfrwt beam="1">  1        2 0.50899975E+00 0.85611334E+02</pdfrwt>
<pdfrwt beam="2">  1        1 0.11490962E+00 0.84456835E+02</pdfrwt>
<totfact> 0.60895548E+00</totfact>
</mgrwt>
</event>
<event>
 5    1  0.8459321E-003  0.5476517E+02  0.7546771E-02  0.1505611E+00
         -1   -1    0    0    0  501 -0.00000000000E+00  0.00000000000E+00  0.11179521565E+03  0.11179521565E+03  0.00000000000E+00 0.  1.
          1   -1    0    0  502    0  0.00000000000E+00 -0.00000000000E+00 -0.23129791772E+03  0.23129791772E+03  0.00000000000E+00 0. -1.
         25    1    1    2    0    0  0.44516746925E+02 -0.46526547701E+02  0.44344164923E+02  0.14743766602E+03  0.12500000000E+03 0.  0.
          2    1    1    2  502    0 -0.29729433004E+02 -0.68393604646E+00 -0.13531777342E+03  0.13854676741E+03  0.00000000000E+00 0. -1.
         -2    1    1    2    0  501 -0.14787313921E+02  0.47210483748E+02 -0.28529093573E+02  0.57108699939E+02  0.00000000000E+00 0.  1.
<mgrwt>
<rscale>  0 0.40355521E+02</rscale>
<asrwt>0</asrwt>
<pdfrwt beam="2">  1        1 0.35584295E-01 0.29737299E+02</pdfrwt>
<pdfrwt beam="1">  1       -1 0.17199264E-01 0.54765166E+02</pdfrwt>
<totfact> 0.28546057E+03</totfact>
</mgrwt>
</event>
<event>
 5    1  0.8459321E-003  0.1096691E+03  0.7546771E-02  0.1336188E+00
          2   -1    0    0  502    0  0.00000000000E+00  0.00000000000E+00  0.14791355839E+04  0.14791355839E+04  0.00000000000E+00 0. -1.
          1   -1    0    0  501    0 -0.00000000000E+00 -0.00000000000E+00 -0.34063917581E+03  0.34063917581E+03  0.00000000000E+00 0. -1.
         25    1    1    2    0    0  0.42434616868E+02 -0.63426654522E+02  0.23620627996E+03  0.27792452916E+03  0.12500000000E+03 0.  0.
          2    1    1    2  501    0  0.54768661447E+02  0.23821040268E+01 -0.31471011101E+03  0.31944911123E+03  0.00000000000E+00 0. -1.
          1    1    1    2  502    0 -0.97203278315E+02  0.61044550496E+02  0.12170002391E+04  0.12224011193E+04  0.00000000000E+00 0. -1.
<mgrwt>
<rscale>  0 0.77537786E+02</rscale>
<asrwt>0</asrwt>
<pdfrwt beam="1">  1        2 0.22755932E+00 0.10966910E+03</pdfrwt>
<pdfrwt beam="2">  1        1 0.52406028E-01 0.54820440E+02</pdfrwt>
<totfact> 0.15459732E+02</totfact>
</mgrwt>
</event>
<event>
 5    1  0.8459321E-003  0.3626204E+03  0.7546771E-02  0.1221566E+00
          2   -1    0    0  502    0  0.00000000000E+00  0.00000000000E+00  0.28905588990E+04  0.28905588990E+04  0.00000000000E+00 0. -1.
          1   -1    0    0  501    0 -0.00000000000E+00 -0.00000000000E+00 -0.10583594296E+04  0.10583594296E+04  0.00000000000E+00 0. -1.
         25    1    1    2    0    0 -0.22629450784E+03 -0.27885430214E+03  0.41157015504E+03  0.56034267963E+03  0.12500000000E+03 0.  0.
          2    1    1    2  501    0  0.37659154461E+02 -0.32209686496E+02 -0.96957731905E+03  0.97084285723E+03  0.00000000000E+00 0. -1.
          1    1    1    2  502    0  0.18863535338E+03  0.31106398863E+03  0.23902066334E+04  0.24177327917E+04  0.00000000000E+00 0. -1.
<mgrwt>
<rscale>  0 0.13405064E+03</rscale>
<asrwt>0</asrwt>
<pdfrwt beam="1">  1        2 0.44470137E+00 0.36262043E+03</pdfrwt>
<pdfrwt beam="2">  1        1 0.16282453E+00 0.49554776E+02</pdfrwt>
<totfact> 0.52030685E+00</totfact>
</mgrwt>
</event>
<event>
 5    1  0.8459321E-003  0.5288827E+02  0.7546771E-02  0.1466844E+00
          2   -1    0    0  502    0  0.00000000000E+00  0.00000000000E+00  0.10051006688E+04  0.10051006688E+04  0.00000000000E+00 0. -1.
          1   -1    0    0  501    0 -0.00000000000E+00 -0.00000000000E+00 -0.10946643569E+04  0.10946643569E+04  0.00000000000E+00 0. -1.
         25    1    1    2    0    0 -0.13191370684E+02  0.16828488137E+02 -0.46258767773E+02  0.13498919908E+03  0.12500000000E+03 0.  0.
          2    1    1    2  501    0  0.18053958673E+02  0.36140378738E+02 -0.10028971424E+04  0.10037104915E+04  0.00000000000E+00 0. -1.
          1    1    1    2  502    0 -0.48625879892E+01 -0.52968866875E+02  0.95959222217E+03  0.96106533517E+03  0.00000000000E+00 0. -1.
<mgrwt>
<rscale>  0 0.46223683E+02</rscale>
<asrwt>0</asrwt>
<pdfrwt beam="1">  1        2 0.15463087E+00 0.52888273E+02</pdfrwt>
<pdfrwt beam="2">  1        1 0.16840990E+00 0.40398916E+02</pdfrwt>
<totfact> 0.60716954E+01</totfact>
</mgrwt>
</event>
<event>
 5    1  0.8459321E-003  0.2465201E+03  0.7546771E-02  0.1279205E+00
         -2   -1    0    0    0  501 -0.00000000000E+00  0.00000000000E+00  0.62508860669E+03  0.62508860669E+03  0.00000000000E+00 0.  1.
          2   -1    0    0  502    0  0.00000000000E+00 -0.00000000000E+00 -0.34668499905E+03  0.34668499905E+03  0.00000000000E+00 0. -1.
         25    1    1    2    0    0 -0.26699827724E+03  0.92552180969E+02  0.31664539665E+03  0.44242885696E+03  0.12500000000E+03 0.  0.
          1    1    1    2  502    0  0.22829146096E+03 -0.79069207637E+02 -0.22981103291E+03  0.33343971208E+03  0.00000000000E+00 0. -1.
         -1    1    1    2    0  501  0.38706816279E+02 -0.13482973332E+02  0.19156924390E+03  0.19590503671E+03  0.00000000000E+00 0.  1.
<mgrwt>
<rscale>  0 0.10052036E+03</rscale>
<asrwt>0</asrwt>
<pdfrwt beam="2">  1        2 0.53336154E-01 0.24652013E+03</pdfrwt>
<pdfrwt beam="1">  1       -2 0.96167478E-01 0.40987903E+02</pdfrwt>
<totfact> 0.92877925E+01</totfact>
</mgrwt>
</event>
<event>
 5    1  0.8459321E-003  0.1715536E+03  0.7546771E-02  0.1196656E+00
          2   -1    0    0  502    0  0.00000000000E+00  0.00000000000E+00  0.75850517478E+03  0.75850517478E+03  0.00000000000E+00 0. -1.
          3   -1    0    0  501    0 -0.00000000000E+00 -0.00000000000E+00 -0.47903850631E+03  0.47903850631E+03  0.00000000000E+00 0. -1.
         25    1    1    2    0    0  0.18555458938E+03  0.72105902792E+02  0.31637869344E+03  0.39414495369E+03  0.12500000000E+03 0.  0.
          2    1    1    2  501    0 -0.10758990143E+03  0.84358805908E+02 -0.40956407891E+03  0.43178088165E+03  0.00000000000E+00 0. -1.
          1    1    1    2  502    0 -0.77964687954E+02 -0.15646470870E+03  0.37265205394E+03  0.41161784576E+03  0.00000000000E+00 0. -1.
<mgrwt>
<rscale>  0 0.15314886E+03</rscale>
<asrwt>0</asrwt>
<pdfrwt beam="1">  1        2 0.11669310E+00 0.17155355E+03</pdfrwt>
<pdfrwt beam="2">  1        3 0.73698232E-01 0.13671867E+03</pdfrwt>
<totfact> 0.42103118E+01</totfact>
</mgrwt>
</event>
<event>
 5    1  0.8459321E-003  0.2339730E+02  0.7546771E-02  0.1697464E+00
         -2   -1    0    0    0  501  0.00000000000E+00  0.00000000000E+00  0.31222398899E+03  0.31222398899E+03  0.00000000000E+00 0.  1.
         -1   -1    0    0    0  502 -0.00000000000E+00 -0.00000000000E+00 -0.80083162084E+02  0.80083162084E+02  0.00000000000E+00 0.  1.
         25    1    1    2    0    0  0.44972493348E+01 -0.35628663909E+02  0.37038865826E+01  0.13010897632E+03  0.12500000000E+03 0.  0.
         -2    1    1    2    0  502  0.10735911755E+02  0.19892834116E+02 -0.85748023019E+01  0.24176680602E+02  0.00000000000E+00 0.  1.
         -1    1    1    2    0  501 -0.15233161090E+02  0.15735829793E+02  0.23701174263E+03  0.23802149415E+03  0.00000000000E+00 0.  1.
<mgrwt>
<rscale>  0 0.22636930E+02</rscale>
<asrwt>0</asrwt>
<pdfrwt beam="1">  1       -2 0.48034459E-01 0.21901268E+02</pdfrwt>
<pdfrwt beam="2">  1       -1 0.12320487E-01 0.23397304E+02</pdfrwt>
<totfact> 0.11385221E+03</totfact>
</mgrwt>
</event>
<event>
 5    1  0.8459321E-003  0.8899964E+02  0.7546771E-02  0.1375776E+00
         -1   -1    0    0    0  501 -0.00000000000E+00  0.00000000000E+00  0.12790904192E+03  0.12790904192E+03  0.00000000000E+00 0.  1.
          1   -1    0    0  502    0  0.00000000000E+00 -0.00000000000E+00 -0.46835757007E+03  0.46835757007E+03  0.00000000000E+00 0. -1.
         25    1    1    2    0    0  0.43948050018E+02  0.11933556145E+03 -0.17692429575E+03  0.25119636493E+03  0.12500000000E+03 0.  0.
          2    1    1    2  502    0 -0.34043531081E+02 -0.34309977579E+02 -0.23104409294E+03  0.23604556648E+03  0.00000000000E+00 0. -1.
         -2    1    1    2    0  501 -0.99045189369E+01 -0.85025583875E+02  0.67519860536E+02  0.10902468058E+03  0.00000000000E+00 0.  1.
<mgrwt>
<rscale>  0 0.65587140E+02</rscale>
<asrwt>0</asrwt>
<pdfrwt beam="2">  1        1 0.72055009E-01 0.48333597E+02</pdfrwt>
<pdfrwt beam="1">  1       -1 0.19678315E-01 0.88999644E+02</pdfrwt>
<totfact> 0.10220705E+03</totfact>
</mgrwt>
</event>
<event>
 5    1  0.8459321E-003  0.5438219E+02  0.7546771E-02  0.1455061E+00
         -1   -1    0    0    0  501 -0.00000000000E+00  0.00000000000E+00  0.66731554532E+02  0.66731554532E+02  0.00000000000E+00 0.  1.
          1   -1    0    0  502    0  0.00000000000E+00 -0.00000000000E+00 -0.29122580014E+03  0.29122580014E+03  0.00000000000E+00 0. -1.
         25    1    1    2    0    0 -0.52033243830E+02  0.70075080516E+02 -0.13021316027E+03  0.20049549242E+03  0.12500000000E+03 0.  0.
          2    1    1    2  502    0  0.16043827280E+02 -0.46919400176E+02 -0.10251865547E+03  0.11388111883E+03  0.00000000000E+00 0. -1.
         -2    1    1    2    0  501  0.35989416550E+02 -0.23155680340E+02  0.82375701324E+01  0.43580743423E+02  0.00000000000E+00 0.  1.
<mgrwt>
<rscale>  0 0.48242027E+02</rscale>
<asrwt>0</asrwt>
<pdfrwt beam="2">  1        1 0.44803969E-01 0.54382189E+02</pdfrwt>
<pdfrwt beam="1">  1       -1 0.10266393E-01 0.42795136E+02</pdfrwt>
<totfact> 0.46962484E+03</totfact>
</mgrwt>
</event>
<event>
 5    1  0.8459321E-003  0.6552008E+02  0.7546771E-02  0.1388904E+00
          1   -1    0    0  501    0 -0.00000000000E+00  0.00000000000E+00  0.11219070133E+04  0.11219070133E+04  0.00000000000E+00 0. -1.
          2   -1    0    0  502    0  0.00000000000E+00 -0.00000000000E+00 -0.62475642267E+03  0.62475642267E+03  0.00000000000E+00 0. -1.
         25    1    1    2    0    0 -0.80987355674E+02  0.73904285376E+02  0.59794097928E+03  0.62062807693E+03  0.12500000000E+03 0.  0.
          2    1    1    2  501    0  0.57605894195E+02 -0.12798081573E+02  0.50916895839E+03  0.51257707530E+03  0.00000000000E+00 0. -1.
          1    1    1    2  502    0  0.23381461479E+02 -0.61106203802E+02 -0.60995934702E+03  0.61345828375E+03  0.00000000000E+00 0. -1.
<mgrwt>
<rscale>  0 0.62180120E+02</rscale>
<asrwt>0</asrwt>
<pdfrwt beam="2">  1        2 0.96116373E-01 0.65520076E+02</pdfrwt>
<pdfrwt beam="1">  1        1 0.17260108E+00 0.59010422E+02</pdfrwt>
<totfact> 0.99212193E+01</totfact>
</mgrwt>
</event>
<event>
 5    1  0.4034303E-002  0.5856119E+02  0.7546771E-02  0.1447463E+00
         -2   -1    0    0    0  501 -0.00000000000E+00  0.00000000000E+00  0.94183151746E+02  0.94183151746E+02  0.00000000000E+00 0.  1.
          2   -1    0    0  502    0  0.00000000000E+00 -0.00000000000E+00 -0.23449782373E+03  0.23449782373E+03  0.00000000000E+00 0. -1.
         25    1    1    2    0    0  0.57112624011E+02  0.40774160020E+02 -0.15277080014E+03  0.20949534917E+03  0.12500000000E+03 0.  0.
          3    1    1    2  502    0  0.15321357504E+01 -0.41997205375E+02 -0.25652551973E+02  0.49235821532E+02  0.00000000000E+00 0. -1.
         -3    1    1    2    0  501 -0.58644759762E+02  0.12230453547E+01  0.38108680129E+02  0.69949804779E+02  0.00000000000E+00 0.  1.
<mgrwt>
<rscale>  0 0.49608896E+02</rscale>
<asrwt>0</asrwt>
<pdfrwt beam="2">  1        2 0.36076588E-01 0.42025144E+02</pdfrwt>
<pdfrwt beam="1">  1       -2 0.14489716E-01 0.58561194E+02</pdfrwt>
<totfact> 0.46483951E+03</totfact>
</mgrwt>
</event>
<event>
 5    1  0.8459321E-003  0.7257996E+02  0.7546771E-02  0.1463444E+00
          2   -1    0    0  502    0  0.00000000000E+00  0.00000000000E+00  0.32750332140E+03  0.32750332140E+03  0.00000000000E+00 0. -1.
          1   -1    0    0  501    0 -0.00000000000E+00 -0.00000000000E+00 -0.45400459023E+03  0.45400459023E+03  0.00000000000E+00 0. -1.
         25    1    1    2    0    0  0.64315632279E+02  0.48594366165E+02 -0.22630271990E+03  0.27080589730E+03  0.12500000000E+03 0.  0.
          2    1    1    2  501    0 -0.36948369267E+02 -0.61291027787E+02 -0.19843371255E+03  0.21094480405E+03  0.00000000000E+00 0. -1.
          1    1    1    2  502    0 -0.27367263012E+02  0.12696661622E+02  0.29823516361E+03  0.29975721028E+03  0.00000000000E+00 0. -1.
<mgrwt>
<rscale>  0 0.46793903E+02</rscale>
<asrwt>0</asrwt>
<pdfrwt beam="1">  1        2 0.50385127E-01 0.30169062E+02</pdfrwt>
<pdfrwt beam="2">  1        1 0.69846860E-01 0.72579961E+02</pdfrwt>
<totfact> 0.70504616E+02</totfact>
</mgrwt>
</event>
<event>
 5    1  0.8459321E-003  0.4830546E+02  0.7546771E-02  0.1486691E+00
          2   -1    0    0  502    0  0.00000000000E+00  0.00000000000E+00  0.32614444947E+03  0.32614444947E+03  0.00000000000E+00 0. -1.
          1   -1    0    0  501    0 -0.00000000000E+00 -0.00000000000E+00 -0.16473140428E+03  0.16473140428E+03  0.00000000000E+00 0. -1.
         25    1    1    2    0    0 -0.26744917035E+01  0.22986696576E+02  0.45298018715E+02  0.13495351653E+03  0.12500000000E+03 0.  0.
          2    1    1    2  501    0 -0.32608711163E+02 -0.38194710548E+02 -0.11297405295E+03  0.12363373568E+03  0.00000000000E+00 0. -1.
          1    1    1    2  502    0  0.35283202866E+02  0.15208013972E+02  0.22908907943E+03  0.23228860154E+03  0.00000000000E+00 0. -1.
<mgrwt>
<rscale>  0 0.43080777E+02</rscale>
<asrwt>0</asrwt>
<pdfrwt beam="1">  1        2 0.50176069E-01 0.38421193E+02</pdfrwt>
<pdfrwt beam="2">  1        1 0.25343293E-01 0.48305458E+02</pdfrwt>
<totfact> 0.24152377E+03</totfact>
</mgrwt>
</event>
<event>
 5    1  0.8459321E-003  0.8390786E+02  0.7546771E-02  0.1411680E+00
          2   -1    0    0  502    0  0.00000000000E+00  0.00000000000E+00  0.14294192220E+04  0.14294192220E+04  0.00000000000E+00 0. -1.
          1   -1    0    0  501    0 -0.00000000000E+00 -0.00000000000E+00 -0.14254725522E+03  0.14254725522E+03  0.00000000000E+00 0. -1.
         25    1    1    2    0    0  0.58186748321E+02 -0.82326555365E+02  0.58721104812E+02  0.17098692216E+03  0.12500000000E+03 0.  0.
          2    1    1    2  501    0 -0.68403960058E+02  0.45230098270E+02 -0.66608691360E+02  0.10564838525E+03  0.00000000000E+00 0. -1.
          1    1    1    2  502    0  0.10217211738E+02  0.37096457095E+02  0.12947595533E+04  0.12953311698E+04  0.00000000000E+00 0. -1.
<mgrwt>
<rscale>  0 0.56820657E+02</rscale>
<asrwt>0</asrwt>
<pdfrwt beam="1">  1        2 0.21991064E+00 0.38477767E+02</pdfrwt>
<pdfrwt beam="2">  1        1 0.21930348E-01 0.83907860E+02</pdfrwt>
<totfact> 0.51788987E+02</totfact>
</mgrwt>
</event>
<event>
 5    1  0.8459321E-003  0.1228619E+03  0.7546771E-02  0.1439436E+00
          2   -1    0    0  502    0  0.00000000000E+00  0.00000000000E+00  0.24172803021E+04  0.24172803021E+04  0.00000000000E+00 0. -1.
          1   -1    0    0  501    0 -0.00000000000E+00 -0.00000000000E+00 -0.40606782929E+02  0.40606782929E+02  0.00000000000E+00 0. -1.
         25    1    1    2    0    0  0.10563895878E+02 -0.11630423017E+03  0.95438116112E+03  0.96959098106E+03  0.12500000000E+03 0.  0.
          2    1    1    2  501    0  0.94763664168E+01  0.12341079774E+03  0.83434383701E+02  0.14926929658E+03  0.00000000000E+00 0. -1.
          1    1    1    2  502    0 -0.20040262294E+02 -0.71065675753E+01  0.13388579743E+04  0.13390268074E+04  0.00000000000E+00 0. -1.
<mgrwt>
<rscale>  0 0.51111773E+02</rscale>
<asrwt>0</asrwt>
<pdfrwt beam="1">  1        2 0.37188916E+00 0.21263006E+02</pdfrwt>
<pdfrwt beam="2">  1        1 0.62471993E-02 0.12286190E+03</pdfrwt>
<totfact> 0.98678654E+02</totfact>
</mgrwt>
</event>
<event>
 5    1  0.8459321E-003  0.8827659E+02  0.7546771E-02  0.1410405E+00
          1   -1    0    0  501    0 -0.00000000000E+00  0.00000000000E+00  0.23888303810E+04  0.23888303810E+04  0.00000000000E+00 0. -1.
          2   -1    0    0  502    0  0.00000000000E+00 -0.00000000000E+00 -0.17058220085E+03  0.17058220085E+03  0.00000000000E+00 0. -1.
         25    1    1    2    0    0 -0.84881260639E+02 -0.54855236234E+02  0.20748566762E+03  0.26246757441E+03  0.12500000000E+03 0.  0.
          2    1    1    2  501    0  0.51777502482E+02  0.71244511702E+02  0.21505534068E+04  0.21523560685E+04  0.00000000000E+00 0. -1.
          1    1    1    2  502    0  0.33103758157E+02 -0.16389275468E+02 -0.13979089423E+03  0.14458893895E+03  0.00000000000E+00 0. -1.
<mgrwt>
<rscale>  0 0.57103607E+02</rscale>
<asrwt>0</asrwt>
<pdfrwt beam="2">  1        2 0.26243417E-01 0.36938695E+02</pdfrwt>
<pdfrwt beam="1">  1        1 0.36751234E+00 0.88276588E+02</pdfrwt>
<totfact> 0.57472068E+01</totfact>
</mgrwt>
</event>
<event>
 5    1  0.8459321E-003  0.3985772E+02  0.7546771E-02  0.1536419E+00
          2   -1    0    0  502    0  0.00000000000E+00  0.00000000000E+00  0.13361863223E+04  0.13361863223E+04  0.00000000000E+00 0. -1.
         -2   -1    0    0    0  501 -0.00000000000E+00 -0.00000000000E+00 -0.10744024351E+03  0.10744024351E+03  0.00000000000E+00 0.  1.
         25    1    1    2    0    0 -0.25330028379E+02  0.16984919197E+02  0.34669710801E+02  0.13325571907E+03  0.12500000000E+03 0.  0.
          3    1    1    2  502    0 -0.14262388765E+02 -0.30048688542E+02  0.12444993702E+04  0.12449437826E+04  0.00000000000E+00 0. -1.
         -1    1    1    2    0  501  0.39592417143E+02  0.13063769345E+02 -0.50423002226E+02  0.65427064112E+02  0.00000000000E+00 0.  1.
<mgrwt>
<rscale>  0 0.36410643E+02</rscale>
<asrwt>0</asrwt>
<pdfrwt beam="1">  1        2 0.20556712E+00 0.33261681E+02</pdfrwt>
<pdfrwt beam="2">  1       -2 0.16529269E-01 0.39857724E+02</pdfrwt>
<totfact> 0.52138395E+02</totfact>
</mgrwt>
</event>
<event>
 5    1  0.8459321E-003  0.5739758E+02  0.7546771E-02  0.1414818E+00
          1   -1    0    0  501    0 -0.00000000000E+00  0.00000000000E+00  0.41051015309E+03  0.41051015309E+03  0.00000000000E+00 0. -1.
          2   -1    0    0  502    0  0.00000000000E+00 -0.00000000000E+00 -0.20689927772E+04  0.20689927772E+04  0.00000000000E+00 0. -1.
         25    1    1    2    0    0 -0.67795569816E+00  0.24874882940E+01  0.29856274299E+03  0.32368404150E+03  0.12500000000E+03 0.  0.
          2    1    1    2  501    0 -0.17670194567E+02  0.51973364014E+02  0.91372756861E+02  0.10659477961E+03  0.00000000000E+00 0. -1.
          1    1    1    2  502    0  0.18348150265E+02 -0.54460852308E+02 -0.20484181240E+04  0.20492241092E+04  0.00000000000E+00 0. -1.
<mgrwt>
<rscale>  0 0.56132370E+02</rscale>
<asrwt>0</asrwt>
<pdfrwt beam="2">  1        2 0.31830658E+00 0.57397580E+02</pdfrwt>
<pdfrwt beam="1">  1        1 0.63155408E-01 0.54895048E+02</pdfrwt>
<totfact> 0.66636413E+01</totfact>
</mgrwt>
</event>
<event>
 5    1  0.8459321E-003  0.1282227E+03  0.7546771E-02  0.1310685E+00
          1   -1    0    0  501    0 -0.00000000000E+00  0.00000000000E+00  0.57635847231E+03  0.57635847231E+03  0.00000000000E+00 0. -1.
          2   -1    0    0  502    0  0.00000000000E+00 -0.00000000000E+00 -0.65649978904E+03  0.65649978904E+03  0.00000000000E+00 0. -1.
         25    1    1    2    0    0 -0.11508766312E+03 -0.38487819226E+02 -0.21126070844E+03  0.27382945305E+03  0.12500000000E+03 0.  0.
          2    1    1    2  501    0 -0.17646891273E+02  0.56106130803E+02  0.53258488339E+03  0.53582270267E+03  0.00000000000E+00 0. -1.
          1    1    1    2  502    0  0.13273455439E+03 -0.17618311577E+02 -0.40146549168E+03  0.42320610563E+03  0.00000000000E+00 0. -1.
<mgrwt>
<rscale>  0 0.86842010E+02</rscale>
<asrwt>0</asrwt>
<pdfrwt beam="2">  1        2 0.10099997E+00 0.12822271E+03</pdfrwt>
<pdfrwt beam="1">  1        1 0.88670534E-01 0.58815905E+02</pdfrwt>
<totfact> 0.24691293E+02</totfact>
</mgrwt>
</event>
<event>
 5    1  0.8459321E-003  0.1866829E+03  0.7546771E-02  0.1178871E+00
          2   -1    0    0  502    0  0.00000000000E+00  0.00000000000E+00  0.30070133822E+04  0.30070133822E+04  0.00000000000E+00 0. -1.
          1   -1    0    0  501    0 -0.00000000000E+00 -0.00000000000E+00 -0.92684456072E+03  0.92684456072E+03  0.00000000000E+00 0. -1.
         25    1    1    2    0    0 -0.55055963390E+02 -0.25957439451E+03  0.94012313607E+03  0.98481802195E+03  0.12500000000E+03 0.  0.
          2    1    1    2  501    0 -0.73132337514E+02  0.13442792297E+03 -0.89405897709E+03  0.90706155237E+03  0.00000000000E+00 0. -1.
          1    1    1    2  502    0  0.12818830090E+03  0.12514647154E+03  0.20341046625E+04  0.20419783686E+04  0.00000000000E+00 0. -1.
<mgrwt>
<rscale>  0 0.16902283E+03</rscale>
<asrwt>0</asrwt>
<pdfrwt beam="1">  1        2 0.46261744E+00 0.18668295E+03</pdfrwt>
<pdfrwt beam="2">  1        1 0.14259147E+00 0.15303335E+03</pdfrwt>
<totfact> 0.56524662E+00</totfact>
</mgrwt>
</event>
<event>
 5    1  0.8459321E-003  0.7356846E+02  0.7546771E-02  0.1401701E+00
          2   -1    0    0  502    0  0.00000000000E+00  0.00000000000E+00  0.23972430705E+04  0.23972430705E+04  0.00000000000E+00 0. -1.
         -2   -1    0    0    0  501 -0.00000000000E+00 -0.00000000000E+00 -0.10511357241E+03  0.10511357241E+03  0.00000000000E+00 0.  1.
         25    1    1    2    0    0 -0.52163924596E+02  0.87129124592E+02  0.11974413520E+04  0.12082232206E+04  0.12500000000E+03 0.  0.
          1    1    1    2  502    0  0.82616013817E+01 -0.69108381740E+02  0.11876876425E+04  0.11897252450E+04  0.00000000000E+00 0. -1.
         -1    1    1    2    0  501  0.43902323215E+02 -0.18020742851E+02 -0.92999496384E+02  0.10440817729E+03  0.00000000000E+00 0.  1.
<mgrwt>
<rscale>  0 0.59087512E+02</rscale>
<asrwt>0</asrwt>
<pdfrwt beam="1">  1        2 0.36880658E+00 0.73568462E+02</pdfrwt>
<pdfrwt beam="2">  1       -2 0.16171321E-01 0.47456940E+02</pdfrwt>
<totfact> 0.15046497E+02</totfact>
</mgrwt>
</event>
<event>
 5    1  0.8459321E-003  0.8935872E+02  0.7546771E-02  0.1368810E+00
          1   -1    0    0  501    0 -0.00000000000E+00  0.00000000000E+00  0.73217357932E+03  0.73217357932E+03  0.00000000000E+00 0. -1.
          2   -1    0    0  502    0  0.00000000000E+00 -0.00000000000E+00 -0.22089160195E+04  0.22089160195E+04  0.00000000000E+00 0. -1.
         25    1    1    2    0    0 -0.86763860822E+02 -0.52802231573E+02 -0.11701760427E+03  0.19908330646E+03  0.12500000000E+03 0.  0.
          2    1    1    2  501    0  0.89361623782E+02  0.18815473779E+01  0.68793225270E+03  0.69371451212E+03  0.00000000000E+00 0. -1.
          1    1    1    2  502    0 -0.25977629598E+01  0.50920684195E+02 -0.20476570886E+04  0.20482917802E+04  0.00000000000E+00 0. -1.
<mgrwt>
<rscale>  0 0.67499071E+02</rscale>
<asrwt>0</asrwt>
<pdfrwt beam="2">  1        2 0.33983323E+00 0.50986905E+02</pdfrwt>
<pdfrwt beam="1">  1        1 0.11264209E+00 0.89358720E+02</pdfrwt>
<totfact> 0.26734601E+01</totfact>
</mgrwt>
</event>
<event>
 5    1  0.8459321E-003  0.6303509E+02  0.7546771E-02  0.1464173E+00
          1   -1    0    0  501    0 -0.00000000000E+00  0.00000000000E+00  0.31341551922E+03  0.31341551922E+03  0.00000000000E+00 0. -1.
          2   -1    0    0  502    0  0.00000000000E+00 -0.00000000000E+00 -0.13010563007E+04  0.13010563007E+04  0.00000000000E+00 0. -1.
         25    1    1    2    0    0  0.10701613838E+02 -0.29819691925E+02 -0.26977291725E+03  0.29900863775E+03  0.12500000000E+03 0.  0.
          2    1    1    2  501    0  0.21669051466E+02 -0.26916222184E+02  0.29674484962E+03  0.29874995662E+03  0.00000000000E+00 0. -1.
          1    1    1    2  502    0 -0.32370665304E+02  0.56735914108E+02 -0.10146127138E+04  0.10167132256E+04  0.00000000000E+00 0. -1.
<mgrwt>
<rscale>  0 0.46670780E+02</rscale>
<asrwt>0</asrwt>
<pdfrwt beam="2">  1        2 0.20016251E+00 0.63035087E+02</pdfrwt>
<pdfrwt beam="1">  1        1 0.48217772E-01 0.34554751E+02</pdfrwt>
<totfact> 0.21996906E+02</totfact>
</mgrwt>
</event>
<event>
 5    1  0.8459321E-003  0.6975919E+02  0.7546771E-02  0.1363157E+00
          1   -1    0    0  501    0 -0.00000000000E+00  0.00000000000E+00  0.33871088745E+03  0.33871088745E+03  0.00000000000E+00 0. -1.
          2   -1    0    0  502    0  0.00000000000E+00 -0.00000000000E+00 -0.96874051245E+02  0.96874051245E+02  0.00000000000E+00 0. -1.
         25    1    1    2    0    0  0.83168605951E+02 -0.21242102281E+01  0.13434194860E+03  0.20148024330E+03  0.12500000000E+03 0.  0.
          2    1    1    2  501    0 -0.43831367247E+02  0.58154979098E+02  0.14038812624E+03  0.15815187744E+03  0.00000000000E+00 0. -1.
          1    1    1    2  502    0 -0.39337238703E+02 -0.56030768870E+02 -0.32893238631E+02  0.75952817964E+02  0.00000000000E+00 0. -1.
<mgrwt>
<rscale>  0 0.69106887E+02</rscale>
<asrwt>0</asrwt>
<pdfrwt beam="2">  1        2 0.14903700E-01 0.68460685E+02</pdfrwt>
<pdfrwt beam="1">  1        1 0.52109367E-01 0.69759188E+02</pdfrwt>
<totfact> 0.37755441E+03</totfact>
</mgrwt>
</event>
<event>
 5    1  0.8459321E-003  0.1086809E+03  0.7546771E-02  0.1364645E+00
          1   -1    0    0  501    0 -0.00000000000E+00  0.00000000000E+00  0.14014850779E+04  0.14014850779E+04  0.00000000000E+00 0. -1.
          2   -1    0    0  502    0  0.00000000000E+00 -0.00000000000E+00 -0.22651376838E+03  0.22651376838E+03  0.00000000000E+00 0. -1.
         25    1    1    2    0    0 -0.83240320087E+02 -0.39448042172E+02 -0.91811374878E+02  0.18038688277E+03  0.12500000000E+03 0.  0.
          2    1    1    2  501    0 -0.41120137046E+02  0.13881848887E+02  0.13120908767E+04  0.13128084553E+04  0.00000000000E+00 0. -1.
          1    1    1    2  502    0  0.12436045713E+03  0.25566193285E+02 -0.45308192352E+02  0.13480350823E+03  0.00000000000E+00 0. -1.
<mgrwt>
<rscale>  0 0.68678698E+02</rscale>
<asrwt>0</asrwt>
<pdfrwt beam="2">  1        2 0.34848273E-01 0.10868086E+03</pdfrwt>
<pdfrwt beam="1">  1        1 0.21561308E+00 0.43400131E+02</pdfrwt>
<totfact> 0.19674969E+02</totfact>
</mgrwt>
</event>
<event>
 5    1  0.8459321E-003  0.1715797E+03  0.7546771E-02  0.1288236E+00
          1   -1    0    0  501    0 -0.00000000000E+00  0.00000000000E+00  0.75033140949E+03  0.75033140949E+03  0.00000000000E+00 0. -1.
          2   -1    0    0  502    0  0.00000000000E+00 -0.00000000000E+00 -0.11591178586E+04  0.11591178586E+04  0.00000000000E+00 0. -1.
         25    1    1    2    0    0 -0.15123095260E+03  0.11155911203E+03  0.43623491828E+02  0.22987876270E+03  0.12500000000E+03 0.  0.
          2    1    1    2  501    0  0.47986846251E+02  0.24913337558E+02  0.60550007490E+03  0.60790932918E+03  0.00000000000E+00 0. -1.
          1    1    1    2  502    0  0.10324410635E+03 -0.13647244959E+03 -0.10579100158E+04  0.10716611762E+04  0.00000000000E+00 0. -1.
<mgrwt>
<rscale>  0 0.96317556E+02</rscale>
<asrwt>0</asrwt>
<pdfrwt beam="2">  1        2 0.17832582E+00 0.17157970E+03</pdfrwt>
<pdfrwt beam="1">  1        1 0.11543560E+00 0.54068584E+02</pdfrwt>
<totfact> 0.81463861E+01</totfact>
</mgrwt>
</event>
<event>
 5    1  0.8459321E-003  0.1222754E+03  0.7546771E-02  0.1318486E+00
          1   -1    0    0  501    0 -0.00000000000E+00  0.00000000000E+00  0.13210406885E+03  0.13210406885E+03  0.00000000000E+00 0. -1.
          2   -1    0    0  502    0  0.00000000000E+00 -0.00000000000E+00 -0.74015057124E+03  0.74015057124E+03  0.00000000000E+00 0. -1.
         25    1    1    2    0    0  0.67733767157E+02 -0.87860126966E+02 -0.96587763485E+02  0.19303228015E+03  0.12500000000E+03 0.  0.
          2    1    1    2  501    0 -0.45221138801E+02 -0.35499573115E+02  0.66448592429E+02  0.87866868168E+02  0.00000000000E+00 0. -1.
          1    1    1    2  502    0 -0.22512628356E+02  0.12335970008E+03 -0.57790733134E+03  0.59135549177E+03  0.00000000000E+00 0. -1.
<mgrwt>
<rscale>  0 0.83843249E+02</rscale>
<asrwt>0</asrwt>
<pdfrwt beam="2">  1        2 0.11386932E+00 0.12227544E+03</pdfrwt>
<pdfrwt beam="1">  1        1 0.20323703E-01 0.57490617E+02</pdfrwt>
<totfact> 0.12978404E+03</totfact>
</mgrwt>
</event>
<event>
 5    1  0.8459321E-003  0.5970047E+02  0.7546771E-02  0.1542906E+00
          2   -1    0    0  502    0  0.00000000000E+00  0.00000000000E+00  0.35236150405E+03  0.35236150405E+03  0.00000000000E+00 0. -1.
          1   -1    0    0  501    0 -0.00000000000E+00 -0.00000000000E+00 -0.11188078321E+04  0.11188078321E+04  0.00000000000E+00 0. -1.
         25    1    1    2    0    0 -0.55011706440E+01  0.46297429162E+02 -0.14699847530E+03  0.19851263578E+03  0.12500000000E+03 0.  0.
          2    1    1    2  501    0  0.25000696475E+02 -0.54838233296E+02 -0.94474416724E+03  0.94666457005E+03  0.00000000000E+00 0. -1.
          1    1    1    2  502    0 -0.19499525831E+02  0.85408041334E+01  0.32529631447E+03  0.32599213035E+03  0.00000000000E+00 0. -1.
<mgrwt>
<rscale>  0 0.35649693E+02</rscale>
<asrwt>0</asrwt>
<pdfrwt beam="1">  1        2 0.54209462E-01 0.21287951E+02</pdfrwt>
<pdfrwt beam="2">  1        1 0.17212428E+00 0.59700467E+02</pdfrwt>
<totfact> 0.18146039E+02</totfact>
</mgrwt>
</event>
<event>
 5    1  0.8459321E-003  0.1196470E+03  0.7546771E-02  0.1367002E+00
          2   -1    0    0  502    0  0.00000000000E+00  0.00000000000E+00  0.52941818162E+03  0.52941818162E+03  0.00000000000E+00 0. -1.
          1   -1    0    0  501    0 -0.00000000000E+00 -0.00000000000E+00 -0.28827430062E+03  0.28827430062E+03  0.00000000000E+00 0. -1.
         25    1    1    2    0    0 -0.11276473606E+03  0.10149006674E+03  0.31482881982E+02  0.19907860559E+03  0.12500000000E+03 0.  0.
          2    1    1    2  501    0  0.36197600543E+02 -0.13565232847E+02 -0.19432904114E+03  0.19813646322E+03  0.00000000000E+00 0. -1.
          1    1    1    2  502    0  0.76567135522E+02 -0.87924833891E+02  0.40399004015E+03  0.42047741343E+03  0.00000000000E+00 0. -1.
<mgrwt>
<rscale>  0 0.68007852E+02</rscale>
<asrwt>0</asrwt>
<pdfrwt beam="1">  1        2 0.81448951E-01 0.11964701E+03</pdfrwt>
<pdfrwt beam="2">  1        1 0.44349893E-01 0.38655942E+02</pdfrwt>
<totfact> 0.73897616E+02</totfact>
</mgrwt>
</event>
<event>
 5    1  0.8459321E-003  0.4585782E+02  0.7546771E-02  0.1473517E+00
         -2   -1    0    0    0  501 -0.00000000000E+00  0.00000000000E+00  0.22994573808E+03  0.22994573808E+03  0.00000000000E+00 0.  1.
          2   -1    0    0  502    0  0.00000000000E+00 -0.00000000000E+00 -0.20656955372E+04  0.20656955372E+04  0.00000000000E+00 0. -1.
         25    1    1    2    0    0  0.10556797298E+01 -0.15810531215E+02  0.10699110318E+02  0.12645377938E+03  0.12500000000E+03 0.  0.
          1    1    1    2  502    0  0.44414901410E+02 -0.54572426521E+00 -0.20039489355E+04  0.20044411484E+04  0.00000000000E+00 0. -1.
         -1    1    1    2    0  501 -0.45470581140E+02  0.16356255480E+02  0.15750002601E+03  0.16474634757E+03  0.00000000000E+00 0.  1.
<mgrwt>
<rscale>  0 0.45132299E+02</rscale>
<asrwt>0</asrwt>
<pdfrwt beam="2">  1        2 0.31779930E+00 0.44418254E+02</pdfrwt>
<pdfrwt beam="1">  1       -2 0.35376269E-01 0.45857823E+02</pdfrwt>
<totfact> 0.62336519E+01</totfact>
</mgrwt>
</event>
<event>
 5    1  0.8459321E-003  0.5478844E+02  0.7546771E-02  0.1430823E+00
          1   -1    0    0  502    0  0.00000000000E+00  0.00000000000E+00  0.57104298724E+03  0.57104298724E+03  0.00000000000E+00 0. -1.
         -1   -1    0    0    0  501 -0.00000000000E+00 -0.00000000000E+00 -0.37171274643E+03  0.37171274643E+03  0.00000000000E+00 0.  1.
         25    1    1    2    0    0 -0.13045232609E+02 -0.62654875671E+01  0.16534055887E+03  0.20777857164E+03  0.12500000000E+03 0.  0.
          2    1    1    2  502    0 -0.29979975946E+02  0.41102295889E+02  0.38059419922E+03  0.38397935122E+03  0.00000000000E+00 0. -1.
         -2    1    1    2    0  501  0.43025208554E+02 -0.34836808322E+02 -0.34660451728E+03  0.35099781080E+03  0.00000000000E+00 0.  1.
<mgrwt>
<rscale>  0 0.52795126E+02</rscale>
<asrwt>0</asrwt>
<pdfrwt beam="1">  1        1 0.87852767E-01 0.50874332E+02</pdfrwt>
<pdfrwt beam="2">  1       -1 0.57186576E-01 0.54788441E+02</pdfrwt>
<totfact> 0.13058777E+02</totfact>
</mgrwt>
</event>
<event>
 5    1  0.8459321E-003  0.3657982E+02  0.7546771E-02  0.1589399E+00
          2   -1    0    0  502    0  0.00000000000E+00  0.00000000000E+00  0.76598308493E+03  0.76598308493E+03  0.00000000000E+00 0. -1.
          1   -1    0    0  501    0 -0.00000000000E+00 -0.00000000000E+00 -0.55461591817E+03  0.55461591817E+03  0.00000000000E+00 0. -1.
         25    1    1    2    0    0  0.56627132896E+02 -0.21645551546E+02  0.11298898627E+02  0.13938374077E+03  0.12500000000E+03 0.  0.
          2    1    1    2  501    0 -0.35857462856E+02  0.61130098889E+01 -0.48965516516E+03  0.49100438623E+03  0.00000000000E+00 0. -1.
          1    1    1    2  502    0 -0.20769670039E+02  0.15532541657E+02  0.68972343329E+03  0.69021087609E+03  0.00000000000E+00 0. -1.
<mgrwt>
<rscale>  0 0.30801107E+02</rscale>
<asrwt>0</asrwt>
<pdfrwt beam="1">  1        2 0.11784355E+00 0.25935286E+02</pdfrwt>
<pdfrwt beam="2">  1        1 0.85325526E-01 0.36579823E+02</pdfrwt>
<totfact> 0.23151966E+02</totfact>
</mgrwt>
</event>
<event>
 5    1  0.8459321E-003  0.6155608E+02  0.7546771E-02  0.1456195E+00
          2   -1    0    0  502    0  0.00000000000E+00  0.00000000000E+00  0.65751268768E+03  0.65751268768E+03  0.00000000000E+00 0. -1.
          1   -1    0    0  501    0 -0.00000000000E+00 -0.00000000000E+00 -0.12530257213E+03  0.12530257213E+03  0.00000000000E+00 0. -1.
         25    1    1    2    0    0  0.38012462251E+02 -0.64407194764E+02  0.44279879423E+03  0.46614268866E+03  0.12500000000E+03 0.  0.
          2    1    1    2  501    0 -0.63063880595E+00  0.61488772474E+02 -0.10337076772E+03  0.12027793840E+03  0.00000000000E+00 0. -1.
          1    1    1    2  502    0 -0.37381823445E+02  0.29184222900E+01  0.19278208905E+03  0.19639463274E+03  0.00000000000E+00 0. -1.
<mgrwt>
<rscale>  0 0.48042485E+02</rscale>
<asrwt>0</asrwt>
<pdfrwt beam="1">  1        2 0.10115580E+00 0.37495572E+02</pdfrwt>
<pdfrwt beam="2">  1        1 0.19277319E-01 0.61556077E+02</pdfrwt>
<totfact> 0.16490771E+03</totfact>
</mgrwt>
</event>
<event>
 5    1  0.8459321E-003  0.5647242E+02  0.7546771E-02  0.1500188E+00
          2   -1    0    0  502    0  0.00000000000E+00  0.00000000000E+00  0.67120803006E+02  0.67120803006E+02  0.00000000000E+00 0. -1.
          1   -1    0    0  501    0 -0.00000000000E+00 -0.00000000000E+00 -0.48811627015E+03  0.48811627015E+03  0.00000000000E+00 0. -1.
         25    1    1    2    0    0 -0.11010653406E+02  0.55057540146E+02 -0.11452242855E+03  0.17858598449E+03  0.12500000000E+03 0.  0.
          2    1    1    2  501    0 -0.18893135191E+02 -0.53834481985E+02 -0.33227376609E+03  0.33713640806E+03  0.00000000000E+00 0. -1.
          1    1    1    2  502    0  0.29903788597E+02 -0.12230581610E+01  0.25800727499E+02  0.39514680604E+02  0.00000000000E+00 0. -1.
<mgrwt>
<rscale>  0 0.41111447E+02</rscale>
<asrwt>0</asrwt>
<pdfrwt beam="1">  1        2 0.10326278E-01 0.29928790E+02</pdfrwt>
<pdfrwt beam="2">  1        1 0.75094809E-01 0.56472417E+02</pdfrwt>
<totfact> 0.34851695E+03</totfact>
</mgrwt>
</event>
<event>
 5    1  0.8459321E-003  0.3928085E+02  0.7546771E-02  0.1535024E+00
         -2   -1    0    0    0  501 -0.00000000000E+00  0.00000000000E+00  0.12993002428E+03  0.12993002428E+03  0.00000000000E+00 0.  1.
          2   -1    0    0  502    0  0.00000000000E+00 -0.00000000000E+00 -0.15371405575E+03  0.15371405575E+03  0.00000000000E+00 0. -1.
         25    1    1    2    0    0  0.16439629605E+02  0.70712493489E+01  0.29079723751E+02  0.12957968329E+03  0.12500000000E+03 0.  0.
          1    1    1    2  502    0  0.11723417337E+01  0.34039588487E+02 -0.89810990019E+02  0.96052495531E+02  0.00000000000E+00 0. -1.
         -1    1    1    2    0  501 -0.17611971339E+02 -0.41110837836E+02  0.36947234800E+02  0.58011901205E+02  0.00000000000E+00 0.  1.
<mgrwt>
<rscale>  0 0.36577273E+02</rscale>
<asrwt>0</asrwt>
<pdfrwt beam="2">  1        2 0.23648316E-01 0.34059771E+02</pdfrwt>
<pdfrwt beam="1">  1       -2 0.19989235E-01 0.39280854E+02</pdfrwt>
<totfact> 0.41598633E+03</totfact>
</mgrwt>
</event>
<event>
 5    1  0.8459321E-003  0.1215048E+03  0.7546771E-02  0.1356850E+00
          2   -1    0    0  502    0  0.00000000000E+00  0.00000000000E+00  0.64019345174E+03  0.64019345174E+03  0.00000000000E+00 0. -1.
         -2   -1    0    0    0  501 -0.00000000000E+00 -0.00000000000E+00 -0.11959762945E+03  0.11959762945E+03  0.00000000000E+00 0.  1.
         25    1    1    2    0    0 -0.67126970922E+02  0.14381619157E+03  0.31274132800E+03  0.37231876856E+03  0.12500000000E+03 0.  0.
          1    1    1    2  502    0  0.17854253007E+02 -0.37401484852E+02  0.25700134386E+03  0.26032160142E+03  0.00000000000E+00 0. -1.
         -1    1    1    2    0  501  0.49272717915E+02 -0.10641470672E+03 -0.49146849581E+02  0.12715071121E+03  0.00000000000E+00 0.  1.
<mgrwt>
<rscale>  0 0.70962699E+02</rscale>
<asrwt>0</asrwt>
<pdfrwt beam="1">  1        2 0.98491298E-01 0.41444486E+02</pdfrwt>
<pdfrwt beam="2">  1       -2 0.18399636E-01 0.12150482E+03</pdfrwt>
<totfact> 0.11588179E+03</totfact>
</mgrwt>
</event>
<event>
 5    1  0.8459321E-003  0.7165137E+02  0.7546771E-02  0.1399912E+00
         -2   -1    0    0    0  501  0.00000000000E+00  0.00000000000E+00  0.69744194861E+03  0.69744194861E+03  0.00000000000E+00 0.  1.
         -1   -1    0    0    0  502 -0.00000000000E+00 -0.00000000000E+00 -0.11566358012E+04  0.11566358012E+04  0.00000000000E+00 0.  1.
         25    1    1    2    0    0 -0.32339047345E+02  0.70550797226E+01  0.11828650855E+03  0.17524921180E+03  0.12500000000E+03 0.  0.
         -2    1    1    2    0  502 -0.24095194999E+02  0.43149518322E+02 -0.11250192423E+04  0.11261042380E+04  0.00000000000E+00 0.  1.
         -1    1    1    2    0  501  0.56434242344E+02 -0.50204598044E+02  0.54753888118E+03  0.55272429997E+03  0.00000000000E+00 0.  1.
<mgrwt>
<rscale>  0 0.59507141E+02</rscale>
<asrwt>0</asrwt>
<pdfrwt beam="1">  1       -2 0.10729876E+00 0.71651369E+02</pdfrwt>
<pdfrwt beam="2">  1       -1 0.17794397E+00 0.49421244E+02</pdfrwt>
<totfact> 0.15373676E+00</totfact>
</mgrwt>
</event>
<event>
 5    1  0.8459321E-003  0.1903722E+03  0.7546771E-02  0.1169417E+00
          1   -1    0    0  501    0 -0.00000000000E+00  0.00000000000E+00  0.16543822631E+04  0.16543822631E+04  0.00000000000E+00 0. -1.
          2   -1    0    0  502    0  0.00000000000E+00 -0.00000000000E+00 -0.15426477325E+04  0.15426477325E+04  0.00000000000E+00 0. -1.
         25    1    1    2    0    0 -0.13509087237E+03 -0.81359193190E+02  0.18997885783E+03  0.27674144709E+03  0.12500000000E+03 0.  0.
          2    1    1    2  501    0  0.12450308306E+03 -0.11140958208E+03  0.14098541841E+04  0.14197189627E+04  0.00000000000E+00 0. -1.
          1    1    1    2  502    0  0.10587789311E+02  0.19276877527E+03 -0.14880985114E+04  0.15005695858E+04  0.00000000000E+00 0. -1.
<mgrwt>
<rscale>  0 0.17834208E+03</rscale>
<asrwt>0</asrwt>
<pdfrwt beam="2">  1        2 0.23733042E+00 0.19037219E+03</pdfrwt>
<pdfrwt beam="1">  1        1 0.25452035E+00 0.16707218E+03</pdfrwt>
<totfact> 0.10906210E+01</totfact>
</mgrwt>
</event>
<event>
 5    1  0.8459321E-003  0.1098832E+03  0.7546771E-02  0.1390052E+00
          2   -1    0    0  502    0  0.00000000000E+00  0.00000000000E+00  0.55870493461E+03  0.55870493461E+03  0.00000000000E+00 0. -1.
          1   -1    0    0  501    0 -0.00000000000E+00 -0.00000000000E+00 -0.12934026979E+04  0.12934026979E+04  0.00000000000E+00 0. -1.
         25    1    1    2    0    0  0.15814644812E+02  0.97026163839E+02 -0.89842861152E+03  0.91239418535E+03  0.12500000000E+03 0.  0.
          2    1    1    2  501    0 -0.40249520086E+02 -0.12189290170E+03 -0.37679690552E+03  0.39806257217E+03  0.00000000000E+00 0. -1.
          1    1    1    2  502    0  0.24434875274E+02  0.24866737865E+02  0.54052775376E+03  0.54165087498E+03  0.00000000000E+00 0. -1.
<mgrwt>
<rscale>  0 0.61893780E+02</rscale>
<asrwt>0</asrwt>
<pdfrwt beam="1">  1        2 0.85954606E-01 0.34862842E+02</pdfrwt>
<pdfrwt beam="2">  1        1 0.19898503E+00 0.10988318E+03</pdfrwt>
<totfact> 0.82888439E+01</totfact>
</mgrwt>
</event>
<event>
 5    1  0.8459321E-003  0.5923754E+02  0.7546771E-02  0.1403742E+00
          1   -1    0    0  501    0 -0.00000000000E+00  0.00000000000E+00  0.80584282837E+03  0.80584282837E+03  0.00000000000E+00 0. -1.
          2   -1    0    0  502    0  0.00000000000E+00 -0.00000000000E+00 -0.14821552145E+03  0.14821552145E+03  0.00000000000E+00 0. -1.
         25    1    1    2    0    0 -0.95529761036E+02  0.37088424779E+02  0.42442376191E+03  0.45416078229E+03  0.12500000000E+03 0.  0.
          2    1    1    2  501    0  0.37225779934E+02 -0.44473755617E+02  0.35762354981E+03  0.36229584183E+03  0.00000000000E+00 0. -1.
          1    1    1    2  502    0  0.58303981102E+02  0.73853308377E+01 -0.12442000480E+03  0.13760172571E+03  0.00000000000E+00 0. -1.
<mgrwt>
<rscale>  0 0.58614083E+02</rscale>
<asrwt>0</asrwt>
<pdfrwt beam="2">  1        2 0.22802388E-01 0.59237542E+02</pdfrwt>
<pdfrwt beam="1">  1        1 0.12397582E+00 0.57997186E+02</pdfrwt>
<totfact> 0.76267227E+02</totfact>
</mgrwt>
</event>
<event>
 5    1  0.8459321E-003  0.6919578E+02  0.7546771E-02  0.1470568E+00
          1   -1    0    0  501    0 -0.00000000000E+00  0.00000000000E+00  0.37586566004E+03  0.37586566004E+03  0.00000000000E+00 0. -1.
          2   -1    0    0  502    0  0.00000000000E+00 -0.00000000000E+00 -0.64002663503E+02  0.64002663503E+02  0.00000000000E+00 0. -1.
         25    1    1    2    0    0 -0.35130369664E+02 -0.60795766643E+02  0.30121584956E+03  0.33359594743E+03  0.12500000000E+03 0.  0.
          2    1    1    2  501    0  0.58223603675E+02  0.41546337567E+02  0.20884250344E+02  0.74513341776E+02  0.00000000000E+00 0. -1.
          1    1    1    2  502    0 -0.23093234011E+02  0.19249429076E+02 -0.10237103367E+02  0.31759034339E+02  0.00000000000E+00 0. -1.
<mgrwt>
<rscale>  0 0.45610249E+02</rscale>
<asrwt>0</asrwt>
<pdfrwt beam="2">  1        2 0.98465638E-02 0.30063898E+02</pdfrwt>
<pdfrwt beam="1">  1        1 0.57825485E-01 0.69195778E+02</pdfrwt>
<totfact> 0.50741024E+03</totfact>
</mgrwt>
</event>
<event>
 5    1  0.8459321E-003  0.9119948E+02  0.7546771E-02  0.1387053E+00
          1   -1    0    0  501    0 -0.00000000000E+00  0.00000000000E+00  0.91234334986E+02  0.91234334986E+02  0.00000000000E+00 0. -1.
          2   -1    0    0  502    0  0.00000000000E+00 -0.00000000000E+00 -0.56656165663E+03  0.56656165663E+03  0.00000000000E+00 0. -1.
         25    1    1    2    0    0  0.70057832551E+02  0.48589270427E+00 -0.33423022478E+03  0.36365255279E+03  0.12500000000E+03 0.  0.
          2    1    1    2  501    0  0.43006037269E+02 -0.14897081709E+01  0.53757728777E+02  0.68859508242E+02  0.00000000000E+00 0. -1.
          1    1    1    2  502    0 -0.11306386982E+03  0.10038154666E+01 -0.19485482564E+03  0.22528393059E+03  0.00000000000E+00 0. -1.
<mgrwt>
<rscale>  0 0.62645674E+02</rscale>
<asrwt>0</asrwt>
<pdfrwt beam="2">  1        2 0.87163332E-01 0.91199476E+02</pdfrwt>
<pdfrwt beam="1">  1        1 0.14036052E-01 0.43031831E+02</pdfrwt>
<totfact> 0.27761542E+03</totfact>
</mgrwt>
</event>
<event>
 5    1  0.8459321E-003  0.8620803E+02  0.7546771E-02  0.1329384E+00
          2   -1    0    0  502    0  0.00000000000E+00  0.00000000000E+00  0.99054564761E+02  0.99054564761E+02  0.00000000000E+00 0. -1.
          1   -1    0    0  501    0 -0.00000000000E+00 -0.00000000000E+00 -0.13460308900E+04  0.13460308900E+04  0.00000000000E+00 0. -1.
         25    1    1    2    0    0 -0.18767243382E+02 -0.60019988009E+02 -0.19140427379E+03  0.23709745762E+03  0.12500000000E+03 0.  0.
          2    1    1    2  501    0 -0.68190644921E+02  0.28797896525E+02 -0.11020707475E+04  0.11045538535E+04  0.00000000000E+00 0. -1.
          1    1    1    2  502    0  0.86957888303E+02  0.31222091484E+02  0.46498696021E+02  0.10343414362E+03  0.00000000000E+00 0. -1.
<mgrwt>
<rscale>  0 0.79883077E+02</rscale>
<asrwt>0</asrwt>
<pdfrwt beam="1">  1        2 0.15239165E-01 0.86208027E+02</pdfrwt>
<pdfrwt beam="2">  1        1 0.20708166E+00 0.74022178E+02</pdfrwt>
<totfact> 0.50177617E+02</totfact>
</mgrwt>
</event>
<event>
 5    1  0.8459321E-003  0.7258164E+02  0.7546771E-02  0.1428927E+00
          1   -1    0    0  501    0 -0.00000000000E+00  0.00000000000E+00  0.23217528345E+04  0.23217528345E+04  0.00000000000E+00 0. -1.
          2   -1    0    0  502    0  0.00000000000E+00 -0.00000000000E+00 -0.11077898120E+04  0.11077898120E+04  0.00000000000E+00 0. -1.
         25    1    1    2    0    0 -0.84898494080E+00 -0.39857959509E+02  0.21867917831E+02  0.13301347128E+03  0.12500000000E+03 0.  0.
          2    1    1    2  501    0  0.28733280001E+02  0.67065492506E+02  0.22433582397E+04  0.22445444021E+04  0.00000000000E+00 0. -1.
          1    1    1    2  502    0 -0.27884295060E+02 -0.27207532997E+02 -0.10512631350E+04  0.10519847731E+04  0.00000000000E+00 0. -1.
<mgrwt>
<rscale>  0 0.53176025E+02</rscale>
<asrwt>0</asrwt>
<pdfrwt beam="2">  1        2 0.17042920E+00 0.38958744E+02</pdfrwt>
<pdfrwt beam="1">  1        1 0.35719274E+00 0.72581643E+02</pdfrwt>
<totfact> 0.86513778E+00</totfact>
</mgrwt>
</event>
<event>
 5    1  0.8459321E-003  0.6595026E+02  0.7546771E-02  0.1400883E+00
          2   -1    0    0  502    0  0.00000000000E+00  0.00000000000E+00  0.27962770075E+04  0.27962770075E+04  0.00000000000E+00 0. -1.
          1   -1    0    0  501    0 -0.00000000000E+00 -0.00000000000E+00 -0.10652830279E+03  0.10652830279E+03  0.00000000000E+00 0. -1.
         25    1    1    2    0    0 -0.20557205251E+02  0.12430140618E+02  0.28923173094E+03  0.31600174251E+03  0.12500000000E+03 0.  0.
          2    1    1    2  501    0 -0.45203109247E+02 -0.28208113694E+02 -0.85025543957E+02  0.10034122726E+03  0.00000000000E+00 0. -1.
          1    1    1    2  502    0  0.65760314498E+02  0.15777973076E+02  0.24855425178E+04  0.24864623405E+04  0.00000000000E+00 0. -1.
<mgrwt>
<rscale>  0 0.59278925E+02</rscale>
<asrwt>0</asrwt>
<pdfrwt beam="1">  1        2 0.43019641E+00 0.65950259E+02</pdfrwt>
<pdfrwt beam="2">  1        1 0.16388972E-01 0.53282443E+02</pdfrwt>
<totfact> 0.14205664E+02</totfact>
</mgrwt>
</event>
<event>
 5    1  0.8459321E-003  0.8350519E+02  0.7546771E-02  0.1467559E+00
          2   -1    0    0  502    0  0.00000000000E+00  0.00000000000E+00  0.28388543873E+03  0.28388543873E+03  0.00000000000E+00 0. -1.
          1   -1    0    0  501    0 -0.00000000000E+00 -0.00000000000E+00 -0.13306054101E+04  0.13306054101E+04  0.00000000000E+00 0. -1.
         25    1    1    2    0    0  0.85176856565E+02  0.91956395435E+01 -0.35657020332E+03  0.38743640327E+03  0.12500000000E+03 0.  0.
          2    1    1    2  501    0 -0.32013233085E+01 -0.25253485967E+02 -0.95192962526E+03  0.95226991892E+03  0.00000000000E+00 0. -1.
          1    1    1    2  502    0 -0.81975533256E+02  0.16057846423E+02  0.26177985718E+03  0.27478452669E+03  0.00000000000E+00 0. -1.
<mgrwt>
<rscale>  0 0.46105032E+02</rscale>
<asrwt>0</asrwt>
<pdfrwt beam="1">  1        2 0.43674681E-01 0.83505195E+02</pdfrwt>
<pdfrwt beam="2">  1        1 0.20470853E+00 0.25455589E+02</pdfrwt>
<totfact> 0.18043361E+02</totfact>
</mgrwt>
</event>
<event>
 5    1  0.8459321E-003  0.3922088E+02  0.7546771E-02  0.1558913E+00
         -1   -1    0    0    0  501 -0.00000000000E+00  0.00000000000E+00  0.74975153197E+03  0.74975153197E+03  0.00000000000E+00 0.  1.
          1   -1    0    0  502    0  0.00000000000E+00 -0.00000000000E+00 -0.18833430400E+03  0.18833430400E+03  0.00000000000E+00 0. -1.
         25    1    1    2    0    0  0.49488392015E+02  0.24539857382E+02 -0.17634256880E+02  0.13779431251E+03  0.12500000000E+03 0.  0.
          2    1    1    2  502    0 -0.10427022032E+02 -0.27318921750E+02 -0.10812038152E+03  0.11200474621E+03  0.00000000000E+00 0. -1.
         -2    1    1    2    0  501 -0.39061369982E+02  0.27790643676E+01  0.68717186636E+03  0.68828677725E+03  0.00000000000E+00 0.  1.
<mgrwt>
<rscale>  0 0.33865389E+02</rscale>
<asrwt>0</asrwt>
<pdfrwt beam="2">  1        1 0.28974509E-01 0.29241174E+02</pdfrwt>
<pdfrwt beam="1">  1       -1 0.11534639E+00 0.39220878E+02</pdfrwt>
<totfact> 0.12170875E+02</totfact>
</mgrwt>
</event>
<event>
 5    1  0.8459321E-003  0.3339198E+03  0.7546771E-02  0.1266386E+00
          1   -1    0    0  501    0 -0.00000000000E+00  0.00000000000E+00  0.78615366834E+03  0.78615366834E+03  0.00000000000E+00 0. -1.
          2   -1    0    0  502    0  0.00000000000E+00 -0.00000000000E+00 -0.37635282673E+03  0.37635282673E+03  0.00000000000E+00 0. -1.
         25    1    1    2    0    0 -0.24947461522E+03 -0.21280345980E+03  0.48638687377E+03  0.59976669391E+03  0.12500000000E+03 0.  0.
          2    1    1    2  501    0  0.24536227819E+03  0.24678965522E+03  0.11623468295E+03  0.36690364267E+03  0.00000000000E+00 0. -1.
          1    1    1    2  502    0  0.41123370283E+01 -0.33986195428E+02 -0.19282071512E+03  0.19583615850E+03  0.00000000000E+00 0. -1.
<mgrwt>
<rscale>  0 0.10691792E+03</rscale>
<asrwt>0</asrwt>
<pdfrwt beam="2">  1        2 0.57900435E-01 0.34234088E+02</pdfrwt>
<pdfrwt beam="1">  1        1 0.12094672E+00 0.33391985E+03</pdfrwt>
<totfact> 0.27454778E+02</totfact>
</mgrwt>
</event>
<event>
 5    1  0.8459321E-003  0.1214514E+03  0.7546771E-02  0.1388887E+00
          2   -1    0    0  502    0  0.00000000000E+00  0.00000000000E+00  0.90451354459E+03  0.90451354459E+03  0.00000000000E+00 0. -1.
          1   -1    0    0  501    0 -0.00000000000E+00 -0.00000000000E+00 -0.27780151757E+03  0.27780151757E+03  0.00000000000E+00 0. -1.
         25    1    1    2    0    0  0.77355060061E+02 -0.89900939580E+02 -0.90526453697E+02  0.19464332270E+03  0.12500000000E+03 0.  0.
          2    1    1    2  501    0  0.23352722656E+02  0.21642033726E+02 -0.12892937370E+03  0.13280252514E+03  0.00000000000E+00 0. -1.
          1    1    1    2  502    0 -0.10070778272E+03  0.68258905854E+02  0.84616785442E+03  0.85486921432E+03  0.00000000000E+00 0. -1.
<mgrwt>
<rscale>  0 0.62184406E+02</rscale>
<asrwt>0</asrwt>
<pdfrwt beam="1">  1        2 0.13915593E+00 0.12145137E+03</pdfrwt>
<pdfrwt beam="2">  1        1 0.42738695E-01 0.31839084E+02</pdfrwt>
<totfact> 0.40796064E+02</totfact>
</mgrwt>
</event>
<event>
 5    1  0.8459321E-003  0.2040120E+03  0.7546771E-02  0.1276770E+00
          1   -1    0    0  501    0 -0.00000000000E+00  0.00000000000E+00  0.23674812499E+03  0.23674812499E+03  0.00000000000E+00 0. -1.
          2   -1    0    0  502    0  0.00000000000E+00 -0.00000000000E+00 -0.16122718181E+04  0.16122718181E+04  0.00000000000E+00 0. -1.
         25    1    1    2    0    0 -0.12998942815E+03  0.10579883957E+03 -0.23915912466E+03  0.31766764518E+03  0.12500000000E+03 0.  0.
          2    1    1    2  501    0 -0.15956535839E+02  0.48116492497E+02  0.18564149472E+03  0.19243849004E+03  0.00000000000E+00 0. -1.
          1    1    1    2  502    0  0.14594596399E+03 -0.15391533207E+03 -0.13220060632E+04  0.13389138079E+04  0.00000000000E+00 0. -1.
<mgrwt>
<rscale>  0 0.10169579E+03</rscale>
<asrwt>0</asrwt>
<pdfrwt beam="2">  1        2 0.24804182E+00 0.20401198E+03</pdfrwt>
<pdfrwt beam="1">  1        1 0.36422789E-01 0.50693273E+02</pdfrwt>
<totfact> 0.19372868E+02</totfact>
</mgrwt>
</event>
<event>
 5    1  0.8459321E-003  0.1680152E+03  0.7546771E-02  0.1213739E+00
          2   -1    0    0  502    0  0.00000000000E+00  0.00000000000E+00  0.64045120242E+03  0.64045120242E+03  0.00000000000E+00 0. -1.
          1   -1    0    0  501    0 -0.00000000000E+00 -0.00000000000E+00 -0.28702175913E+03  0.28702175913E+03  0.00000000000E+00 0. -1.
         25    1    1    2    0    0 -0.24694491843E+03  0.10319104307E+03 -0.12770286122E+02  0.29566579835E+03  0.12500000000E+03 0.  0.
          2    1    1    2  501    0  0.11547255120E+03 -0.12520348808E+02 -0.90976886982E+02  0.14753800588E+03  0.00000000000E+00 0. -1.
          1    1    1    2  502    0  0.13147236723E+03 -0.90670694258E+02  0.45717661640E+03  0.48426915731E+03  0.00000000000E+00 0. -1.
<mgrwt>
<rscale>  0 0.13969560E+03</rscale>
<asrwt>0</asrwt>
<pdfrwt beam="1">  1        2 0.98530954E-01 0.16801525E+03</pdfrwt>
<pdfrwt beam="2">  1        1 0.44157194E-01 0.11614934E+03</pdfrwt>
<totfact> 0.59735603E+02</totfact>
</mgrwt>
</event>
<event>
 5    1  0.8459321E-003  0.1562506E+03  0.7546771E-02  0.1341032E+00
          2   -1    0    0  502    0  0.00000000000E+00  0.00000000000E+00  0.65817553768E+03  0.65817553768E+03  0.00000000000E+00 0. -1.
          1   -1    0    0  501    0 -0.00000000000E+00 -0.00000000000E+00 -0.13527587997E+04  0.13527587997E+04  0.00000000000E+00 0. -1.
         25    1    1    2    0    0  0.19182400681E+02  0.13817266885E+03 -0.69626784285E+03  0.72102257933E+03  0.12500000000E+03 0.  0.
          2    1    1    2  501    0 -0.49911220281E+01 -0.17222672919E+03 -0.63204510110E+03  0.65510912630E+03  0.00000000000E+00 0. -1.
          1    1    1    2  502    0 -0.14191278653E+02  0.34054060336E+02  0.63372968197E+03  0.63480263171E+03  0.00000000000E+00 0. -1.
<mgrwt>
<rscale>  0 0.75924359E+02</rscale>
<asrwt>0</asrwt>
<pdfrwt beam="1">  1        2 0.10125778E+00 0.36892701E+02</pdfrwt>
<pdfrwt beam="2">  1        1 0.20811674E+00 0.15625064E+03</pdfrwt>
<totfact> 0.61603326E+01</totfact>
</mgrwt>
</event>
<event>
 5    1  0.8459321E-003  0.6126205E+02  0.7546771E-02  0.1466239E+00
          2   -1    0    0  502    0  0.00000000000E+00  0.00000000000E+00  0.98446859155E+03  0.98446859155E+03  0.00000000000E+00 0. -1.
          1   -1    0    0  501    0 -0.00000000000E+00 -0.00000000000E+00 -0.27158744869E+02  0.27158744869E+02  0.00000000000E+00 0. -1.
         25    1    1    2    0    0 -0.26742197723E+02  0.58628951800E+02  0.38858713142E+03  0.41325229320E+03  0.12500000000E+03 0.  0.
          2    1    1    2  501    0 -0.81593156703E+01 -0.61615567476E+02  0.53630553106E+02  0.82093171543E+02  0.00000000000E+00 0. -1.
          1    1    1    2  502    0  0.34901513393E+02  0.29866156759E+01  0.51509216215E+03  0.51628187167E+03  0.00000000000E+00 0. -1.
<mgrwt>
<rscale>  0 0.46324427E+02</rscale>
<asrwt>0</asrwt>
<pdfrwt beam="1">  1        2 0.15145668E+00 0.35029067E+02</pdfrwt>
<pdfrwt beam="2">  1        1 0.41782692E-02 0.61262052E+02</pdfrwt>
<totfact> 0.74815806E+03</totfact>
</mgrwt>
</event>
<event>
 5    1  0.8459321E-003  0.2299008E+03  0.7546771E-02  0.1218051E+00
          1   -1    0    0  501    0 -0.00000000000E+00  0.00000000000E+00  0.22649173313E+03  0.22649173313E+03  0.00000000000E+00 0. -1.
          2   -1    0    0  502    0  0.00000000000E+00 -0.00000000000E+00 -0.14289309687E+04  0.14289309687E+04  0.00000000000E+00 0. -1.
         25    1    1    2    0    0  0.14288021985E+03  0.12613859140E+03 -0.50969152053E+02  0.23355632281E+03  0.12500000000E+03 0.  0.
          2    1    1    2  501    0 -0.24161858752E+02  0.77418951402E+02  0.11106719678E+03  0.13752603992E+03  0.00000000000E+00 0. -1.
          3    1    1    2  502    0 -0.11871836110E+03 -0.20355754280E+03 -0.12625372803E+04  0.12843403391E+04  0.00000000000E+00 0. -1.
<mgrwt>
<rscale>  0 0.13654797E+03</rscale>
<asrwt>0</asrwt>
<pdfrwt beam="2">  1        2 0.21983553E+00 0.22990076E+03</pdfrwt>
<pdfrwt beam="1">  1        1 0.34844883E-01 0.81101723E+02</pdfrwt>
<totfact> 0.25506034E+02</totfact>
</mgrwt>
</event>
<event>
 5    1  0.8459321E-003  0.9102129E+02  0.7546771E-02  0.1392877E+00
         -2   -1    0    0    0  501 -0.00000000000E+00  0.00000000000E+00  0.28769837129E+03  0.28769837129E+03  0.00000000000E+00 0.  1.
          2   -1    0    0  502    0  0.00000000000E+00 -0.00000000000E+00 -0.19191445653E+04  0.19191445653E+04  0.00000000000E+00 0. -1.
         25    1    1    2    0    0 -0.51189603852E+02  0.57840980534E+00 -0.42772069036E+03  0.44854286201E+03  0.12500000000E+03 0.  0.
          1    1    1    2  502    0 -0.39917643639E+02  0.99727952607E+01 -0.14731336250E+04  0.14737080959E+04  0.00000000000E+00 0. -1.
         -1    1    1    2    0  501  0.91107247491E+02 -0.10551205066E+02  0.26940812134E+03  0.28459197866E+03  0.00000000000E+00 0.  1.
<mgrwt>
<rscale>  0 0.61196659E+02</rscale>
<asrwt>0</asrwt>
<pdfrwt beam="2">  1        2 0.29525303E+00 0.41144561E+02</pdfrwt>
<pdfrwt beam="1">  1       -2 0.44261285E-01 0.91021292E+02</pdfrwt>
<totfact> 0.49352354E+01</totfact>
</mgrwt>
</event>
<event>
 5    1  0.8459321E-003  0.9259268E+02  0.7546771E-02  0.1355765E+00
          2   -1    0    0  502    0  0.00000000000E+00  0.00000000000E+00  0.22976515952E+03  0.22976515952E+03  0.00000000000E+00 0. -1.
          1   -1    0    0  501    0 -0.00000000000E+00 -0.00000000000E+00 -0.24311305107E+04  0.24311305107E+04  0.00000000000E+00 0. -1.
         25    1    1    2    0    0 -0.27361378413E+02  0.29719966432E+02  0.93284147963E+00  0.13136891423E+03  0.12500000000E+03 0.  0.
          2    1    1    2  501    0  0.45366878828E+02 -0.81568748165E+02 -0.23603609968E+04  0.23622056747E+04  0.00000000000E+00 0. -1.
          1    1    1    2  502    0 -0.18005500415E+02  0.51848781733E+02  0.15806280410E+03  0.16732108132E+03  0.00000000000E+00 0. -1.
<mgrwt>
<rscale>  0 0.71288566E+02</rscale>
<asrwt>0</asrwt>
<pdfrwt beam="1">  1        2 0.35348486E-01 0.54886193E+02</pdfrwt>
<pdfrwt beam="2">  1        1 0.37402008E+00 0.92592678E+02</pdfrwt>
<totfact> 0.39799533E+01</totfact>
</mgrwt>
</event>
<event>
 5    1  0.8459321E-003  0.1002020E+03  0.7546771E-02  0.1433669E+00
          3   -1    0    0  501    0 -0.00000000000E+00  0.00000000000E+00  0.29516535735E+02  0.29516535735E+02  0.00000000000E+00 0. -1.
          2   -1    0    0  502    0  0.00000000000E+00 -0.00000000000E+00 -0.23965702135E+04  0.23965702135E+04  0.00000000000E+00 0. -1.
         25    1    1    2    0    0 -0.92732643573E+02  0.30577841887E+02 -0.36564120889E+03  0.39856347203E+03  0.12500000000E+03 0.  0.
          2    1    1    2  501    0 -0.78264252945E+01 -0.26076095201E+02 -0.39315634651E+01  0.27507687382E+02  0.00000000000E+00 0. -1.
          1    1    1    2  502    0  0.10055906887E+03 -0.45017466866E+01 -0.19974809054E+04  0.20000155898E+04  0.00000000000E+00 0. -1.
<mgrwt>
<rscale>  0 0.52230520E+02</rscale>
<asrwt>0</asrwt>
<pdfrwt beam="2">  1        2 0.36870312E+00 0.10020200E+03</pdfrwt>
<pdfrwt beam="1">  1        3 0.45410053E-02 0.27225276E+02</pdfrwt>
<totfact> 0.60751956E+02</totfact>
</mgrwt>
</event>
<event>
 5    1  0.8459321E-003  0.7322908E+02  0.7546771E-02  0.1354267E+00
          1   -1    0    0  501    0 -0.00000000000E+00  0.00000000000E+00  0.31645249204E+02  0.31645249204E+02  0.00000000000E+00 0. -1.
          2   -1    0    0  502    0  0.00000000000E+00 -0.00000000000E+00 -0.18625013895E+04  0.18625013895E+04  0.00000000000E+00 0. -1.
         25    1    1    2    0    0 -0.72476547299E+01  0.18299488339E+02 -0.26593404610E+03  0.29450520649E+03  0.12500000000E+03 0.  0.
          2    1    1    2  501    0  0.69696889300E+02  0.22468680651E+02 -0.65147580812E+02  0.98013801447E+02  0.00000000000E+00 0. -1.
          1    1    1    2  502    0 -0.62449234570E+02 -0.40768168990E+02 -0.14997745134E+04  0.15016276308E+04  0.00000000000E+00 0. -1.
<mgrwt>
<rscale>  0 0.71742160E+02</rscale>
<asrwt>0</asrwt>
<pdfrwt beam="2">  1        2 0.28653878E+00 0.70285433E+02</pdfrwt>
<pdfrwt beam="1">  1        1 0.48684980E-02 0.73229079E+02</pdfrwt>
<totfact> 0.20964940E+03</totfact>
</mgrwt>
</event>
<event>
 5    1  0.8459321E-003  0.5832426E+02  0.7546771E-02  0.1468758E+00
          1   -1    0    0  501    0 -0.00000000000E+00  0.00000000000E+00  0.76603057748E+02  0.76603057748E+02  0.00000000000E+00 0. -1.
          2   -1    0    0  502    0  0.00000000000E+00 -0.00000000000E+00 -0.21499579625E+04  0.21499579625E+04  0.00000000000E+00 0. -1.
         25    1    1    2    0    0  0.18873094511E+02  0.24001751171E+02 -0.31118209928E+03  0.33673665775E+03  0.12500000000E+03 0.  0.
          2    1    1    2  501    0  0.36113369101E+02 -0.11953498313E+01  0.58186019833E+02  0.68492460849E+02  0.00000000000E+00 0. -1.
          1    1    1    2  502    0 -0.54986463612E+02 -0.22806401340E+02 -0.18203588253E+04  0.18213319017E+04  0.00000000000E+00 0. -1.
<mgrwt>
<rscale>  0 0.45906851E+02</rscale>
<asrwt>0</asrwt>
<pdfrwt beam="2">  1        2 0.33076276E+00 0.58324258E+02</pdfrwt>
<pdfrwt beam="1">  1        1 0.11785086E-01 0.36133147E+02</pdfrwt>
<totfact> 0.45917749E+02</totfact>
</mgrwt>
</event>
<event>
 5    1  0.8459321E-003  0.1716106E+03  0.7546771E-02  0.1383011E+00
         -2   -1    0    0    0  501 -0.00000000000E+00  0.00000000000E+00  0.12671629269E+04  0.12671629269E+04  0.00000000000E+00 0.  1.
          2   -1    0    0  502    0  0.00000000000E+00 -0.00000000000E+00 -0.96721451074E+03  0.96721451074E+03  0.00000000000E+00 0. -1.
         25    1    1    2    0    0  0.14449359026E+03 -0.12209087122E+03 -0.37434380077E+03  0.43765609745E+03  0.12500000000E+03 0.  0.
          1    1    1    2  502    0 -0.23621007274E+02  0.61922983918E+00 -0.55501996966E+03  0.55552272874E+03  0.00000000000E+00 0. -1.
         -1    1    1    2    0  501 -0.12087258298E+03  0.12147164138E+03  0.12293121865E+04  0.12411986114E+04  0.00000000000E+00 0.  1.
<mgrwt>
<rscale>  0 0.63678951E+02</rscale>
<asrwt>0</asrwt>
<pdfrwt beam="2">  1        2 0.14880223E+00 0.23629123E+02</pdfrwt>
<pdfrwt beam="1">  1       -2 0.19494814E+00 0.17161064E+03</pdfrwt>
<totfact> 0.50499384E+00</totfact>
</mgrwt>
</event>
<event>
 5    1  0.8459321E-003  0.4959701E+02  0.7546771E-02  0.1468884E+00
         -2   -1    0    0    0  501 -0.00000000000E+00  0.00000000000E+00  0.54193254849E+02  0.54193254849E+02  0.00000000000E+00 0.  1.
          2   -1    0    0  502    0  0.00000000000E+00 -0.00000000000E+00 -0.84622469240E+03  0.84622469240E+03  0.00000000000E+00 0. -1.
         25    1    1    2    0    0  0.85523289953E+02  0.24406456828E+02 -0.92301390116E+02  0.17903757951E+03  0.12500000000E+03 0.  0.
          1    1    1    2  502    0 -0.43095437202E+02 -0.22946369946E+02 -0.66428190043E+03  0.66607371652E+03  0.00000000000E+00 0. -1.
         -3    1    1    2    0  501 -0.42427852751E+02 -0.14600868818E+01 -0.35448147000E+02  0.55306651214E+02  0.00000000000E+00 0.  1.
<mgrwt>
<rscale>  0 0.45886165E+02</rscale>
<asrwt>0</asrwt>
<pdfrwt beam="2">  1        2 0.13018842E+00 0.49597007E+02</pdfrwt>
<pdfrwt beam="1">  1       -2 0.83374235E-02 0.42452969E+02</pdfrwt>
<totfact> 0.27246418E+03</totfact>
</mgrwt>
</event>
<event>
 5    1  0.8459321E-003  0.4958102E+02  0.7546771E-02  0.1489192E+00
         -1   -1    0    0    0  501 -0.00000000000E+00  0.00000000000E+00  0.83362237863E+02  0.83362237863E+02  0.00000000000E+00 0.  1.
          1   -1    0    0  502    0  0.00000000000E+00 -0.00000000000E+00 -0.14374165230E+04  0.14374165230E+04  0.00000000000E+00 0. -1.
         25    1    1    2    0    0 -0.58773184336E+02 -0.94385435622E+01 -0.18246155266E+03  0.22904277221E+03  0.12500000000E+03 0.  0.
          2    1    1    2  502    0  0.15282269705E+02  0.33459761119E+02 -0.12210667419E+04  0.12216206824E+04  0.00000000000E+00 0. -1.
         -2    1    1    2    0  501  0.43490914630E+02 -0.24021217556E+02  0.49474009511E+02  0.70115306213E+02  0.00000000000E+00 0.  1.
<mgrwt>
<rscale>  0 0.42706153E+02</rscale>
<asrwt>0</asrwt>
<pdfrwt beam="2">  1        1 0.22114101E+00 0.36784554E+02</pdfrwt>
<pdfrwt beam="1">  1       -1 0.12824959E-01 0.49581015E+02</pdfrwt>
<totfact> 0.35853586E+02</totfact>
</mgrwt>
</event>
<event>
 5    1  0.8459321E-003  0.4546564E+02  0.7546771E-02  0.1503707E+00
          2   -1    0    0  502    0  0.00000000000E+00  0.00000000000E+00  0.13139095909E+04  0.13139095909E+04  0.00000000000E+00 0. -1.
          1   -1    0    0  501    0 -0.00000000000E+00 -0.00000000000E+00 -0.13245941557E+03  0.13245941557E+03  0.00000000000E+00 0. -1.
         25    1    1    2    0    0  0.78918587178E+02 -0.17987588930E+02  0.27068748163E+03  0.30894726001E+03  0.12500000000E+03 0.  0.
          2    1    1    2  501    0 -0.44410940927E+02  0.67593878620E+01 -0.10854226573E+03  0.11747103664E+03  0.00000000000E+00 0. -1.
          1    1    1    2  502    0 -0.34507646251E+02  0.11228201068E+02  0.10193049594E+04  0.10199507098E+04  0.00000000000E+00 0. -1.
<mgrwt>
<rscale>  0 0.40618676E+02</rscale>
<asrwt>0</asrwt>
<pdfrwt beam="1">  1        2 0.20213993E+00 0.36288430E+02</pdfrwt>
<pdfrwt beam="2">  1        1 0.20378373E-01 0.45465644E+02</pdfrwt>
<totfact> 0.63520948E+02</totfact>
</mgrwt>
</event>
<event>
 5    1  0.8459321E-003  0.9730523E+02  0.7546771E-02  0.1317263E+00
          2   -1    0    0  502    0  0.00000000000E+00  0.00000000000E+00  0.28321443078E+03  0.28321443078E+03  0.00000000000E+00 0. -1.
         -2   -1    0    0    0  501 -0.00000000000E+00 -0.00000000000E+00 -0.11445660917E+04  0.11445660917E+04  0.00000000000E+00 0.  1.
         25    1    1    2    0    0 -0.87485326125E+02  0.13942226690E+03  0.97555821498E+02  0.22854843929E+03  0.12500000000E+03 0.  0.
          1    1    1    2  502    0  0.20380753958E+02 -0.70138964258E+02  0.10667993746E+03  0.12928827671E+03  0.00000000000E+00 0. -1.
         -1    1    1    2    0  501  0.67104572166E+02 -0.69283302641E+02 -0.10655874198E+04  0.10699438064E+04  0.00000000000E+00 0.  1.
<mgrwt>
<rscale>  0 0.84304087E+02</rscale>
<asrwt>0</asrwt>
<pdfrwt beam="1">  1        2 0.43571451E-01 0.73040054E+02</pdfrwt>
<pdfrwt beam="2">  1       -2 0.17608709E+00 0.97305229E+02</pdfrwt>
<totfact> 0.25552991E+01</totfact>
</mgrwt>
</event>
<event>
 5    1  0.8459321E-003  0.2627902E+02  0.7546771E-02  0.1655745E+00
          2   -1    0    0  502    0  0.00000000000E+00  0.00000000000E+00  0.23452844609E+04  0.23452844609E+04  0.00000000000E+00 0. -1.
         -2   -1    0    0    0  501 -0.00000000000E+00 -0.00000000000E+00 -0.15687061848E+02  0.15687061848E+02  0.00000000000E+00 0.  1.
         25    1    1    2    0    0  0.25730846967E+01  0.19166614708E+02  0.20387892856E+04  0.20427091646E+04  0.12500000000E+03 0.  0.
          1    1    1    2  502    0  0.23672536363E+02 -0.17842214954E+02  0.29047252451E+03  0.29198119992E+03  0.00000000000E+00 0. -1.
         -1    1    1    2    0  501 -0.26245621060E+02 -0.13243997539E+01  0.33558893116E+00  0.26281158260E+02  0.00000000000E+00 0.  1.
<mgrwt>
<rscale>  0 0.25369899E+02</rscale>
<asrwt>0</asrwt>
<pdfrwt beam="1">  1        2 0.36081271E+00 0.24492232E+02</pdfrwt>
<pdfrwt beam="2">  1       -2 0.24133960E-02 0.26279016E+02</pdfrwt>
<totfact> 0.28721719E+03</totfact>
</mgrwt>
</event>
<event>
 5    1  0.8692084E-003  0.1013162E+03  0.7546771E-02  0.1344684E+00
          1   -1    0    0  501    0 -0.00000000000E+00  0.00000000000E+00  0.75670160508E+03  0.75670160508E+03  0.00000000000E+00 0. -1.
          2   -1    0    0  502    0  0.00000000000E+00 -0.00000000000E+00 -0.11742659075E+04  0.11742659075E+04  0.00000000000E+00 0. -1.
         25    1    1    2    0    0 -0.11927167776E+03  0.98058679064E+02  0.22480473055E+03  0.30000567417E+03  0.12500000000E+03 0.  0.
          2    1    1    2  501    0  0.35036865916E+02 -0.42567554327E+02  0.49051117627E+03  0.49359983053E+03  0.00000000000E+00 0. -1.
          1    1    1    2  502    0  0.84234811842E+02 -0.55491124737E+02 -0.11328802093E+04  0.11373620079E+04  0.00000000000E+00 0. -1.
<mgrwt>
<rscale>  0 0.74738223E+02</rscale>
<asrwt>0</asrwt>
<pdfrwt beam="2">  1        2 0.18065629E+00 0.10131619E+03</pdfrwt>
<pdfrwt beam="1">  1        1 0.11641563E+00 0.55132374E+02</pdfrwt>
<totfact> 0.81400271E+01</totfact>
</mgrwt>
</event>
<event>
 5    1  0.8459321E-003  0.2428216E+02  0.7546771E-02  0.1705885E+00
          2   -1    0    0  502    0  0.00000000000E+00  0.00000000000E+00  0.66675238917E+03  0.66675238917E+03  0.00000000000E+00 0. -1.
          1   -1    0    0  501    0 -0.00000000000E+00 -0.00000000000E+00 -0.35608728388E+03  0.35608728388E+03  0.00000000000E+00 0. -1.
         25    1    1    2    0    0 -0.33880257476E+02  0.16202446518E+01  0.42867024230E+02  0.13642975777E+03  0.12500000000E+03 0.  0.
          2    1    1    2  501    0  0.20293212204E+02  0.13303459122E+02 -0.30865314607E+03  0.30960549263E+03  0.00000000000E+00 0. -1.
          1    1    1    2  502    0  0.13587045273E+02 -0.14923703774E+02  0.57645122713E+03  0.57680442265E+03  0.00000000000E+00 0. -1.
<mgrwt>
<rscale>  0 0.22137516E+02</rscale>
<asrwt>0</asrwt>
<pdfrwt beam="1">  1        2 0.10257729E+00 0.20182288E+02</pdfrwt>
<pdfrwt beam="2">  1        1 0.54782659E-01 0.24282164E+02</pdfrwt>
<totfact> 0.46507931E+02</totfact>
</mgrwt>
</event>
<event>
 5    1  0.8459321E-003  0.8846667E+02  0.7546771E-02  0.1462940E+00
          2   -1    0    0  502    0  0.00000000000E+00  0.00000000000E+00  0.62974859009E+03  0.62974859009E+03  0.00000000000E+00 0. -1.
         -2   -1    0    0    0  501 -0.00000000000E+00 -0.00000000000E+00 -0.56142725321E+03  0.56142725321E+03  0.00000000000E+00 0.  1.
         25    1    1    2    0    0 -0.52665824443E+02 -0.99818928964E+02 -0.45559118937E+03  0.48572197755E+03  0.12500000000E+03 0.  0.
          1    1    1    2  502    0  0.38250420157E+02  0.79587772433E+02  0.60974147607E+03  0.61610224460E+03  0.00000000000E+00 0. -1.
         -1    1    1    2    0  501  0.14415404286E+02  0.20231156531E+02 -0.85828949812E+02  0.89351621145E+02  0.00000000000E+00 0.  1.
<mgrwt>
<rscale>  0 0.46879111E+02</rscale>
<asrwt>0</asrwt>
<pdfrwt beam="1">  1        2 0.96884399E-01 0.88466675E+02</pdfrwt>
<pdfrwt beam="2">  1       -2 0.86373423E-01 0.24841570E+02</pdfrwt>
<totfact> 0.62333232E+01</totfact>
</mgrwt>
</event>
<event>
 5    1  0.8459321E-003  0.1029404E+03  0.7546771E-02  0.1278807E+00
          1   -1    0    0  501    0 -0.00000000000E+00  0.00000000000E+00  0.54513225701E+03  0.54513225701E+03  0.00000000000E+00 0. -1.
          2   -1    0    0  502    0  0.00000000000E+00 -0.00000000000E+00 -0.16210049259E+03  0.16210049259E+03  0.00000000000E+00 0. -1.
         25    1    1    2    0    0 -0.75235625152E+02  0.35428931705E+02  0.45768969920E+02  0.15695670454E+03  0.12500000000E+03 0.  0.
          2    1    1    2  501    0  0.67036982510E-01 -0.10575967787E+03  0.41052363751E+03  0.42392778973E+03  0.00000000000E+00 0. -1.
          1    1    1    2  502    0  0.75168588169E+02  0.70330746162E+02 -0.73260843009E+02  0.12634825532E+03  0.00000000000E+00 0. -1.
<mgrwt>
<rscale>  0 0.10071166E+03</rscale>
<asrwt>0</asrwt>
<pdfrwt beam="2">  1        2 0.24938538E-01 0.10294042E+03</pdfrwt>
<pdfrwt beam="1">  1        1 0.83866500E-01 0.98531157E+02</pdfrwt>
<totfact> 0.11811604E+03</totfact>
</mgrwt>
</event>
<event>
 5    1  0.8459321E-003  0.9576339E+02  0.7546771E-02  0.1389841E+00
          1   -1    0    0  502    0  0.00000000000E+00  0.00000000000E+00  0.81061669742E+03  0.81061669742E+03  0.00000000000E+00 0. -1.
         -1   -1    0    0    0  501 -0.00000000000E+00 -0.00000000000E+00 -0.50109694632E+03  0.50109694632E+03  0.00000000000E+00 0.  1.
         25    1    1    2    0    0 -0.68471758141E+01 -0.13379169820E+03 -0.11884174997E+03  0.21839291165E+03  0.12500000000E+03 0.  0.
          2    1    1    2  502    0 -0.33456825730E+01  0.95038770515E+02  0.75664652302E+03  0.76259918850E+03  0.00000000000E+00 0. -1.
         -2    1    1    2    0  501  0.10192858387E+02  0.38752927684E+02 -0.32828502194E+03  0.33072154359E+03  0.00000000000E+00 0.  1.
<mgrwt>
<rscale>  0 0.61946214E+02</rscale>
<asrwt>0</asrwt>
<pdfrwt beam="1">  1        1 0.12471026E+00 0.95763394E+02</pdfrwt>
<pdfrwt beam="2">  1       -1 0.77091838E-01 0.40070984E+02</pdfrwt>
<totfact> 0.44818480E+01</totfact>
</mgrwt>
</event>
<event>
 5    1  0.8459321E-003  0.7416884E+02  0.7546771E-02  0.1366949E+00
          1   -1    0    0  501    0 -0.00000000000E+00  0.00000000000E+00  0.60534883085E+03  0.60534883085E+03  0.00000000000E+00 0. -1.
          2   -1    0    0  502    0  0.00000000000E+00 -0.00000000000E+00 -0.51949710408E+03  0.51949710408E+03  0.00000000000E+00 0. -1.
         25    1    1    2    0    0 -0.51968788898E+01 -0.65308446678E+02 -0.15820507566E+03  0.21200482712E+03  0.12500000000E+03 0.  0.
          2    1    1    2  501    0  0.61650226027E+02  0.95524346929E+01  0.57202217312E+03  0.57541408214E+03  0.00000000000E+00 0. -1.
          1    1    1    2  502    0 -0.56453347137E+02  0.55756011985E+02 -0.32796537070E+03  0.33742702567E+03  0.00000000000E+00 0. -1.
<mgrwt>
<rscale>  0 0.68022710E+02</rscale>
<asrwt>0</asrwt>
<pdfrwt beam="2">  1        2 0.79922632E-01 0.74168839E+02</pdfrwt>
<pdfrwt beam="1">  1        1 0.93130589E-01 0.62385891E+02</pdfrwt>
<totfact> 0.30361233E+02</totfact>
</mgrwt>
</event>
<event>
 5    1  0.8459321E-003  0.8490493E+02  0.7546771E-02  0.1389505E+00
         -2   -1    0    0    0  501 -0.00000000000E+00  0.00000000000E+00  0.80606495515E+02  0.80606495515E+02  0.00000000000E+00 0.  1.
          2   -1    0    0  502    0  0.00000000000E+00 -0.00000000000E+00 -0.92095864311E+03  0.92095864311E+03  0.00000000000E+00 0. -1.
         25    1    1    2    0    0 -0.62977808204E+02 -0.26010114187E+01 -0.22534663280E+03  0.26529054733E+03  0.12500000000E+03 0.  0.
          1    1    1    2  502    0  0.76536099920E+02  0.45843379732E+02 -0.66374956756E+03  0.66971850690E+03  0.00000000000E+00 0. -1.
         -1    1    1    2    0  501 -0.13558291716E+02 -0.43242368313E+02  0.48744052757E+02  0.66556084401E+02  0.00000000000E+00 0.  1.
<mgrwt>
<rscale>  0 0.62030069E+02</rscale>
<asrwt>0</asrwt>
<pdfrwt beam="2">  1        2 0.14168595E+00 0.84904926E+02</pdfrwt>
<pdfrwt beam="1">  1       -2 0.12400999E-01 0.45318095E+02</pdfrwt>
<totfact> 0.13135076E+03</totfact>
</mgrwt>
</event>
<event>
 5    1  0.8459321E-003  0.7516945E+02  0.7546771E-02  0.1488177E+00
          2   -1    0    0  502    0  0.00000000000E+00  0.00000000000E+00  0.37497214222E+03  0.37497214222E+03  0.00000000000E+00 0. -1.
         -2   -1    0    0    0  501 -0.00000000000E+00 -0.00000000000E+00 -0.11277601147E+03  0.11277601147E+03  0.00000000000E+00 0.  1.
         25    1    1    2    0    0 -0.84418135453E+02  0.60658543868E+01  0.10824660180E+03  0.18575667682E+03  0.12500000000E+03 0.  0.
          1    1    1    2  502    0  0.11701605824E+02 -0.21450990263E+02  0.20841686978E+03  0.20984438085E+03  0.00000000000E+00 0. -1.
         -1    1    1    2    0  501  0.72716529628E+02  0.15385135876E+02 -0.54467340832E+02  0.92147096017E+02  0.00000000000E+00 0.  1.
<mgrwt>
<rscale>  0 0.42857561E+02</rscale>
<asrwt>0</asrwt>
<pdfrwt beam="1">  1        2 0.57688021E-01 0.24435068E+02</pdfrwt>
<pdfrwt beam="2">  1       -2 0.17350156E-01 0.75169447E+02</pdfrwt>
<totfact> 0.21805806E+03</totfact>
</mgrwt>
</event>
<event>
 5    1  0.8459321E-003  0.8514283E+02  0.7546771E-02  0.1422814E+00
          1   -1    0    0  501    0 -0.00000000000E+00  0.00000000000E+00  0.10571479357E+04  0.10571479357E+04  0.00000000000E+00 0. -1.
          2   -1    0    0  502    0  0.00000000000E+00 -0.00000000000E+00 -0.27523020154E+03  0.27523020154E+03  0.00000000000E+00 0. -1.
         25    1    1    2    0    0  0.31214249864E+02  0.50357118488E+02  0.59793862010E+03  0.61373101778E+03  0.12500000000E+03 0.  0.
          2    1    1    2  501    0 -0.11555374566E+02  0.32821213882E+02  0.44378320656E+03  0.44514524954E+03  0.00000000000E+00 0. -1.
          1    1    1    2  502    0 -0.19658875298E+02 -0.83178332370E+02 -0.25980409251E+03  0.27350186990E+03  0.00000000000E+00 0. -1.
<mgrwt>
<rscale>  0 0.54430014E+02</rscale>
<asrwt>0</asrwt>
<pdfrwt beam="2">  1        2 0.42343108E-01 0.85142830E+02</pdfrwt>
<pdfrwt beam="1">  1        1 0.16263814E+00 0.34795959E+02</pdfrwt>
<totfact> 0.27145932E+02</totfact>
</mgrwt>
</event>
<event>
 5    1  0.8459321E-003  0.1515598E+03  0.7546771E-02  0.1329703E+00
          1   -1    0    0  501    0 -0.00000000000E+00  0.00000000000E+00  0.81826748641E+02  0.81826748641E+02  0.00000000000E+00 0. -1.
          2   -1    0    0  502    0  0.00000000000E+00 -0.00000000000E+00 -0.10198430783E+04  0.10198430783E+04  0.00000000000E+00 0. -1.
         25    1    1    2    0    0 -0.91417672563E+02  0.11478479111E+03 -0.38293459191E+03  0.42871510448E+03  0.12500000000E+03 0.  0.
          2    1    1    2  501    0  0.30992321725E+02  0.28324712696E+02  0.39964709168E+02  0.57965432235E+02  0.00000000000E+00 0. -1.
          1    1    1    2  502    0  0.60425350838E+02 -0.14310950381E+03 -0.59504644689E+03  0.61498929020E+03  0.00000000000E+00 0. -1.
<mgrwt>
<rscale>  0 0.79770747E+02</rscale>
<asrwt>0</asrwt>
<pdfrwt beam="2">  1        2 0.15689894E+00 0.15155984E+03</pdfrwt>
<pdfrwt beam="1">  1        1 0.12588730E-01 0.41985871E+02</pdfrwt>
<totfact> 0.15190226E+03</totfact>
</mgrwt>
</event>
<event>
 5    1  0.8459321E-003  0.1430486E+03  0.7546771E-02  0.1239509E+00
          1   -1    0    0  501    0 -0.00000000000E+00  0.00000000000E+00  0.23141147335E+04  0.23141147335E+04  0.00000000000E+00 0. -1.
          2   -1    0    0  502    0  0.00000000000E+00 -0.00000000000E+00 -0.51111397546E+03  0.51111397546E+03  0.00000000000E+00 0. -1.
         25    1    1    2    0    0 -0.45480538286E+02 -0.70909898576E+02 -0.23313045267E+02  0.15252931246E+03  0.12500000000E+03 0.  0.
          2    1    1    2  501    0  0.14193289728E+03  0.30975960464E+02  0.22406805609E+04  0.22453850079E+04  0.00000000000E+00 0. -1.
          1    1    1    2  502    0 -0.96452358996E+02  0.39933938112E+02 -0.41436675758E+03  0.42731438866E+03  0.00000000000E+00 0. -1.
<mgrwt>
<rscale>  0 0.12220143E+03</rscale>
<asrwt>0</asrwt>
<pdfrwt beam="2">  1        2 0.78632920E-01 0.10439242E+03</pdfrwt>
<pdfrwt beam="1">  1        1 0.35601765E+00 0.14304860E+03</pdfrwt>
<totfact> 0.19328280E+01</totfact>
</mgrwt>
</event>
<event>
 5    1  0.8459321E-003  0.1030199E+03  0.7546771E-02  0.1288972E+00
          2   -1    0    0  502    0  0.00000000000E+00  0.00000000000E+00  0.80146381176E+02  0.80146381176E+02  0.00000000000E+00 0. -1.
          1   -1    0    0  501    0 -0.00000000000E+00 -0.00000000000E+00 -0.61187777538E+03  0.61187777538E+03  0.00000000000E+00 0. -1.
         25    1    1    2    0    0  0.77261760486E+02  0.77631973069E+01 -0.15120309070E+03  0.21099057207E+03  0.12500000000E+03 0.  0.
          2    1    1    2  501    0  0.17633908824E+02 -0.87675720565E+02 -0.33839473647E+03  0.35001283461E+03  0.00000000000E+00 0. -1.
          1    1    1    2  502    0 -0.94895669310E+02  0.79912523258E+02 -0.42133567026E+02  0.13102074987E+03  0.00000000000E+00 0. -1.
<mgrwt>
<rscale>  0 0.95985513E+02</rscale>
<asrwt>0</asrwt>
<pdfrwt beam="1">  1        2 0.12330213E-01 0.10301988E+03</pdfrwt>
<pdfrwt beam="2">  1        1 0.94135039E-01 0.89431464E+02</pdfrwt>
<totfact> 0.22679152E+03</totfact>
</mgrwt>
</event>
<event>
 5    1  0.8459321E-003  0.2378205E+03  0.7546771E-02  0.1314107E+00
          2   -1    0    0  502    0  0.00000000000E+00  0.00000000000E+00  0.76030631432E+03  0.76030631432E+03  0.00000000000E+00 0. -1.
          1   -1    0    0  501    0 -0.00000000000E+00 -0.00000000000E+00 -0.49837406348E+03  0.49837406348E+03  0.00000000000E+00 0. -1.
         25    1    1    2    0    0  0.10387384676E+03  0.23123349170E+03  0.25955788282E+03  0.38373688676E+03  0.12500000000E+03 0.  0.
          2    1    1    2  501    0 -0.27467676328E+02 -0.13812323213E+02 -0.40539394056E+03  0.40655811461E+03  0.00000000000E+00 0. -1.
          1    1    1    2  502    0 -0.76406170429E+02 -0.21742116849E+03  0.40776830857E+03  0.46838537644E+03  0.00000000000E+00 0. -1.
<mgrwt>
<rscale>  0 0.85508970E+02</rscale>
<asrwt>0</asrwt>
<pdfrwt beam="1">  1        2 0.11697020E+00 0.23782045E+03</pdfrwt>
<pdfrwt beam="2">  1        1 0.76672933E-01 0.30744975E+02</pdfrwt>
<totfact> 0.24800870E+02</totfact>
</mgrwt>
</event>
<event>
 5    1  0.8459321E-003  0.7376000E+02  0.7546771E-02  0.1463716E+00
          2   -1    0    0  502    0  0.00000000000E+00  0.00000000000E+00  0.89865492922E+03  0.89865492922E+03  0.00000000000E+00 0. -1.
          1   -1    0    0  501    0 -0.00000000000E+00 -0.00000000000E+00 -0.52312090897E+03  0.52312090897E+03  0.00000000000E+00 0. -1.
         25    1    1    2    0    0 -0.36315501007E+02 -0.30782631141E+02  0.19503063623E+03  0.23649172303E+03  0.12500000000E+03 0.  0.
          2    1    1    2  501    0 -0.27082121494E+02 -0.12015884993E+02 -0.49980831674E+03  0.50068570609E+03  0.00000000000E+00 0. -1.
          1    1    1    2  502    0  0.63397622501E+02  0.42798516134E+02  0.68031170076E+03  0.68459840908E+03  0.00000000000E+00 0. -1.
<mgrwt>
<rscale>  0 0.46747907E+02</rscale>
<asrwt>0</asrwt>
<pdfrwt beam="1">  1        2 0.13825460E+00 0.73760001E+02</pdfrwt>
<pdfrwt beam="2">  1        1 0.80480140E-01 0.29628074E+02</pdfrwt>
<totfact> 0.19833387E+02</totfact>
</mgrwt>
</event>
<event>
 5    1  0.8459321E-003  0.9631131E+02  0.7546771E-02  0.1370524E+00
          1   -1    0    0  501    0 -0.00000000000E+00  0.00000000000E+00  0.13698193219E+03  0.13698193219E+03  0.00000000000E+00 0. -1.
          2   -1    0    0  502    0  0.00000000000E+00 -0.00000000000E+00 -0.24651833433E+04  0.24651833433E+04  0.00000000000E+00 0. -1.
         25    1    1    2    0    0  0.29322854889E+02  0.13245313407E+03 -0.58058466103E+03  0.60918569515E+03  0.12500000000E+03 0.  0.
          2    1    1    2  501    0 -0.13113497302E+01 -0.95162351115E+02  0.10388591088E+03  0.14088958509E+03  0.00000000000E+00 0. -1.
          1    1    1    2  502    0 -0.28011505159E+02 -0.37290782958E+02 -0.18515026609E+04  0.18520899952E+04  0.00000000000E+00 0. -1.
<mgrwt>
<rscale>  0 0.67021753E+02</rscale>
<asrwt>0</asrwt>
<pdfrwt beam="2">  1        2 0.37925899E+00 0.46639542E+02</pdfrwt>
<pdfrwt beam="1">  1        1 0.21074142E-01 0.96311309E+02</pdfrwt>
<totfact> 0.16698700E+02</totfact>
</mgrwt>
</event>
<event>
 5    1  0.8459321E-003  0.3479450E+02  0.7546771E-02  0.1621619E+00
          1   -1    0    0  501    0 -0.00000000000E+00  0.00000000000E+00  0.86181530424E+03  0.86181530424E+03  0.00000000000E+00 0. -1.
          2   -1    0    0  502    0  0.00000000000E+00 -0.00000000000E+00 -0.18111265105E+03  0.18111265105E+03  0.00000000000E+00 0. -1.
         25    1    1    2    0    0 -0.30329034852E+02 -0.35878436811E+02 -0.53918888926E+02  0.14401166330E+03  0.12500000000E+03 0.  0.
          2    1    1    2  501    0  0.79289702567E+01  0.33851792604E+02  0.81485171787E+03  0.81559311826E+03  0.00000000000E+00 0. -1.
          1    1    1    2  502    0  0.22400064595E+02  0.20266442071E+01 -0.80230175754E+02  0.83323173740E+02  0.00000000000E+00 0. -1.
<mgrwt>
<rscale>  0 0.27974676E+02</rscale>
<asrwt>0</asrwt>
<pdfrwt beam="2">  1        2 0.27863485E-01 0.22491558E+02</pdfrwt>
<pdfrwt beam="1">  1        1 0.13258697E+00 0.34794498E+02</pdfrwt>
<totfact> 0.55316395E+02</totfact>
</mgrwt>
</event>
<event>
 5    1  0.8459321E-003  0.1118305E+03  0.7546771E-02  0.1319622E+00
          2   -1    0    0  502    0  0.00000000000E+00  0.00000000000E+00  0.18695372541E+04  0.18695372541E+04  0.00000000000E+00 0. -1.
          1   -1    0    0  501    0 -0.00000000000E+00 -0.00000000000E+00 -0.29577700100E+03  0.29577700100E+03  0.00000000000E+00 0. -1.
         25    1    1    2    0    0 -0.32315715954E+02  0.36676417117E+02  0.14133886875E+04  0.14197471771E+04  0.12500000000E+03 0.  0.
          2    1    1    2  501    0 -0.10252740233E+03 -0.44656402734E+02 -0.27119879325E+03  0.29335106612E+03  0.00000000000E+00 0. -1.
          1    1    1    2  502    0  0.13484311829E+03  0.79799856169E+01  0.43157035885E+03  0.45221601183E+03  0.00000000000E+00 0. -1.
<mgrwt>
<rscale>  0 0.83417920E+02</rscale>
<asrwt>0</asrwt>
<pdfrwt beam="1">  1        2 0.28762111E+00 0.62224070E+02</pdfrwt>
<pdfrwt beam="2">  1        1 0.45504155E-01 0.11183051E+03</pdfrwt>
<totfact> 0.12310956E+02</totfact>
</mgrwt>
</event>
<event>
 5    1  0.8459321E-003  0.8009783E+02  0.7546771E-02  0.1390552E+00
          2   -1    0    0  502    0  0.00000000000E+00  0.00000000000E+00  0.43614406377E+03  0.43614406377E+03  0.00000000000E+00 0. -1.
          1   -1    0    0  501    0 -0.00000000000E+00 -0.00000000000E+00 -0.32576215305E+03  0.32576215305E+03  0.00000000000E+00 0. -1.
         25    1    1    2    0    0 -0.76600995421E+02 -0.71512268085E+02  0.15582886428E+03  0.22558668384E+03  0.12500000000E+03 0.  0.
          2    1    1    2  501    0  0.76008577404E+02  0.23880518830E+02 -0.28301878817E+03  0.29401907672E+03  0.00000000000E+00 0. -1.
          1    1    1    2  502    0  0.59241801746E+00  0.47631749255E+02  0.23757183462E+03  0.24230045626E+03  0.00000000000E+00 0. -1.
<mgrwt>
<rscale>  0 0.61769692E+02</rscale>
<asrwt>0</asrwt>
<pdfrwt beam="1">  1        2 0.67099086E-01 0.47635433E+02</pdfrwt>
<pdfrwt beam="2">  1        1 0.50117255E-01 0.80097830E+02</pdfrwt>
<totfact> 0.79455524E+02</totfact>
</mgrwt>
</event>
<event>
 5    1  0.8459321E-003  0.1064146E+03  0.7546771E-02  0.1308359E+00
          2   -1    0    0  502    0  0.00000000000E+00  0.00000000000E+00  0.20388198000E+04  0.20388198000E+04  0.00000000000E+00 0. -1.
          1   -1    0    0  501    0 -0.00000000000E+00 -0.00000000000E+00 -0.64724270949E+03  0.64724270949E+03  0.00000000000E+00 0. -1.
         25    1    1    2    0    0 -0.14013365324E+03  0.10000919263E+03  0.31880939550E+03  0.38328019782E+03  0.12500000000E+03 0.  0.
          2    1    1    2  501    0  0.47233443810E+02 -0.54846752402E+02 -0.61128959853E+03  0.61556001961E+03  0.00000000000E+00 0. -1.
          1    1    1    2  502    0  0.92900209428E+02 -0.45162440223E+02  0.16840572935E+04  0.16872222920E+04  0.00000000000E+00 0. -1.
<mgrwt>
<rscale>  0 0.87763927E+02</rscale>
<asrwt>0</asrwt>
<pdfrwt beam="1">  1        2 0.31366458E+00 0.10641457E+03</pdfrwt>
<pdfrwt beam="2">  1        1 0.99575802E-01 0.72382073E+02</pdfrwt>
<totfact> 0.35667901E+01</totfact>
</mgrwt>
</event>
<event>
 5    1  0.8459321E-003  0.4778874E+02  0.7546771E-02  0.1564866E+00
          2   -1    0    0  502    0  0.00000000000E+00  0.00000000000E+00  0.34368997766E+03  0.34368997766E+03  0.00000000000E+00 0. -1.
          1   -1    0    0  501    0 -0.00000000000E+00 -0.00000000000E+00 -0.13114178566E+04  0.13114178566E+04  0.00000000000E+00 0. -1.
         25    1    1    2    0    0  0.85640272547E+00  0.49288767985E+02 -0.49531128863E+01  0.13446058680E+03  0.12500000000E+03 0.  0.
          2    1    1    2  501    0 -0.22799774714E+02 -0.42031717312E+02 -0.12407709234E+04  0.12416919825E+04  0.00000000000E+00 0. -1.
          1    1    1    2  502    0  0.21943371989E+02 -0.72570506728E+01  0.27799615735E+03  0.27895526498E+03  0.00000000000E+00 0. -1.
<mgrwt>
<rscale>  0 0.33234102E+02</rscale>
<asrwt>0</asrwt>
<pdfrwt beam="1">  1        2 0.52875381E-01 0.23112256E+02</pdfrwt>
<pdfrwt beam="2">  1        1 0.20175659E+00 0.47788739E+02</pdfrwt>
<totfact> 0.14181271E+02</totfact>
</mgrwt>
</event>
<event>
 5    1  0.8459321E-003  0.1063509E+03  0.7546771E-02  0.1358755E+00
         -2   -1    0    0    0  501 -0.00000000000E+00  0.00000000000E+00  0.14900973014E+04  0.14900973014E+04  0.00000000000E+00 0.  1.
          2   -1    0    0  502    0  0.00000000000E+00 -0.00000000000E+00 -0.78507165587E+02  0.78507165587E+02  0.00000000000E+00 0. -1.
         25    1    1    2    0    0  0.57360327916E+02 -0.36280430917E+02  0.38255426689E+03  0.40814120596E+03  0.12500000000E+03 0.  0.
          1    1    1    2  502    0 -0.80209848473E+02  0.76888501069E+02 -0.17855315164E+02  0.11253565510E+03  0.00000000000E+00 0. -1.
         -1    1    1    2    0  501  0.22849520557E+02 -0.40608070152E+02  0.10468911841E+04  0.10479276059E+04  0.00000000000E+00 0.  1.
<mgrwt>
<rscale>  0 0.70394938E+02</rscale>
<asrwt>0</asrwt>
<pdfrwt beam="2">  1        2 0.12078027E-01 0.10635094E+03</pdfrwt>
<pdfrwt beam="1">  1       -2 0.22924572E+00 0.46595235E+02</pdfrwt>
<totfact> 0.53291351E+01</totfact>
</mgrwt>
</event>
<event>
 5    1  0.8459321E-003  0.6268662E+02  0.7546771E-02  0.1528981E+00
          2   -1    0    0  502    0  0.00000000000E+00  0.00000000000E+00  0.24080633798E+03  0.24080633798E+03  0.00000000000E+00 0. -1.
          1   -1    0    0  501    0 -0.00000000000E+00 -0.00000000000E+00 -0.13380803472E+04  0.13380803472E+04  0.00000000000E+00 0. -1.
         25    1    1    2    0    0  0.72638298565E+02 -0.40433722165E+02 -0.64907651274E+02  0.16355186181E+03  0.12500000000E+03 0.  0.
          2    1    1    2  501    0 -0.21430898232E+02  0.58243347596E+01 -0.12187594275E+04  0.12189617501E+04  0.00000000000E+00 0. -1.
          1    1    1    2  502    0 -0.51207400333E+02  0.34609387405E+02  0.18639306949E+03  0.19637307325E+03  0.00000000000E+00 0. -1.
<mgrwt>
<rscale>  0 0.37311659E+02</rscale>
<asrwt>0</asrwt>
<pdfrwt beam="1">  1        2 0.37047129E-01 0.62686617E+02</pdfrwt>
<pdfrwt beam="2">  1        1 0.20585852E+00 0.22208248E+02</pdfrwt>
<totfact> 0.21397982E+02</totfact>
</mgrwt>
</event>
<event>
 5    1  0.8459321E-003  0.7793199E+02  0.7546771E-02  0.1371178E+00
         -2   -1    0    0    0  501 -0.00000000000E+00  0.00000000000E+00  0.26455381892E+02  0.26455381892E+02  0.00000000000E+00 0.  1.
          2   -1    0    0  502    0  0.00000000000E+00 -0.00000000000E+00 -0.42841988280E+04  0.42841988280E+04  0.00000000000E+00 0. -1.
         25    1    1    2    0    0 -0.16776545434E+02  0.28886377752E+02 -0.15448745565E+04  0.15502832872E+04  0.12500000000E+03 0.  0.
          1    1    1    2  502    0  0.26774159951E+02  0.50691806586E+02 -0.26677134080E+04  0.26683293167E+04  0.00000000000E+00 0. -1.
         -1    1    1    2    0  501 -0.99976145168E+01 -0.79578184338E+02 -0.45155481594E+02  0.92041606008E+02  0.00000000000E+00 0.  1.
<mgrwt>
<rscale>  0 0.66840822E+02</rscale>
<asrwt>0</asrwt>
<pdfrwt beam="2">  1        2 0.65910709E+00 0.57328134E+02</pdfrwt>
<pdfrwt beam="1">  1       -2 0.40700614E-02 0.77931990E+02</pdfrwt>
<totfact> 0.89720680E+01</totfact>
</mgrwt>
</event>
<event>
 5    1  0.8459321E-003  0.8613916E+02  0.7546771E-02  0.1351573E+00
          1   -1    0    0  501    0 -0.00000000000E+00  0.00000000000E+00  0.16189379008E+03  0.16189379008E+03  0.00000000000E+00 0. -1.
          2   -1    0    0  502    0  0.00000000000E+00 -0.00000000000E+00 -0.14974141579E+04  0.14974141579E+04  0.00000000000E+00 0. -1.
         25    1    1    2    0    0 -0.84027922232E+02 -0.77259174448E+02 -0.92846212590E+02  0.19306758129E+03  0.12500000000E+03 0.  0.
          2    1    1    2  501    0  0.23038056753E+02  0.81456979390E+02  0.94957685914E+02  0.12721223866E+03  0.00000000000E+00 0. -1.
          1    1    1    2  502    0  0.60989865480E+02 -0.41978049414E+01 -0.13376318411E+04  0.13390281280E+04  0.00000000000E+00 0. -1.
<mgrwt>
<rscale>  0 0.72567522E+02</rscale>
<asrwt>0</asrwt>
<pdfrwt beam="2">  1        2 0.23037141E+00 0.61134158E+02</pdfrwt>
<pdfrwt beam="1">  1        1 0.24906737E-01 0.86139164E+02</pdfrwt>
<totfact> 0.39363774E+02</totfact>
</mgrwt>
</event>
<event>
 5    1  0.8459321E-003  0.1026693E+03  0.7546771E-02  0.1393593E+00
          1   -1    0    0  501    0 -0.00000000000E+00  0.00000000000E+00  0.11277403534E+04  0.11277403534E+04  0.00000000000E+00 0. -1.
          2   -1    0    0  502    0  0.00000000000E+00 -0.00000000000E+00 -0.18232921958E+04  0.18232921958E+04  0.00000000000E+00 0. -1.
         25    1    1    2    0    0  0.16581806926E+02  0.86073225932E+02 -0.50715160615E+03  0.52963318265E+03  0.12500000000E+03 0.  0.
          2    1    1    2  501    0 -0.30703330337E+02  0.19305888558E+02  0.11140382463E+04  0.11146284700E+04  0.00000000000E+00 0. -1.
          1    1    1    2  502    0  0.14121523411E+02 -0.10537911449E+03 -0.13024384826E+04  0.13067708965E+04  0.00000000000E+00 0. -1.
<mgrwt>
<rscale>  0 0.61021903E+02</rscale>
<asrwt>0</asrwt>
<pdfrwt beam="2">  1        2 0.28050649E+00 0.10266931E+03</pdfrwt>
<pdfrwt beam="1">  1        1 0.17349852E+00 0.36268607E+02</pdfrwt>
<totfact> 0.20771900E+01</totfact>
</mgrwt>
</event>
<event>
 5    1  0.8459321E-003  0.1484638E+03  0.7546771E-02  0.1357497E+00
         -2   -1    0    0    0  501 -0.00000000000E+00  0.00000000000E+00  0.40381086207E+03  0.40381086207E+03  0.00000000000E+00 0.  1.
          2   -1    0    0  502    0  0.00000000000E+00 -0.00000000000E+00 -0.18587321283E+04  0.18587321283E+04  0.00000000000E+00 0. -1.
         25    1    1    2    0    0  0.82374509528E+02 -0.15888689680E+03 -0.86923166431E+02  0.23497072724E+03  0.12500000000E+03 0.  0.
          1    1    1    2  502    0 -0.18317149674E+02  0.28327605557E+02 -0.16815754182E+04  0.16819137488E+04  0.00000000000E+00 0. -1.
         -1    1    1    2    0  501 -0.64057359854E+02  0.13055929125E+03  0.31357731844E+03  0.34565851432E+03  0.00000000000E+00 0.  1.
<mgrwt>
<rscale>  0 0.70769001E+02</rscale>
<asrwt>0</asrwt>
<pdfrwt beam="2">  1        2 0.28595879E+00 0.33733829E+02</pdfrwt>
<pdfrwt beam="1">  1       -2 0.62124748E-01 0.14846377E+03</pdfrwt>
<totfact> 0.27447007E+01</totfact>
</mgrwt>
</event>
<event>
 5    1  0.8459321E-003  0.6890298E+02  0.7546771E-02  0.1417804E+00
          1   -1    0    0  501    0 -0.00000000000E+00  0.00000000000E+00  0.16876067220E+04  0.16876067220E+04  0.00000000000E+00 0. -1.
          2   -1    0    0  502    0  0.00000000000E+00 -0.00000000000E+00 -0.50996011413E+03  0.50996011413E+03  0.00000000000E+00 0. -1.
         25    1    1    2    0    0 -0.48123226251E+02 -0.83465653125E+02  0.22818161422E+03  0.27744226287E+03  0.12500000000E+03 0.  0.
          2    1    1    2  501    0  0.42090028183E+02  0.15006933700E+02  0.14320116436E+04  0.14327086675E+04  0.00000000000E+00 0. -1.
          1    1    1    2  502    0  0.60331980683E+01  0.68458719425E+02 -0.48254664998E+03  0.48741590573E+03  0.00000000000E+00 0. -1.
<mgrwt>
<rscale>  0 0.55488306E+02</rscale>
<asrwt>0</asrwt>
<pdfrwt beam="2">  1        2 0.78455403E-01 0.68902977E+02</pdfrwt>
<pdfrwt beam="1">  1        1 0.25963180E+00 0.44685328E+02</pdfrwt>
<totfact> 0.55614308E+01</totfact>
</mgrwt>
</event>
<event>
 5    1  0.8459321E-003  0.2352755E+03  0.7546771E-02  0.1192102E+00
          1   -1    0    0  501    0 -0.00000000000E+00  0.00000000000E+00  0.94084902869E+03  0.94084902869E+03  0.00000000000E+00 0. -1.
          2   -1    0    0  502    0  0.00000000000E+00 -0.00000000000E+00 -0.71588109435E+03  0.71588109435E+03  0.00000000000E+00 0. -1.
         25    1    1    2    0    0  0.16985640382E+03 -0.18125460039E+02 -0.44203170593E+02  0.21623748637E+03  0.12500000000E+03 0.  0.
          2    1    1    2  501    0 -0.23747522324E+03 -0.61934346317E+02  0.83228298533E+03  0.86771269011E+03  0.00000000000E+00 0. -1.
          1    1    1    2  502    0  0.67618819412E+02  0.80059806356E+02 -0.56311188040E+03  0.57277994656E+03  0.00000000000E+00 0. -1.
<mgrwt>
<rscale>  0 0.15702090E+03</rscale>
<asrwt>0</asrwt>
<pdfrwt beam="2">  1        2 0.11013555E+00 0.10479445E+03</pdfrwt>
<pdfrwt beam="1">  1        1 0.14474600E+00 0.23527545E+03</pdfrwt>
<totfact> 0.10330384E+02</totfact>
</mgrwt>
</event>
<event>
 5    1  0.8459321E-003  0.6750240E+02  0.7546771E-02  0.1388433E+00
          1   -1    0    0  501    0 -0.00000000000E+00  0.00000000000E+00  0.41404051311E+02  0.41404051311E+02  0.00000000000E+00 0. -1.
          2   -1    0    0  502    0  0.00000000000E+00 -0.00000000000E+00 -0.10897730659E+04  0.10897730659E+04  0.00000000000E+00 0. -1.
         25    1    1    2    0    0  0.53371850964E+02 -0.56493606258E+02 -0.22680597185E+03  0.27038126948E+03  0.12500000000E+03 0.  0.
          2    1    1    2  501    0 -0.69663725781E+02  0.13552834752E+01 -0.46874569847E+02  0.83976763341E+02  0.00000000000E+00 0. -1.
          1    1    1    2  502    0  0.16291874817E+02  0.55138322783E+02 -0.77468847294E+03  0.77681908443E+03  0.00000000000E+00 0. -1.
<mgrwt>
<rscale>  0 0.62298007E+02</rscale>
<asrwt>0</asrwt>
<pdfrwt beam="2">  1        2 0.16765739E+00 0.57494868E+02</pdfrwt>
<pdfrwt beam="1">  1        1 0.63698541E-02 0.67502402E+02</pdfrwt>
<totfact> 0.36592621E+03</totfact>
</mgrwt>
</event>
<event>
 5    1  0.8459321E-003  0.7078807E+02  0.7546771E-02  0.1382378E+00
          2   -1    0    0  502    0  0.00000000000E+00  0.00000000000E+00  0.10038756539E+04  0.10038756539E+04  0.00000000000E+00 0. -1.
          1   -1    0    0  501    0 -0.00000000000E+00 -0.00000000000E+00 -0.18441259532E+03  0.18441259532E+03  0.00000000000E+00 0. -1.
         25    1    1    2    0    0  0.99758401173E+02 -0.53977646111E+01  0.41261082692E+02  0.16525238701E+03  0.12500000000E+03 0.  0.
          2    1    1    2  501    0 -0.43746501729E+02 -0.37437595258E+02 -0.11417777444E+03  0.12787452494E+03  0.00000000000E+00 0. -1.
          1    1    1    2  502    0 -0.56011899444E+02  0.42835359869E+02  0.89237975032E+03  0.89516133725E+03  0.00000000000E+00 0. -1.
<mgrwt>
<rscale>  0 0.63842773E+02</rscale>
<asrwt>0</asrwt>
<pdfrwt beam="1">  1        2 0.15444240E+00 0.70788075E+02</pdfrwt>
<pdfrwt beam="2">  1        1 0.28371169E-01 0.57578902E+02</pdfrwt>
<totfact> 0.60093148E+02</totfact>
</mgrwt>
</event>
<event>
 5    1  0.8459321E-003  0.9176260E+02  0.7546771E-02  0.1362569E+00
          1   -1    0    0  502    0  0.00000000000E+00  0.00000000000E+00  0.64189500454E+02  0.64189500454E+02  0.00000000000E+00 0. -1.
         -1   -1    0    0    0  501 -0.00000000000E+00 -0.00000000000E+00 -0.42234451623E+03  0.42234451623E+03  0.00000000000E+00 0.  1.
         25    1    1    2    0    0 -0.21842505580E+02  0.48447644082E+02 -0.20073746507E+03  0.24237326410E+03  0.12500000000E+03 0.  0.
          2    1    1    2  502    0  0.55879230963E+02 -0.88158467355E+02 -0.33439223632E+02  0.10960194112E+03  0.00000000000E+00 0. -1.
         -2    1    1    2    0  501 -0.34036725384E+02  0.39710823273E+02 -0.12397832707E+03  0.13455881146E+03  0.00000000000E+00 0.  1.
<mgrwt>
<rscale>  0 0.69277144E+02</rscale>
<asrwt>0</asrwt>
<pdfrwt beam="1">  1        1 0.98753078E-02 0.91762598E+02</pdfrwt>
<pdfrwt beam="2">  1       -1 0.64976079E-01 0.52301512E+02</pdfrwt>
<totfact> 0.15755009E+03</totfact>
</mgrwt>
</event>
<event>
 5    1  0.8459321E-003  0.6054686E+02  0.7546771E-02  0.1477271E+00
          1   -1    0    0  501    0 -0.00000000000E+00  0.00000000000E+00  0.10765909177E+03  0.10765909177E+03  0.00000000000E+00 0. -1.
          2   -1    0    0  502    0  0.00000000000E+00 -0.00000000000E+00 -0.11913049560E+04  0.11913049560E+04  0.00000000000E+00 0. -1.
         25    1    1    2    0    0  0.35262138176E+02  0.22432255355E+02 -0.29588827819E+03  0.32391588050E+03  0.12500000000E+03 0.  0.
          2    1    1    2  501    0  0.27035211995E+02 -0.18495339383E+02  0.89637652911E+02  0.95435261229E+02  0.00000000000E+00 0. -1.
          1    1    1    2  502    0 -0.62297350170E+02 -0.39369159719E+01 -0.87739523891E+03  0.87961290600E+03  0.00000000000E+00 0. -1.
<mgrwt>
<rscale>  0 0.44534209E+02</rscale>
<asrwt>0</asrwt>
<pdfrwt beam="2">  1        2 0.18327768E+00 0.60546858E+02</pdfrwt>
<pdfrwt beam="1">  1        1 0.16562938E-01 0.32756377E+02</pdfrwt>
<totfact> 0.89791344E+02</totfact>
</mgrwt>
</event>
<event>
 5    1  0.8459321E-003  0.4057228E+02  0.7546771E-02  0.1568480E+00
         -1   -1    0    0    0  501 -0.00000000000E+00  0.00000000000E+00  0.76388447494E+03  0.76388447494E+03  0.00000000000E+00 0.  1.
          1   -1    0    0  502    0  0.00000000000E+00 -0.00000000000E+00 -0.11476711357E+04  0.11476711357E+04  0.00000000000E+00 0. -1.
         25    1    1    2    0    0  0.63730370794E+02 -0.20722653396E+02 -0.23526082283E+02  0.14376879033E+03  0.12500000000E+03 0.  0.
          2    1    1    2  502    0 -0.38468670673E+02  0.12353471266E+02 -0.10633883414E+04  0.10641556331E+04  0.00000000000E+00 0. -1.
         -2    1    1    2    0  501 -0.25261700122E+02  0.83691821298E+01  0.70312776289E+03  0.70363118723E+03  0.00000000000E+00 0.  1.
<mgrwt>
<rscale>  0 0.32858913E+02</rscale>
<asrwt>0</asrwt>
<pdfrwt beam="2">  1        1 0.17656479E+00 0.40572282E+02</pdfrwt>
<pdfrwt beam="1">  1       -1 0.11752069E+00 0.26611965E+02</pdfrwt>
<totfact> 0.11445637E+01</totfact>
</mgrwt>
</event>
<event>
 5    1  0.8459321E-003  0.1376848E+03  0.7546771E-02  0.1313656E+00
          2   -1    0    0  502    0  0.00000000000E+00  0.00000000000E+00  0.13509275712E+04  0.13509275712E+04  0.00000000000E+00 0. -1.
          1   -1    0    0  501    0 -0.00000000000E+00 -0.00000000000E+00 -0.10895452943E+04  0.10895452943E+04  0.00000000000E+00 0. -1.
         25    1    1    2    0    0  0.14506338017E+03  0.56954058320E+02 -0.12038595506E+03  0.23324863816E+03  0.12500000000E+03 0.  0.
          2    1    1    2  501    0 -0.76332685579E+01 -0.52772448622E+02 -0.90829295605E+03  0.90985674264E+03  0.00000000000E+00 0. -1.
          1    1    1    2  502    0 -0.13743011161E+03 -0.41816096976E+01  0.12900611880E+04  0.12973674847E+04  0.00000000000E+00 0. -1.
<mgrwt>
<rscale>  0 0.85683007E+02</rscale>
<asrwt>0</asrwt>
<pdfrwt beam="1">  1        2 0.20783501E+00 0.13768475E+03</pdfrwt>
<pdfrwt beam="2">  1        1 0.16762235E+00 0.53321648E+02</pdfrwt>
<totfact> 0.36520060E+01</totfact>
</mgrwt>
</event>
<event>
 5    1  0.8459321E-003  0.3060791E+02  0.7546771E-02  0.1618775E+00
         -1   -1    0    0    0  501 -0.00000000000E+00  0.00000000000E+00  0.30298979218E+02  0.30298979218E+02  0.00000000000E+00 0.  1.
          1   -1    0    0  502    0  0.00000000000E+00 -0.00000000000E+00 -0.96945185677E+03  0.96945185677E+03  0.00000000000E+00 0. -1.
         25    1    1    2    0    0  0.34656412795E+01 -0.23275996054E+02 -0.37124792476E+03  0.39243318450E+03  0.12500000000E+03 0.  0.
          2    1    1    2  502    0 -0.25942393469E+02  0.16979771859E+01 -0.57481506694E+03  0.57540268690E+03  0.00000000000E+00 0. -1.
         -2    1    1    2    0  501  0.22476752189E+02  0.21578018868E+02  0.69101141460E+01  0.31914964590E+02  0.00000000000E+00 0.  1.
<mgrwt>
<rscale>  0 0.28208889E+02</rscale>
<asrwt>0</asrwt>
<pdfrwt beam="2">  1        1 0.14914643E+00 0.25997902E+02</pdfrwt>
<pdfrwt beam="1">  1       -1 0.46613816E-02 0.30607910E+02</pdfrwt>
<totfact> 0.30642707E+03</totfact>
</mgrwt>
</event>
<event>
 5    1  0.8459321E-003  0.8963754E+02  0.7546771E-02  0.1480748E+00
         -2   -1    0    0    0  501 -0.00000000000E+00  0.00000000000E+00  0.50853362890E+02  0.50853362890E+02  0.00000000000E+00 0.  1.
          2   -1    0    0  502    0  0.00000000000E+00 -0.00000000000E+00 -0.80488823940E+03  0.80488823940E+03  0.00000000000E+00 0. -1.
         25    1    1    2    0    0  0.69136321124E+02 -0.10871300791E+02 -0.65204609038E+02  0.15739967319E+03  0.12500000000E+03 0.  0.
          1    1    1    2  502    0 -0.89767095326E+02  0.17228706398E+02 -0.50047573892E+03  0.50875428743E+03  0.00000000000E+00 0. -1.
         -1    1    1    2    0  501  0.20630774202E+02 -0.63574056071E+01 -0.18835452855E+03  0.18958764167E+03  0.00000000000E+00 0.  1.
<mgrwt>
<rscale>  0 0.43989804E+02</rscale>
<asrwt>0</asrwt>
<pdfrwt beam="2">  1        2 0.12382894E+00 0.89637537E+02</pdfrwt>
<pdfrwt beam="1">  1       -2 0.78235953E-02 0.21588086E+02</pdfrwt>
<totfact> 0.28890215E+03</totfact>
</mgrwt>
</event>
<event>
 5    1  0.8459321E-003  0.8662024E+02  0.7546771E-02  0.1323263E+00
          1   -1    0    0  501    0 -0.00000000000E+00  0.00000000000E+00  0.10294706226E+04  0.10294706226E+04  0.00000000000E+00 0. -1.
          2   -1    0    0  502    0  0.00000000000E+00 -0.00000000000E+00 -0.78991191347E+02  0.78991191347E+02  0.00000000000E+00 0. -1.
         25    1    1    2    0    0  0.41879764068E+02  0.76719028793E+02  0.34139688665E+03  0.37392052395E+03  0.12500000000E+03 0.  0.
          2    1    1    2  501    0  0.35440336040E+02 -0.85062920218E+02  0.64309221765E+03  0.64966092558E+03  0.00000000000E+00 0. -1.
          1    1    1    2  502    0 -0.77320100108E+02  0.83438914250E+01 -0.34009673043E+02  0.84880364427E+02  0.00000000000E+00 0. -1.
<mgrwt>
<rscale>  0 0.82075393E+02</rscale>
<asrwt>0</asrwt>
<pdfrwt beam="2">  1        2 0.12152492E-01 0.77769007E+02</pdfrwt>
<pdfrwt beam="1">  1        1 0.15838009E+00 0.86620242E+02</pdfrwt>
<totfact> 0.10488250E+03</totfact>
</mgrwt>
</event>
<event>
 5    1  0.8459321E-003  0.1119698E+03  0.7546771E-02  0.1297009E+00
          2   -1    0    0  502    0  0.00000000000E+00  0.00000000000E+00  0.77663747059E+03  0.77663747059E+03  0.00000000000E+00 0. -1.
         -2   -1    0    0    0  501 -0.00000000000E+00 -0.00000000000E+00 -0.41482736854E+03  0.41482736854E+03  0.00000000000E+00 0.  1.
         25    1    1    2    0    0 -0.15009173075E+03 -0.27107419105E+02 -0.39192062554E+02  0.20105560817E+03  0.12500000000E+03 0.  0.
          3    1    1    2  502    0  0.86645430185E+02  0.69568940839E+02  0.68621605027E+03  0.69515446899E+03  0.00000000000E+00 0. -1.
         -1    1    1    2    0  501  0.63446300569E+02 -0.42461521734E+02 -0.28521388567E+03  0.29525476197E+03  0.00000000000E+00 0.  1.
<mgrwt>
<rscale>  0 0.92456613E+02</rscale>
<asrwt>0</asrwt>
<pdfrwt beam="1">  1        2 0.11948269E+00 0.11196976E+03</pdfrwt>
<pdfrwt beam="2">  1       -2 0.63819595E-01 0.76344049E+02</pdfrwt>
<totfact> 0.90679713E+01</totfact>
</mgrwt>
</event>
<event>
 5    1  0.8459321E-003  0.3898083E+02  0.7546771E-02  0.1563434E+00
          2   -1    0    0  502    0  0.00000000000E+00  0.00000000000E+00  0.23505588710E+04  0.23505588710E+04  0.00000000000E+00 0. -1.
         -2   -1    0    0    0  501 -0.00000000000E+00 -0.00000000000E+00 -0.61500942475E+02  0.61500942475E+02  0.00000000000E+00 0.  1.
         25    1    1    2    0    0  0.35080903961E+02 -0.82539802363E+01  0.35932581008E+03  0.38215027908E+03  0.12500000000E+03 0.  0.
          1    1    1    2  502    0 -0.14060366915E+02 -0.24895311686E+02  0.19720112055E+04  0.19722184629E+04  0.00000000000E+00 0. -1.
         -1    1    1    2    0  501 -0.21020537046E+02  0.33149291922E+02 -0.42279087079E+02  0.57691071552E+02  0.00000000000E+00 0.  1.
<mgrwt>
<rscale>  0 0.33384400E+02</rscale>
<asrwt>0</asrwt>
<pdfrwt beam="1">  1        2 0.36162437E+00 0.28591440E+02</pdfrwt>
<pdfrwt beam="2">  1       -2 0.94616853E-02 0.38980834E+02</pdfrwt>
<totfact> 0.41150389E+02</totfact>
</mgrwt>
</event>
<event>
 5    1  0.8459321E-003  0.6722497E+02  0.7546771E-02  0.1430115E+00
          1   -1    0    0  501    0 -0.00000000000E+00  0.00000000000E+00  0.43882592708E+03  0.43882592708E+03  0.00000000000E+00 0. -1.
          2   -1    0    0  502    0  0.00000000000E+00 -0.00000000000E+00 -0.18213488677E+04  0.18213488677E+04  0.00000000000E+00 0. -1.
         25    1    1    2    0    0  0.97578808527E+02 -0.45470957172E+02 -0.16063634598E+03  0.23025695966E+03  0.12500000000E+03 0.  0.
          2    1    1    2  501    0 -0.35441219127E+02  0.21946045258E+02  0.40225930894E+03  0.40441347720E+03  0.00000000000E+00 0. -1.
          1    1    1    2  502    0 -0.62137589401E+02  0.23524911914E+02 -0.16241459036E+04  0.16255043579E+04  0.00000000000E+00 0. -1.
<mgrwt>
<rscale>  0 0.52937028E+02</rscale>
<asrwt>0</asrwt>
<pdfrwt beam="2">  1        2 0.28020753E+00 0.67224966E+02</pdfrwt>
<pdfrwt beam="1">  1        1 0.67511678E-01 0.41685836E+02</pdfrwt>
<totfact> 0.80220126E+01</totfact>
</mgrwt>
</event>
<event>
 5    1  0.8459321E-003  0.8307779E+02  0.7546771E-02  0.1331953E+00
          2   -1    0    0  502    0  0.00000000000E+00  0.00000000000E+00  0.17863104744E+04  0.17863104744E+04  0.00000000000E+00 0. -1.
         -2   -1    0    0    0  501 -0.00000000000E+00 -0.00000000000E+00 -0.12367502384E+03  0.12367502384E+03  0.00000000000E+00 0.  1.
         25    1    1    2    0    0 -0.51584198641E+02  0.36756453799E+02  0.58874859327E+03  0.60519573075E+03  0.12500000000E+03 0.  0.
          1    1    1    2  502    0  0.12916611224E+01 -0.92524596504E+02  0.11751123583E+04  0.11787499836E+04  0.00000000000E+00 0. -1.
         -1    1    1    2    0  501  0.50292537519E+02  0.55768142705E+02 -0.10122550097E+03  0.12603978387E+03  0.00000000000E+00 0.  1.
<mgrwt>
<rscale>  0 0.78986192E+02</rscale>
<asrwt>0</asrwt>
<pdfrwt beam="1">  1        2 0.27481698E+00 0.83077791E+02</pdfrwt>
<pdfrwt beam="2">  1       -2 0.19026928E-01 0.75096106E+02</pdfrwt>
<totfact> 0.23658327E+02</totfact>
</mgrwt>
</event>
<event>
 5    1  0.8459321E-003  0.4203993E+02  0.7546771E-02  0.1606625E+00
          1   -1    0    0  502    0  0.00000000000E+00  0.00000000000E+00  0.57071988871E+03  0.57071988871E+03  0.00000000000E+00 0. -1.
         -1   -1    0    0    0  501 -0.00000000000E+00 -0.00000000000E+00 -0.13714675644E+03  0.13714675644E+03  0.00000000000E+00 0.  1.
         25    1    1    2    0    0 -0.20509983848E+01 -0.25739506212E+02  0.34796299724E+03  0.37063455886E+03  0.12500000000E+03 0.  0.
          2    1    1    2  502    0 -0.25613367648E+01  0.45549299391E+02  0.20811168997E+03  0.21305345485E+03  0.00000000000E+00 0. -1.
         -2    1    1    2    0  501  0.46123351496E+01 -0.19809793179E+02 -0.12250155494E+03  0.12417863143E+03  0.00000000000E+00 0.  1.
<mgrwt>
<rscale>  0 0.29241712E+02</rscale>
<asrwt>0</asrwt>
<pdfrwt beam="1">  1        1 0.87803059E-01 0.42039933E+02</pdfrwt>
<pdfrwt beam="2">  1       -1 0.21099501E-01 0.20339654E+02</pdfrwt>
<totfact> 0.66719970E+02</totfact>
</mgrwt>
</event>
<event>
 5    1  0.8459321E-003  0.1138849E+03  0.7546771E-02  0.1339745E+00
          2   -1    0    0  502    0  0.00000000000E+00  0.00000000000E+00  0.18035946925E+04  0.18035946925E+04  0.00000000000E+00 0. -1.
          1   -1    0    0  501    0 -0.00000000000E+00 -0.00000000000E+00 -0.75274582336E+03  0.75274582336E+03  0.00000000000E+00 0. -1.
         25    1    1    2    0    0  0.47395515048E+02 -0.15670112043E+03  0.12091227706E+03  0.23884378730E+03  0.12500000000E+03 0.  0.
          2    1    1    2  501    0 -0.35024226806E+02  0.10703446619E+03 -0.68880261532E+03  0.69794850547E+03  0.00000000000E+00 0. -1.
          1    1    1    2  502    0 -0.12371288242E+02  0.49666654239E+02  0.16187392074E+04  0.16195482231E+04  0.00000000000E+00 0. -1.
<mgrwt>
<rscale>  0 0.76348600E+02</rscale>
<asrwt>0</asrwt>
<pdfrwt beam="1">  1        2 0.27747611E+00 0.51184229E+02</pdfrwt>
<pdfrwt beam="2">  1        1 0.11580705E+00 0.11388486E+03</pdfrwt>
<totfact> 0.40095697E+01</totfact>
</mgrwt>
</event>
<event>
 5    1  0.8459321E-003  0.1790407E+03  0.7546771E-02  0.1245128E+00
         -1   -1    0    0    0  501 -0.00000000000E+00  0.00000000000E+00  0.98485572810E+03  0.98485572810E+03  0.00000000000E+00 0.  1.
          1   -1    0    0  502    0  0.00000000000E+00 -0.00000000000E+00 -0.30738164002E+04  0.30738164002E+04  0.00000000000E+00 0. -1.
         25    1    1    2    0    0 -0.24660436387E+03 -0.72330003517E+02  0.17423563537E+03  0.33470643603E+03  0.12500000000E+03 0.  0.
          2    1    1    2  502    0  0.17154518311E+03  0.48346017505E+02 -0.29887933006E+04  0.29941026169E+04  0.00000000000E+00 0. -1.
         -2    1    1    2    0  501  0.75059180755E+02  0.23983986012E+02  0.72559699315E+03  0.72986307529E+03  0.00000000000E+00 0.  1.
<mgrwt>
<rscale>  0 0.11877724E+03</rscale>
<asrwt>0</asrwt>
<pdfrwt beam="2">  1        1 0.47289482E+00 0.17904068E+03</pdfrwt>
<pdfrwt beam="1">  1       -1 0.15151627E+00 0.78797920E+02</pdfrwt>
<totfact> 0.27947081E-01</totfact>
</mgrwt>
</event>
<event>
 5    1  0.8459321E-003  0.1097493E+03  0.7546771E-02  0.1351550E+00
          2   -1    0    0  502    0  0.00000000000E+00  0.00000000000E+00  0.24467218371E+03  0.24467218371E+03  0.00000000000E+00 0. -1.
          1   -1    0    0  501    0 -0.00000000000E+00 -0.00000000000E+00 -0.67185135964E+03  0.67185135964E+03  0.00000000000E+00 0. -1.
         25    1    1    2    0    0  0.10401583520E+03  0.10670289674E+03  0.88027230023E+02  0.21349144098E+03  0.12500000000E+03 0.  0.
          2    1    1    2  501    0 -0.58509656302E+02 -0.91456825918E+02 -0.59776115275E+03  0.60754104934E+03  0.00000000000E+00 0. -1.
          1    1    1    2  502    0 -0.45506178895E+02 -0.15246070821E+02  0.82554746792E+02  0.95491053041E+02  0.00000000000E+00 0. -1.
<mgrwt>
<rscale>  0 0.72574894E+02</rscale>
<asrwt>0</asrwt>
<pdfrwt beam="1">  1        2 0.37641875E-01 0.47992239E+02</pdfrwt>
<pdfrwt beam="2">  1        1 0.10336175E+00 0.10974931E+03</pdfrwt>
<totfact> 0.56304084E+02</totfact>
</mgrwt>
</event>
<event>
 5    1  0.8459321E-003  0.4680269E+02  0.7546771E-02  0.1510187E+00
          2   -1    0    0  502    0  0.00000000000E+00  0.00000000000E+00  0.79588192615E+03  0.79588192615E+03  0.00000000000E+00 0. -1.
          1   -1    0    0  501    0 -0.00000000000E+00 -0.00000000000E+00 -0.10448555939E+03  0.10448555939E+03  0.00000000000E+00 0. -1.
         25    1    1    2    0    0  0.18287759377E+02 -0.25414897989E+01  0.16065878481E+03  0.20439458518E+03  0.12500000000E+03 0.  0.
          2    1    1    2  501    0  0.25949536756E+02  0.21549773529E+02 -0.78184412855E+02  0.85150300120E+02  0.00000000000E+00 0. -1.
          1    1    1    2  502    0 -0.44237296132E+02 -0.19008283730E+02  0.60892199479E+03  0.61082260024E+03  0.00000000000E+00 0. -1.
<mgrwt>
<rscale>  0 0.39732798E+02</rscale>
<asrwt>0</asrwt>
<pdfrwt beam="1">  1        2 0.12244337E+00 0.46802693E+02</pdfrwt>
<pdfrwt beam="2">  1        1 0.16074702E-01 0.33730864E+02</pdfrwt>
<totfact> 0.15999730E+03</totfact>
</mgrwt>
</event>
<event>
 5    1  0.8459321E-003  0.1616906E+03  0.7546771E-02  0.1337657E+00
          2   -1    0    0  502    0  0.00000000000E+00  0.00000000000E+00  0.22823889272E+04  0.22823889272E+04  0.00000000000E+00 0. -1.
          1   -1    0    0  501    0 -0.00000000000E+00 -0.00000000000E+00 -0.13335287250E+03  0.13335287250E+03  0.00000000000E+00 0. -1.
         25    1    1    2    0    0 -0.14685006076E+03 -0.11319023151E+03  0.46996397384E+03  0.52044990687E+03  0.12500000000E+03 0.  0.
          2    1    1    2  501    0  0.11017393350E+03  0.11477518586E+03 -0.49277085006E+02  0.16655290456E+03  0.00000000000E+00 0. -1.
          1    1    1    2  502    0  0.36676127262E+02 -0.15849543558E+01  0.17283491658E+04  0.17287389882E+04  0.00000000000E+00 0. -1.
<mgrwt>
<rscale>  0 0.77043622E+02</rscale>
<asrwt>0</asrwt>
<pdfrwt beam="1">  1        2 0.35113673E+00 0.36710358E+02</pdfrwt>
<pdfrwt beam="2">  1        1 0.20515828E-01 0.16169060E+03</pdfrwt>
<totfact> 0.22391264E+02</totfact>
</mgrwt>
</event>
<event>
 5    1  0.8459321E-003  0.4866851E+02  0.7546771E-02  0.1521275E+00
          2   -1    0    0  502    0  0.00000000000E+00  0.00000000000E+00  0.37326705908E+02  0.37326705908E+02  0.00000000000E+00 0. -1.
         -2   -1    0    0    0  501 -0.00000000000E+00 -0.00000000000E+00 -0.21043919563E+04  0.21043919563E+04  0.00000000000E+00 0.  1.
         25    1    1    2    0    0 -0.22975387074E+02 -0.72239696857E+02 -0.12776929186E+04  0.12860290185E+04  0.12500000000E+03 0.  0.
          1    1    1    2  502    0  0.23631638544E+02  0.42139970929E+02  0.15127395161E+02  0.50626767372E+02  0.00000000000E+00 0. -1.
         -1    1    1    2    0  501 -0.65625147089E+00  0.30099725928E+02 -0.80449972696E+03  0.80506287633E+03  0.00000000000E+00 0.  1.
<mgrwt>
<rscale>  0 0.38278675E+02</rscale>
<asrwt>0</asrwt>
<pdfrwt beam="1">  1        2 0.57425710E-02 0.48668510E+02</pdfrwt>
<pdfrwt beam="2">  1       -2 0.32375256E+00 0.30106879E+02</pdfrwt>
<totfact> 0.39706159E+01</totfact>
</mgrwt>
</event>
<event>
 5    1  0.8459321E-003  0.1438896E+03  0.7546771E-02  0.1211408E+00
         -2   -1    0    0    0  501 -0.00000000000E+00  0.00000000000E+00  0.65469709114E+03  0.65469709114E+03  0.00000000000E+00 0.  1.
          2   -1    0    0  502    0  0.00000000000E+00 -0.00000000000E+00 -0.12205525424E+04  0.12205525424E+04  0.00000000000E+00 0. -1.
         25    1    1    2    0    0  0.17732024572E+03 -0.87134021372E+01 -0.27809542800E+03  0.35281788503E+03  0.12500000000E+03 0.  0.
          1    1    1    2  502    0 -0.89606282099E+02 -0.10629677150E+03 -0.89115930641E+03  0.90193857819E+03  0.00000000000E+00 0. -1.
         -1    1    1    2    0  501 -0.87713963619E+02  0.11501017363E+03  0.60339928317E+03  0.62049317030E+03  0.00000000000E+00 0.  1.
<mgrwt>
<rscale>  0 0.14143700E+03</rscale>
<asrwt>0</asrwt>
<pdfrwt beam="2">  1        2 0.18777731E+00 0.13902622E+03</pdfrwt>
<pdfrwt beam="1">  1       -2 0.10072263E+00 0.14388959E+03</pdfrwt>
<totfact> 0.17726229E+01</totfact>
</mgrwt>
</event>
<event>
 5    1  0.8459321E-003  0.4395914E+02  0.7546771E-02  0.1559288E+00
          2   -1    0    0  502    0  0.00000000000E+00  0.00000000000E+00  0.23595200984E+04  0.23595200984E+04  0.00000000000E+00 0. -1.
         -2   -1    0    0    0  501 -0.00000000000E+00 -0.00000000000E+00 -0.30840243972E+03  0.30840243972E+03  0.00000000000E+00 0.  1.
         25    1    1    2    0    0 -0.42170265037E+02  0.40212388116E+02 -0.54344303393E+02  0.14823518719E+03  0.12500000000E+03 0.  0.
          1    1    1    2  502    0  0.16151139508E+02 -0.40864708567E+02  0.23115473354E+04  0.23119649365E+04  0.00000000000E+00 0. -1.
         -1    1    1    2    0  501  0.26019125529E+02  0.65232045114E+00 -0.20608537327E+03  0.20772241451E+03  0.00000000000E+00 0.  1.
<mgrwt>
<rscale>  0 0.33825105E+02</rscale>
<asrwt>0</asrwt>
<pdfrwt beam="1">  1        2 0.36300308E+00 0.43959139E+02</pdfrwt>
<pdfrwt beam="2">  1       -2 0.47446531E-01 0.26027301E+02</pdfrwt>
<totfact> 0.25731205E+01</totfact>
</mgrwt>
</event>
<event>
 5    1  0.8459321E-003  0.6973818E+02  0.7546771E-02  0.1363082E+00
          1   -1    0    0  501    0 -0.00000000000E+00  0.00000000000E+00  0.16589023642E+04  0.16589023642E+04  0.00000000000E+00 0. -1.
          2   -1    0    0  502    0  0.00000000000E+00 -0.00000000000E+00 -0.51119081531E+03  0.51119081531E+03  0.00000000000E+00 0. -1.
         25    1    1    2    0    0 -0.34248442409E+02 -0.70341222485E+02  0.12165678172E+04  0.12254726016E+04  0.12500000000E+03 0.  0.
          2    1    1    2  501    0  0.74374266283E+02  0.13303230937E+02  0.43218993329E+03  0.43874439697E+03  0.00000000000E+00 0. -1.
          1    1    1    2  502    0 -0.40125823874E+02  0.57037991549E+02 -0.50104620165E+03  0.50587618091E+03  0.00000000000E+00 0. -1.
<mgrwt>
<rscale>  0 0.69128582E+02</rscale>
<asrwt>0</asrwt>
<pdfrwt beam="2">  1        2 0.78644741E-01 0.69738183E+02</pdfrwt>
<pdfrwt beam="1">  1        1 0.25521575E+00 0.68524308E+02</pdfrwt>
<totfact> 0.55035423E+01</totfact>
</mgrwt>
</event>
<event>
 5    1  0.8459321E-003  0.7046011E+02  0.7546771E-02  0.1361903E+00
          1   -1    0    0  501    0 -0.00000000000E+00  0.00000000000E+00  0.63540297658E+02  0.63540297658E+02  0.00000000000E+00 0. -1.
          2   -1    0    0  502    0  0.00000000000E+00 -0.00000000000E+00 -0.81820028551E+03  0.81820028551E+03  0.00000000000E+00 0. -1.
         25    1    1    2    0    0  0.16284773152E+02  0.39931005986E+00 -0.26048628022E+03  0.28938461512E+03  0.12500000000E+03 0.  0.
          2    1    1    2  501    0  0.61547835800E+02 -0.30057107026E+02  0.20098163803E+02  0.71382784778E+02  0.00000000000E+00 0. -1.
          1    1    1    2  502    0 -0.77832608952E+02  0.29657796966E+02 -0.51427187143E+03  0.52097318327E+03  0.00000000000E+00 0. -1.
<mgrwt>
<rscale>  0 0.69470612E+02</rscale>
<asrwt>0</asrwt>
<pdfrwt beam="2">  1        2 0.12587696E+00 0.70460115E+02</pdfrwt>
<pdfrwt beam="1">  1        1 0.97754308E-02 0.68495005E+02</pdfrwt>
<totfact> 0.29939863E+03</totfact>
</mgrwt>
</event>
<event>
 5    1  0.8459321E-003  0.3971471E+03  0.7546771E-02  0.1237099E+00
          2   -1    0    0  502    0  0.00000000000E+00  0.00000000000E+00  0.17057017067E+04  0.17057017067E+04  0.00000000000E+00 0. -1.
          1   -1    0    0  501    0 -0.00000000000E+00 -0.00000000000E+00 -0.13723256442E+03  0.13723256442E+03  0.00000000000E+00 0. -1.
         25    1    1    2    0    0 -0.83234015288E+02 -0.39937980544E+03  0.95911009309E+03  0.10497377296E+04  0.12500000000E+03 0.  0.
          2    1    1    2  501    0  0.34340730049E+02  0.17483851967E+02 -0.28649737031E+02  0.48018519883E+02  0.00000000000E+00 0. -1.
          1    1    1    2  502    0  0.48893285239E+02  0.38189595347E+03  0.63800878617E+03  0.74517802158E+03  0.00000000000E+00 0. -1.
<mgrwt>
<rscale>  0 0.12371011E+03</rscale>
<asrwt>0</asrwt>
<pdfrwt beam="1">  1        2 0.26241563E+00 0.39714715E+03</pdfrwt>
<pdfrwt beam="2">  1        1 0.21112703E-01 0.38535319E+02</pdfrwt>
<totfact> 0.31280831E+02</totfact>
</mgrwt>
</event>
<event>
 5    1  0.8459321E-003  0.3474955E+02  0.7546771E-02  0.1607190E+00
          2   -1    0    0  502    0  0.00000000000E+00  0.00000000000E+00  0.12181870888E+02  0.12181870888E+02  0.00000000000E+00 0. -1.
          1   -1    0    0  501    0 -0.00000000000E+00 -0.00000000000E+00 -0.24537382662E+04  0.24537382662E+04  0.00000000000E+00 0. -1.
         25    1    1    2    0    0  0.18723617481E+02  0.27127749019E+01 -0.58110514017E+03  0.59469834112E+03  0.12500000000E+03 0.  0.
          2    1    1    2  501    0 -0.22801990519E+02 -0.26895347672E+02 -0.18368415077E+04  0.18371799082E+04  0.00000000000E+00 0. -1.
          1    1    1    2  502    0  0.40783730379E+01  0.24182572770E+02 -0.23609747466E+02  0.34041887842E+02  0.00000000000E+00 0. -1.
<mgrwt>
<rscale>  0 0.29192470E+02</rscale>
<asrwt>0</asrwt>
<pdfrwt beam="1">  1        2 0.18741342E-02 0.24524069E+02</pdfrwt>
<pdfrwt beam="2">  1        1 0.37749816E+00 0.34749548E+02</pdfrwt>
<totfact> 0.13424134E+03</totfact>
</mgrwt>
</event>
<event>
 5    1  0.8459321E-003  0.1596958E+03  0.7546771E-02  0.1351900E+00
          1   -1    0    0  501    0 -0.00000000000E+00  0.00000000000E+00  0.23260772494E+03  0.23260772494E+03  0.00000000000E+00 0. -1.
          2   -1    0    0  502    0  0.00000000000E+00 -0.00000000000E+00 -0.23231485782E+04  0.23231485782E+04  0.00000000000E+00 0. -1.
         25    1    1    2    0    0  0.15449982847E+03  0.19955566971E+01 -0.56098262854E+03  0.59514761931E+03  0.12500000000E+03 0.  0.
          2    1    1    2  501    0 -0.15628941003E+03 -0.34830769227E+02  0.18560507374E+03  0.24513018087E+03  0.00000000000E+00 0. -1.
          1    1    1    2  502    0  0.17895815604E+01  0.32835212530E+02 -0.17151632984E+04  0.17154785030E+04  0.00000000000E+00 0. -1.
<mgrwt>
<rscale>  0 0.72466746E+02</rscale>
<asrwt>0</asrwt>
<pdfrwt beam="2">  1        2 0.35740748E+00 0.32883944E+02</pdfrwt>
<pdfrwt beam="1">  1        1 0.35785804E-01 0.15969585E+03</pdfrwt>
<totfact> 0.10794048E+02</totfact>
</mgrwt>
</event>
<event>
 5    1  0.8459321E-003  0.2621555E+02  0.7546771E-02  0.1659397E+00
         -2   -1    0    0    0  501 -0.00000000000E+00  0.00000000000E+00  0.16875124487E+03  0.16875124487E+03  0.00000000000E+00 0.  1.
          2   -1    0    0  502    0  0.00000000000E+00 -0.00000000000E+00 -0.82895832127E+03  0.82895832127E+03  0.00000000000E+00 0. -1.
         25    1    1    2    0    0 -0.56011916030E+01 -0.48789639212E+02  0.47677463245E+02  0.14251295641E+03  0.12500000000E+03 0.  0.
          1    1    1    2  502    0  0.10028079524E+01  0.24034195200E+02 -0.77919771090E+03  0.77956893270E+03  0.00000000000E+00 0. -1.
         -1    1    1    2    0  501  0.45983836506E+01  0.24755444012E+02  0.71313171251E+02  0.75627677039E+02  0.00000000000E+00 0.  1.
<mgrwt>
<rscale>  0 0.25112105E+02</rscale>
<asrwt>0</asrwt>
<pdfrwt beam="2">  1        2 0.12753204E+00 0.24055107E+02</pdfrwt>
<pdfrwt beam="1">  1       -2 0.25961731E-01 0.26215548E+02</pdfrwt>
<totfact> 0.46358427E+02</totfact>
</mgrwt>
</event>
<event>
 5    1  0.8459321E-003  0.3549217E+02  0.7546771E-02  0.1549001E+00
          2   -1    0    0  502    0  0.00000000000E+00  0.00000000000E+00  0.31316267666E+02  0.31316267666E+02  0.00000000000E+00 0. -1.
          1   -1    0    0  501    0 -0.00000000000E+00 -0.00000000000E+00 -0.49909069278E+03  0.49909069278E+03  0.00000000000E+00 0. -1.
         25    1    1    2    0    0 -0.24997959141E+02 -0.45099757949E+01 -0.26859775464E+03  0.29734658505E+03  0.12500000000E+03 0.  0.
          2    1    1    2  501    0  0.89985963395E+01  0.36191426432E+02 -0.19356799571E+03  0.19712778355E+03  0.00000000000E+00 0. -1.
          1    1    1    2  502    0  0.15999362801E+02 -0.31681450637E+02 -0.56086747660E+01  0.35932591851E+02  0.00000000000E+00 0. -1.
<mgrwt>
<rscale>  0 0.34954997E+02</rscale>
<asrwt>0</asrwt>
<pdfrwt beam="1">  1        2 0.48178877E-02 0.35492167E+02</pdfrwt>
<pdfrwt beam="2">  1        1 0.76783178E-01 0.34425957E+02</pdfrwt>
<totfact> 0.87509922E+03</totfact>
</mgrwt>
</event>
<event>
 5    1  0.8459321E-003  0.4472648E+02  0.7546771E-02  0.1512497E+00
          2   -1    0    0  502    0  0.00000000000E+00  0.00000000000E+00  0.14737719609E+04  0.14737719609E+04  0.00000000000E+00 0. -1.
          1   -1    0    0  501    0 -0.00000000000E+00 -0.00000000000E+00 -0.76736309579E+02  0.76736309579E+02  0.00000000000E+00 0. -1.
         25    1    1    2    0    0 -0.39439789295E+02  0.41655650849E+01  0.10791063874E+03  0.16983095968E+03  0.12500000000E+03 0.  0.
          2    1    1    2  501    0  0.34835470802E+02  0.30277426460E+02 -0.33855768688E+02  0.57240245042E+02  0.00000000000E+00 0. -1.
          1    1    1    2  502    0  0.46043184928E+01 -0.34442991545E+02  0.13229807813E+04  0.13234370658E+04  0.00000000000E+00 0. -1.
<mgrwt>
<rscale>  0 0.39423564E+02</rscale>
<asrwt>0</asrwt>
<pdfrwt beam="1">  1        2 0.22673413E+00 0.34749380E+02</pdfrwt>
<pdfrwt beam="2">  1        1 0.11805587E-01 0.44726479E+02</pdfrwt>
<totfact> 0.10481917E+03</totfact>
</mgrwt>
</event>
<event>
 5    1  0.8459321E-003  0.8177386E+02  0.7546771E-02  0.1391633E+00
         -2   -1    0    0    0  501  0.00000000000E+00  0.00000000000E+00  0.11081542113E+03  0.11081542113E+03  0.00000000000E+00 0.  1.
         -1   -1    0    0    0  502 -0.00000000000E+00 -0.00000000000E+00 -0.72742862614E+03  0.72742862614E+03  0.00000000000E+00 0.  1.
         25    1    1    2    0    0 -0.32106198864E+02 -0.60628736202E+02 -0.25817663799E+03  0.29493529471E+03  0.12500000000E+03 0.  0.
         -2    1    1    2    0  502 -0.41265155407E+02  0.20899891591E+02 -0.43054957065E+03  0.43302719465E+03  0.00000000000E+00 0.  1.
         -1    1    1    2    0  501  0.73371354271E+02  0.39728844611E+02  0.72113003637E+02  0.11028155791E+03  0.00000000000E+00 0.  1.
<mgrwt>
<rscale>  0 0.61502297E+02</rscale>
<asrwt>0</asrwt>
<pdfrwt beam="1">  1       -2 0.17048526E-01 0.81773859E+02</pdfrwt>
<pdfrwt beam="2">  1       -1 0.11191210E+00 0.46256011E+02</pdfrwt>
<totfact> 0.16595907E+02</totfact>
</mgrwt>
</event>
<event>
 5    1  0.8459321E-003  0.7943353E+02  0.7546771E-02  0.1458460E+00
          2   -1    0    0  502    0  0.00000000000E+00  0.00000000000E+00  0.24241966020E+04  0.24241966020E+04  0.00000000000E+00 0. -1.
          1   -1    0    0  501    0 -0.00000000000E+00 -0.00000000000E+00 -0.20612898258E+02  0.20612898258E+02  0.00000000000E+00 0. -1.
         25    1    1    2    0    0 -0.55420331742E+02 -0.40936097323E+02  0.12460462929E+04  0.12541943794E+04  0.12500000000E+03 0.  0.
          2    1    1    2  501    0  0.44347179536E+02  0.67284785584E+02  0.82953496599E+02  0.11565118807E+03  0.00000000000E+00 0. -1.
          1    1    1    2  502    0  0.11073152205E+02 -0.26348688261E+02  0.10745839143E+04  0.10749639329E+04  0.00000000000E+00 0. -1.
<mgrwt>
<rscale>  0 0.47647477E+02</rscale>
<asrwt>0</asrwt>
<pdfrwt beam="1">  1        2 0.37295310E+00 0.28580904E+02</pdfrwt>
<pdfrwt beam="2">  1        1 0.31712170E-02 0.79433530E+02</pdfrwt>
<totfact> 0.22505162E+03</totfact>
</mgrwt>
</event>
<event>
 5    1  0.8459321E-003  0.1008529E+03  0.7546771E-02  0.1285266E+00
          1   -1    0    0  501    0 -0.00000000000E+00  0.00000000000E+00  0.94305738739E+03  0.94305738739E+03  0.00000000000E+00 0. -1.
          2   -1    0    0  502    0  0.00000000000E+00 -0.00000000000E+00 -0.50702714701E+03  0.50702714701E+03  0.00000000000E+00 0. -1.
         25    1    1    2    0    0 -0.12596049904E+02 -0.71694963090E+01 -0.18640473439E+03  0.22490395095E+03  0.12500000000E+03 0.  0.
          2    1    1    2  501    0  0.92212268755E+02 -0.43911102065E+02  0.91346834971E+03  0.91916033058E+03  0.00000000000E+00 0. -1.
          1    1    1    2  502    0 -0.79616218851E+02  0.51080598374E+02 -0.29103337494E+03  0.30602025287E+03  0.00000000000E+00 0. -1.
<mgrwt>
<rscale>  0 0.97673158E+02</rscale>
<asrwt>0</asrwt>
<pdfrwt beam="2">  1        2 0.78004177E-01 0.94593709E+02</pdfrwt>
<pdfrwt beam="1">  1        1 0.14508575E+00 0.10085286E+03</pdfrwt>
<totfact> 0.15981889E+02</totfact>
</mgrwt>
</event>
<event>
 5    1  0.8459321E-003  0.2305948E+03  0.7546771E-02  0.1140657E+00
          2   -1    0    0  502    0  0.00000000000E+00  0.00000000000E+00  0.11215185673E+04  0.11215185673E+04  0.00000000000E+00 0. -1.
          1   -1    0    0  501    0 -0.00000000000E+00 -0.00000000000E+00 -0.69699702906E+03  0.69699702906E+03  0.00000000000E+00 0. -1.
         25    1    1    2    0    0  0.50044955651E+02 -0.39670504524E+03  0.94265133336E+02  0.42940692341E+03  0.12500000000E+03 0.  0.
          2    1    1    2  501    0  0.18311733847E+02  0.21584417959E+03 -0.49562557522E+03  0.54089623799E+03  0.00000000000E+00 0. -1.
          1    1    1    2  502    0 -0.68356689499E+02  0.18086086565E+03  0.82588198011E+03  0.84821243494E+03  0.00000000000E+00 0. -1.
<mgrwt>
<rscale>  0 0.21115149E+03</rscale>
<asrwt>0</asrwt>
<pdfrwt beam="1">  1        2 0.17254132E+00 0.19334759E+03</pdfrwt>
<pdfrwt beam="2">  1        1 0.10723031E+00 0.23059482E+03</pdfrwt>
<totfact> 0.88775341E+01</totfact>
</mgrwt>
</event>
<event>
 5    1  0.8459321E-003  0.1176284E+03  0.7546771E-02  0.1353026E+00
         -1   -1    0    0    0  502 -0.00000000000E+00  0.00000000000E+00  0.15460175527E+04  0.15460175527E+04  0.00000000000E+00 0.  1.
         -2   -1    0    0    0  501  0.00000000000E+00 -0.00000000000E+00 -0.18055689618E+03  0.18055689618E+03  0.00000000000E+00 0.  1.
         25    1    1    2    0    0 -0.67847949756E+02 -0.89842651738E+02  0.91536633766E+03  0.93069628691E+03  0.12500000000E+03 0.  0.
         -2    1    1    2    0  502  0.37137758084E+02 -0.24002037698E+02  0.60197589506E+03  0.60359778754E+03  0.00000000000E+00 0.  1.
         -1    1    1    2    0  501  0.30710191672E+02  0.11384468944E+03 -0.15188157622E+03  0.19228037440E+03  0.00000000000E+00 0.  1.
<mgrwt>
<rscale>  0 0.72120719E+02</rscale>
<asrwt>0</asrwt>
<pdfrwt beam="2">  1       -2 0.27777985E-01 0.11762840E+03</pdfrwt>
<pdfrwt beam="1">  1       -1 0.23784885E+00 0.44218897E+02</pdfrwt>
<totfact> 0.98387314E+00</totfact>
</mgrwt>
</event>
<event>
 5    1  0.1777388E-002  0.5808639E+02  0.7546771E-02  0.1458564E+00
          1   -1    0    0  501    0 -0.00000000000E+00  0.00000000000E+00  0.84750155140E+03  0.84750155140E+03  0.00000000000E+00 0. -1.
          2   -1    0    0  502    0  0.00000000000E+00 -0.00000000000E+00 -0.24343213329E+04  0.24343213329E+04  0.00000000000E+00 0. -1.
         25    1    1    2    0    0 -0.56957399256E+02  0.78311933418E+02  0.26940585021E+03  0.31238024325E+03  0.12500000000E+03 0.  0.
          2    1    1    2  501    0  0.25698478354E+02 -0.29408634855E+02  0.55557386327E+03  0.55694487801E+03  0.00000000000E+00 0. -1.
          1    1    1    2  502    0  0.31258920901E+02 -0.48903298563E+02 -0.24117994950E+04  0.24124977631E+04  0.00000000000E+00 0. -1.
<mgrwt>
<rscale>  0 0.47629341E+02</rscale>
<asrwt>0</asrwt>
<pdfrwt beam="2">  1        2 0.37451096E+00 0.58086393E+02</pdfrwt>
<pdfrwt beam="1">  1        1 0.13038486E+00 0.39054828E+02</pdfrwt>
<totfact> 0.17079151E+01</totfact>
</mgrwt>
</event>
<event>
 5    1  0.8459321E-003  0.7793816E+02  0.7546771E-02  0.1337295E+00
          2   -1    0    0  502    0  0.00000000000E+00  0.00000000000E+00  0.14815910944E+04  0.14815910944E+04  0.00000000000E+00 0. -1.
          1   -1    0    0  501    0 -0.00000000000E+00 -0.00000000000E+00 -0.18240358485E+03  0.18240358485E+03  0.00000000000E+00 0. -1.
         25    1    1    2    0    0  0.71327454305E+02 -0.13303056182E+03  0.59984401944E+03  0.63104879667E+03  0.12500000000E+03 0.  0.
          2    1    1    2  501    0 -0.23973188953E+02  0.73076556740E+02 -0.15614225522E+03  0.17405545323E+03  0.00000000000E+00 0. -1.
          1    1    1    2  502    0 -0.47354265353E+02  0.59954005081E+02  0.85548574530E+03  0.85889042933E+03  0.00000000000E+00 0. -1.
<mgrwt>
<rscale>  0 0.77165081E+02</rscale>
<asrwt>0</asrwt>
<pdfrwt beam="1">  1        2 0.22793708E+00 0.76399667E+02</pdfrwt>
<pdfrwt beam="2">  1        1 0.28062091E-01 0.77938162E+02</pdfrwt>
<totfact> 0.33893482E+02</totfact>
</mgrwt>
</event>
<event>
 5    1  0.8459321E-003  0.1103666E+03  0.7546771E-02  0.1441331E+00
          2   -1    0    0  502    0  0.00000000000E+00  0.00000000000E+00  0.20100563151E+03  0.20100563151E+03  0.00000000000E+00 0. -1.
          1   -1    0    0  501    0 -0.00000000000E+00 -0.00000000000E+00 -0.21929809269E+03  0.21929809269E+03  0.00000000000E+00 0. -1.
         25    1    1    2    0    0 -0.26748196417E+02 -0.11852951215E+03 -0.81043548293E+02  0.19224403237E+03  0.12500000000E+03 0.  0.
          2    1    1    2  501    0  0.21197251697E+02  0.97632715622E+01 -0.59750506409E+02  0.64146457168E+02  0.00000000000E+00 0. -1.
          1    1    1    2  502    0  0.55509447195E+01  0.10876624059E+03  0.12250159352E+03  0.16391323466E+03  0.00000000000E+00 0. -1.
<mgrwt>
<rscale>  0 0.50751301E+02</rscale>
<asrwt>0</asrwt>
<pdfrwt beam="1">  1        2 0.30923943E-01 0.11036659E+03</pdfrwt>
<pdfrwt beam="2">  1        1 0.33738168E-01 0.23337630E+02</pdfrwt>
<totfact> 0.28263214E+03</totfact>
</mgrwt>
</event>
<event>
 5    1  0.8459321E-003  0.8285042E+02  0.7546771E-02  0.1365914E+00
          2   -1    0    0  502    0  0.00000000000E+00  0.00000000000E+00  0.13924335574E+04  0.13924335574E+04  0.00000000000E+00 0. -1.
          1   -1    0    0  501    0 -0.00000000000E+00 -0.00000000000E+00 -0.69063051496E+02  0.69063051496E+02  0.00000000000E+00 0. -1.
         25    1    1    2    0    0 -0.61554338736E+02  0.52312831677E+02  0.17763400229E+03  0.23174211474E+03  0.12500000000E+03 0.  0.
          2    1    1    2  501    0 -0.22411843296E+02 -0.51681706243E+02 -0.20911875072E+02  0.60088235114E+02  0.00000000000E+00 0. -1.
          1    1    1    2  502    0  0.83966182032E+02 -0.63112543338E+00  0.11666483787E+04  0.11696662591E+04  0.00000000000E+00 0. -1.
<mgrwt>
<rscale>  0 0.68316368E+02</rscale>
<asrwt>0</asrwt>
<pdfrwt beam="1">  1        2 0.21422053E+00 0.82850415E+02</pdfrwt>
<pdfrwt beam="2">  1        1 0.10625086E-01 0.56331958E+02</pdfrwt>
<totfact> 0.12462351E+03</totfact>
</mgrwt>
</event>
<event>
 5    1  0.8459321E-003  0.1203514E+03  0.7546771E-02  0.1372451E+00
          2   -1    0    0  502    0  0.00000000000E+00  0.00000000000E+00  0.18805531138E+04  0.18805531138E+04  0.00000000000E+00 0. -1.
          1   -1    0    0  501    0 -0.00000000000E+00 -0.00000000000E+00 -0.17434424568E+03  0.17434424568E+03  0.00000000000E+00 0. -1.
         25    1    1    2    0    0 -0.47657106567E+01 -0.11360369127E+02 -0.94454891829E+02  0.15715755335E+03  0.12500000000E+03 0.  0.
          2    1    1    2  501    0 -0.10405144854E+03  0.62773319337E+02  0.32915291393E+02  0.12589920560E+03  0.00000000000E+00 0. -1.
          1    1    1    2  502    0  0.10881715919E+03 -0.51412950210E+02  0.17677484685E+04  0.17718406005E+04  0.00000000000E+00 0. -1.
<mgrwt>
<rscale>  0 0.66490410E+02</rscale>
<asrwt>0</asrwt>
<pdfrwt beam="1">  1        2 0.28931585E+00 0.12035143E+03</pdfrwt>
<pdfrwt beam="2">  1        1 0.26822193E-01 0.36733878E+02</pdfrwt>
<totfact> 0.21130201E+02</totfact>
</mgrwt>
</event>
<event>
 5    1  0.8459321E-003  0.6265483E+02  0.7546771E-02  0.1511121E+00
          2   -1    0    0  502    0  0.00000000000E+00  0.00000000000E+00  0.49396511487E+03  0.49396511487E+03  0.00000000000E+00 0. -1.
         -2   -1    0    0    0  501 -0.00000000000E+00 -0.00000000000E+00 -0.40827828384E+02  0.40827828384E+02  0.00000000000E+00 0.  1.
         25    1    1    2    0    0 -0.41454046709E+02 -0.55038165004E+02  0.16659686880E+03  0.21937901971E+03  0.12500000000E+03 0.  0.
          1    1    1    2  502    0  0.24674187684E+02 -0.42520274796E+01  0.23132352835E+03  0.23267460120E+03  0.00000000000E+00 0. -1.
         -1    1    1    2    0  501  0.16779859025E+02  0.59290192484E+02  0.55216889340E+02  0.82739322345E+02  0.00000000000E+00 0.  1.
<mgrwt>
<rscale>  0 0.39607372E+02</rscale>
<asrwt>0</asrwt>
<pdfrwt beam="1">  1        2 0.75994629E-01 0.25037877E+02</pdfrwt>
<pdfrwt beam="2">  1       -2 0.62812047E-02 0.62654829E+02</pdfrwt>
<totfact> 0.79210215E+03</totfact>
</mgrwt>
</event>
<event>
 5    1  0.8459321E-003  0.5086186E+02  0.7546771E-02  0.1556975E+00
         -2   -1    0    0    0  501 -0.00000000000E+00  0.00000000000E+00  0.32550290069E+03  0.32550290069E+03  0.00000000000E+00 0.  1.
          2   -1    0    0  502    0  0.00000000000E+00 -0.00000000000E+00 -0.27648445159E+03  0.27648445159E+03  0.00000000000E+00 0. -1.
         25    1    1    2    0    0 -0.52579247695E+02  0.24528622710E+02  0.18002498424E+03  0.22671617845E+03  0.12500000000E+03 0.  0.
          1    1    1    2  502    0  0.50798236717E+02 -0.17700521751E+01 -0.24948668341E+03  0.25461185978E+03  0.00000000000E+00 0. -1.
         -1    1    1    2    0  501  0.17810109786E+01 -0.22758570535E+02  0.11848014827E+03  0.12065931405E+03  0.00000000000E+00 0.  1.
<mgrwt>
<rscale>  0 0.34074658E+02</rscale>
<asrwt>0</asrwt>
<pdfrwt beam="2">  1        2 0.42536069E-01 0.50861860E+02</pdfrwt>
<pdfrwt beam="1">  1       -2 0.50077369E-01 0.22828152E+02</pdfrwt>
<totfact> 0.44818333E+02</totfact>
</mgrwt>
</event>
<event>
 5    1  0.8459321E-003  0.1303849E+03  0.7546771E-02  0.1266350E+00
         -2   -1    0    0    0  501 -0.00000000000E+00  0.00000000000E+00  0.18929961086E+04  0.18929961086E+04  0.00000000000E+00 0.  1.
          2   -1    0    0  502    0  0.00000000000E+00 -0.00000000000E+00 -0.93978956863E+03  0.93978956863E+03  0.00000000000E+00 0. -1.
         25    1    1    2    0    0  0.25100984098E+02 -0.12146224709E+03  0.36838936201E+02  0.17990342990E+03  0.12500000000E+03 0.  0.
          1    1    1    2  502    0  0.62449897539E+02  0.11625728942E+03 -0.86215589109E+03  0.87219752785E+03  0.00000000000E+00 0. -1.
         -1    1    1    2    0  501 -0.87550881637E+02  0.52049576712E+01  0.17785234948E+04  0.17806847194E+04  0.00000000000E+00 0.  1.
<mgrwt>
<rscale>  0 0.10693676E+03</rscale>
<asrwt>0</asrwt>
<pdfrwt beam="2">  1        2 0.14458301E+00 0.13038492E+03</pdfrwt>
<pdfrwt beam="1">  1       -2 0.29123017E+00 0.87705464E+02</pdfrwt>
<totfact> 0.13970247E+00</totfact>
</mgrwt>
</event>
<event>
 5    1  0.8459321E-003  0.7366800E+02  0.7546771E-02  0.1455636E+00
         -2   -1    0    0    0  501 -0.00000000000E+00  0.00000000000E+00  0.73184126032E+01  0.73184126032E+01  0.00000000000E+00 0.  1.
          2   -1    0    0  502    0  0.00000000000E+00 -0.00000000000E+00 -0.24255021053E+04  0.24255021053E+04  0.00000000000E+00 0. -1.
         25    1    1    2    0    0 -0.48468028280E+02  0.43835178788E+02 -0.17300135420E+04  0.17357541670E+04  0.12500000000E+03 0.  0.
          1    1    1    2  502    0  0.16371548012E+02  0.26863368200E+02 -0.14488049580E+03  0.14825662278E+03  0.00000000000E+00 0. -1.
         -1    1    1    2    0  501  0.32096480269E+02 -0.70698546988E+02 -0.54328965495E+03  0.54880972820E+03  0.00000000000E+00 0.  1.
<mgrwt>
<rscale>  0 0.48140637E+02</rscale>
<asrwt>0</asrwt>
<pdfrwt beam="2">  1        2 0.37315402E+00 0.31458991E+02</pdfrwt>
<pdfrwt beam="1">  1       -2 0.11259101E-02 0.73667999E+02</pdfrwt>
<totfact> 0.87495910E+03</totfact>
</mgrwt>
</event>
<event>
 5    1  0.8459321E-003  0.7679707E+02  0.7546771E-02  0.1369730E+00
          1   -1    0    0  501    0 -0.00000000000E+00  0.00000000000E+00  0.18256408894E+04  0.18256408894E+04  0.00000000000E+00 0. -1.
          2   -1    0    0  502    0  0.00000000000E+00 -0.00000000000E+00 -0.36031614368E+02  0.36031614368E+02  0.00000000000E+00 0. -1.
         25    1    1    2    0    0 -0.31711854773E+02 -0.26886982943E+01  0.53233394112E+03  0.54773834602E+03  0.12500000000E+03 0.  0.
          2    1    1    2  501    0  0.74134324374E+02  0.43514461241E+02  0.12518616768E+04  0.12548095729E+04  0.00000000000E+00 0. -1.
          1    1    1    2  502    0 -0.42422469602E+02 -0.40825762946E+02  0.54136570781E+01  0.59124584820E+02  0.00000000000E+00 0. -1.
<mgrwt>
<rscale>  0 0.67242257E+02</rscale>
<asrwt>0</asrwt>
<pdfrwt beam="2">  1        2 0.55433267E-02 0.58876216E+02</pdfrwt>
<pdfrwt beam="1">  1        1 0.28086776E+00 0.76797075E+02</pdfrwt>
<totfact> 0.82496980E+02</totfact>
</mgrwt>
</event>
<event>
 5    1  0.8459321E-003  0.1307771E+03  0.7546771E-02  0.1252935E+00
          1   -1    0    0  501    0 -0.00000000000E+00  0.00000000000E+00  0.12180684916E+04  0.12180684916E+04  0.00000000000E+00 0. -1.
          2   -1    0    0  502    0  0.00000000000E+00 -0.00000000000E+00 -0.18481859164E+04  0.18481859164E+04  0.00000000000E+00 0. -1.
         25    1    1    2    0    0 -0.12057956370E+03  0.94759284784E+02 -0.42581872217E+03  0.46953736527E+03  0.12500000000E+03 0.  0.
          2    1    1    2  501    0  0.93625012654E+02  0.34482683140E+02  0.11910072504E+04  0.11951790531E+04  0.00000000000E+00 0. -1.
          1    1    1    2  502    0  0.26954551044E+02 -0.12924196792E+03 -0.13953059529E+04  0.14015379896E+04  0.00000000000E+00 0. -1.
<mgrwt>
<rscale>  0 0.11422809E+03</rscale>
<asrwt>0</asrwt>
<pdfrwt beam="2">  1        2 0.28433629E+00 0.13077712E+03</pdfrwt>
<pdfrwt beam="1">  1        1 0.18739515E+00 0.99773235E+02</pdfrwt>
<totfact> 0.15830812E+01</totfact>
</mgrwt>
</event>
<event>
 5    1  0.8459321E-003  0.3747518E+02  0.7546771E-02  0.1536173E+00
          2   -1    0    0  502    0  0.00000000000E+00  0.00000000000E+00  0.36411570590E+03  0.36411570590E+03  0.00000000000E+00 0. -1.
         -2   -1    0    0    0  501 -0.00000000000E+00 -0.00000000000E+00 -0.11278641231E+04  0.11278641231E+04  0.00000000000E+00 0.  1.
         25    1    1    2    0    0  0.17497823323E+02  0.17691643305E+02 -0.36903240496E+02  0.13268766794E+03  0.12500000000E+03 0.  0.
          1    1    1    2  502    0  0.13149218837E+02 -0.35475728650E+02  0.31478950789E+03  0.31705498507E+03  0.00000000000E+00 0. -1.
         -1    1    1    2    0  501 -0.30647042161E+02  0.17784085345E+02 -0.10416346846E+04  0.10422371760E+04  0.00000000000E+00 0.  1.
<mgrwt>
<rscale>  0 0.36439914E+02</rscale>
<asrwt>0</asrwt>
<pdfrwt beam="1">  1        2 0.56017801E-01 0.37475182E+02</pdfrwt>
<pdfrwt beam="2">  1       -2 0.17351756E+00 0.35433245E+02</pdfrwt>
<totfact> 0.21617843E+01</totfact>
</mgrwt>
</event>
<event>
 5    1  0.8459321E-003  0.7829105E+02  0.7546771E-02  0.1414982E+00
          2   -1    0    0  502    0  0.00000000000E+00  0.00000000000E+00  0.17928547053E+04  0.17928547053E+04  0.00000000000E+00 0. -1.
         -2   -1    0    0    0  501 -0.00000000000E+00 -0.00000000000E+00 -0.52214914807E+02  0.52214914807E+02  0.00000000000E+00 0.  1.
         25    1    1    2    0    0 -0.10893932256E+03 -0.21194930545E+02  0.90722721963E+03  0.92249836267E+03  0.12500000000E+03 0.  0.
          3    1    1    2  502    0  0.31820830202E+02  0.24556640030E+02  0.84373547961E+03  0.84469234242E+03  0.00000000000E+00 0. -1.
         -1    1    1    2    0  501  0.77118492360E+02 -0.33617094850E+01 -0.10322908771E+02  0.77878914991E+02  0.00000000000E+00 0.  1.
<mgrwt>
<rscale>  0 0.56096931E+02</rscale>
<asrwt>0</asrwt>
<pdfrwt beam="1">  1        2 0.27582375E+00 0.40194450E+02</pdfrwt>
<pdfrwt beam="2">  1       -2 0.80330652E-02 0.78291050E+02</pdfrwt>
<totfact> 0.99305488E+02</totfact>
</mgrwt>
</event>
<event>
 5    1  0.8459321E-003  0.1475789E+03  0.7546771E-02  0.1243326E+00
          2   -1    0    0  502    0  0.00000000000E+00  0.00000000000E+00  0.37121621578E+03  0.37121621578E+03  0.00000000000E+00 0. -1.
          1   -1    0    0  501    0 -0.00000000000E+00 -0.00000000000E+00 -0.89372077071E+03  0.89372077071E+03  0.00000000000E+00 0. -1.
         25    1    1    2    0    0 -0.70229580516E+02 -0.87222569470E+02  0.73952966861E+02  0.18339577943E+03  0.12500000000E+03 0.  0.
          2    1    1    2  501    0  0.14807030541E+03  0.28761434531E+02 -0.82208493692E+03  0.83580839848E+03  0.00000000000E+00 0. -1.
          1    1    1    2  502    0 -0.77840724891E+02  0.58461134940E+02  0.22562741514E+03  0.24573280858E+03  0.00000000000E+00 0. -1.
<mgrwt>
<rscale>  0 0.11986118E+03</rscale>
<asrwt>0</asrwt>
<pdfrwt beam="1">  1        2 0.57110187E-01 0.97349282E+02</pdfrwt>
<pdfrwt beam="2">  1        1 0.13749550E+00 0.14757893E+03</pdfrwt>
<totfact> 0.23747197E+02</totfact>
</mgrwt>
</event>
<event>
 5    1  0.8459321E-003  0.4914738E+02  0.7546771E-02  0.1502435E+00
          2   -1    0    0  502    0  0.00000000000E+00  0.00000000000E+00  0.25583177228E+04  0.25583177228E+04  0.00000000000E+00 0. -1.
         -2   -1    0    0    0  501 -0.00000000000E+00 -0.00000000000E+00 -0.19303901575E+03  0.19303901575E+03  0.00000000000E+00 0.  1.
         25    1    1    2    0    0 -0.55475203773E+02  0.25955354021E+02  0.12915404528E+02  0.13979623139E+03  0.12500000000E+03 0.  0.
          1    1    1    2  502    0  0.29927371225E+02  0.15845638742E+02  0.24772123365E+04  0.24774437818E+04  0.00000000000E+00 0. -1.
         -3    1    1    2    0  501  0.25547832548E+02 -0.41800992764E+02 -0.12484903397E+03  0.13411672538E+03  0.00000000000E+00 0.  1.
<mgrwt>
<rscale>  0 0.40795820E+02</rscale>
<asrwt>0</asrwt>
<pdfrwt beam="1">  1        2 0.39358732E+00 0.33863429E+02</pdfrwt>
<pdfrwt beam="2">  1       -2 0.29698312E-01 0.49147384E+02</pdfrwt>
<totfact> 0.50624277E+01</totfact>
</mgrwt>
</event>
<event>
 5    1  0.8459321E-003  0.1098722E+03  0.7546771E-02  0.1355658E+00
          2   -1    0    0  502    0  0.00000000000E+00  0.00000000000E+00  0.14966385653E+04  0.14966385653E+04  0.00000000000E+00 0. -1.
          1   -1    0    0  501    0 -0.00000000000E+00 -0.00000000000E+00 -0.23061948450E+02  0.23061948450E+02  0.00000000000E+00 0. -1.
         25    1    1    2    0    0  0.90972186303E+02  0.10563220043E+03  0.10626261221E+04  0.10789964670E+04  0.12500000000E+03 0.  0.
          2    1    1    2  501    0 -0.46254702338E+02 -0.93644624095E+02  0.21063639171E+03  0.23510955451E+03  0.00000000000E+00 0. -1.
          1    1    1    2  502    0 -0.44717483965E+02 -0.11987576331E+02  0.20031410308E+03  0.20559449227E+03  0.00000000000E+00 0. -1.
<mgrwt>
<rscale>  0 0.71320993E+02</rscale>
<asrwt>0</asrwt>
<pdfrwt beam="1">  1        2 0.23025201E+00 0.46296386E+02</pdfrwt>
<pdfrwt beam="2">  1        1 0.35479932E-02 0.10987216E+03</pdfrwt>
<totfact> 0.52893002E+03</totfact>
</mgrwt>
</event>
<event>
 5    1  0.8459321E-003  0.1285824E+03  0.7546771E-02  0.1405659E+00
          2   -1    0    0  502    0  0.00000000000E+00  0.00000000000E+00  0.21832813392E+03  0.21832813392E+03  0.00000000000E+00 0. -1.
          1   -1    0    0  501    0 -0.00000000000E+00 -0.00000000000E+00 -0.94857481733E+03  0.94857481733E+03  0.00000000000E+00 0. -1.
         25    1    1    2    0    0  0.30396466873E+02 -0.99058924727E+02  0.25901341822E+02  0.16441561749E+03  0.12500000000E+03 0.  0.
          2    1    1    2  501    0 -0.35706069943E+02  0.12483698467E+03 -0.87305341260E+03  0.88265591111E+03  0.00000000000E+00 0. -1.
          1    1    1    2  502    0  0.53096030700E+01 -0.25778059941E+02  0.11690538737E+03  0.11983142265E+03  0.00000000000E+00 0. -1.
<mgrwt>
<rscale>  0 0.58173765E+02</rscale>
<asrwt>0</asrwt>
<pdfrwt beam="1">  1        2 0.33588944E-01 0.26319199E+02</pdfrwt>
<pdfrwt beam="2">  1        1 0.14593458E+00 0.12858244E+03</pdfrwt>
<totfact> 0.36762314E+02</totfact>
</mgrwt>
</event>
<event>
 5    1  0.8459321E-003  0.6891449E+02  0.7546771E-02  0.1376788E+00
          1   -1    0    0  501    0 -0.00000000000E+00  0.00000000000E+00  0.10784202590E+04  0.10784202590E+04  0.00000000000E+00 0. -1.
          2   -1    0    0  502    0  0.00000000000E+00 -0.00000000000E+00 -0.28112165763E+03  0.28112165763E+03  0.00000000000E+00 0. -1.
         25    1    1    2    0    0 -0.61176144798E+02  0.91505230875E+00  0.66576791038E+03  0.68015826725E+03  0.12500000000E+03 0.  0.
          2    1    1    2  501    0  0.34819024148E+02 -0.64590083924E+02  0.39771284207E+03  0.40442520709E+03  0.00000000000E+00 0. -1.
          1    1    1    2  502    0  0.26357120649E+02  0.63675031615E+02 -0.26618215106E+03  0.27495844232E+03  0.00000000000E+00 0. -1.
<mgrwt>
<rscale>  0 0.65315582E+02</rscale>
<asrwt>0</asrwt>
<pdfrwt beam="2">  1        2 0.43249486E-01 0.68914494E+02</pdfrwt>
<pdfrwt beam="1">  1        1 0.16591081E+00 0.61904615E+02</pdfrwt>
<totfact> 0.24558082E+02</totfact>
</mgrwt>
</event>
<event>
 5    1  0.8459321E-003  0.8796988E+02  0.7546771E-02  0.1398917E+00
         -1   -1    0    0    0  501 -0.00000000000E+00  0.00000000000E+00  0.13173577774E+03  0.13173577774E+03  0.00000000000E+00 0.  1.
          1   -1    0    0  502    0  0.00000000000E+00 -0.00000000000E+00 -0.17229975473E+03  0.17229975473E+03  0.00000000000E+00 0. -1.
         25    1    1    2    0    0 -0.60155772529E+02  0.70936355236E+02 -0.70655240605E+02  0.17107848049E+03  0.12500000000E+03 0.  0.
          2    1    1    2  502    0  0.21984002798E+02 -0.84684492122E+02  0.11210162147E+02  0.88206730584E+02  0.00000000000E+00 0. -1.
         -2    1    1    2    0  501  0.38171769731E+02  0.13748136886E+02  0.18881101474E+02  0.44750321396E+02  0.00000000000E+00 0.  1.
<mgrwt>
<rscale>  0 0.59742137E+02</rscale>
<asrwt>0</asrwt>
<pdfrwt beam="2">  1        1 0.26507654E-01 0.87969884E+02</pdfrwt>
<pdfrwt beam="1">  1       -1 0.20267043E-01 0.40572100E+02</pdfrwt>
<totfact> 0.31866160E+03</totfact>
</mgrwt>
</event>
<event>
 5    1  0.8459321E-003  0.1892779E+03  0.7546771E-02  0.1280471E+00
         -2   -1    0    0    0  501 -0.00000000000E+00  0.00000000000E+00  0.38832844562E+03  0.38832844562E+03  0.00000000000E+00 0.  1.
          2   -1    0    0  502    0  0.00000000000E+00 -0.00000000000E+00 -0.18264801161E+04  0.18264801161E+04  0.00000000000E+00 0. -1.
         25    1    1    2    0    0 -0.19059947525E+03  0.45310805481E+02  0.12209091147E+03  0.26251175159E+03  0.12500000000E+03 0.  0.
          1    1    1    2  502    0  0.26317255783E+02  0.45709749116E+02 -0.17107844469E+04  0.17115973250E+04  0.00000000000E+00 0. -1.
         -1    1    1    2    0  501  0.16428221947E+03 -0.91020554597E+02  0.15054186503E+03  0.24069948508E+03  0.00000000000E+00 0.  1.
<mgrwt>
<rscale>  0 0.99916781E+02</rscale>
<asrwt>0</asrwt>
<pdfrwt beam="2">  1        2 0.28099693E+00 0.52744470E+02</pdfrwt>
<pdfrwt beam="1">  1       -2 0.59742840E-01 0.18927791E+03</pdfrwt>
<totfact> 0.29276653E+01</totfact>
</mgrwt>
</event>
<event>
 5    1  0.8459321E-003  0.3884238E+02  0.7546771E-02  0.1616686E+00
          2   -1    0    0  502    0  0.00000000000E+00  0.00000000000E+00  0.25004153450E+03  0.25004153450E+03  0.00000000000E+00 0. -1.
          1   -1    0    0  501    0 -0.00000000000E+00 -0.00000000000E+00 -0.19750596129E+03  0.19750596129E+03  0.00000000000E+00 0. -1.
         25    1    1    2    0    0  0.34662095706E+02  0.52080006054E+01  0.20361116648E+03  0.24147689592E+03  0.12500000000E+03 0.  0.
          2    1    1    2  501    0 -0.35710174321E+02  0.15505174037E+02 -0.17215323843E+03  0.17650032429E+03  0.00000000000E+00 0. -1.
          1    1    1    2  502    0  0.10480786153E+01 -0.20713174642E+02  0.21077645166E+02  0.29570275587E+02  0.00000000000E+00 0. -1.
<mgrwt>
<rscale>  0 0.28382711E+02</rscale>
<asrwt>0</asrwt>
<pdfrwt beam="1">  1        2 0.38467928E-01 0.20739674E+02</pdfrwt>
<pdfrwt beam="2">  1        1 0.30385533E-01 0.38842379E+02</pdfrwt>
<totfact> 0.24838886E+03</totfact>
</mgrwt>
</event>
<event>
 5    1  0.8459321E-003  0.4971311E+02  0.7546771E-02  0.1529701E+00
          2   -1    0    0  502    0  0.00000000000E+00  0.00000000000E+00  0.12255452568E+04  0.12255452568E+04  0.00000000000E+00 0. -1.
          1   -1    0    0  501    0 -0.00000000000E+00 -0.00000000000E+00 -0.45046692406E+03  0.45046692406E+03  0.00000000000E+00 0. -1.
         25    1    1    2    0    0  0.65754445421E+02  0.35409593756E+02  0.28279958917E+03  0.31808504218E+03  0.12500000000E+03 0.  0.
          2    1    1    2  501    0 -0.27382396528E+02 -0.51964557242E+01 -0.43172994462E+03  0.43262864430E+03  0.00000000000E+00 0. -1.
          1    1    1    2  502    0 -0.38372048893E+02 -0.30213138032E+02  0.92400868823E+03  0.92529849442E+03  0.00000000000E+00 0. -1.
<mgrwt>
<rscale>  0 0.37223104E+02</rscale>
<asrwt>0</asrwt>
<pdfrwt beam="1">  1        2 0.18854542E+00 0.49713107E+02</pdfrwt>
<pdfrwt beam="2">  1        1 0.69302604E-01 0.27871110E+02</pdfrwt>
<totfact> 0.15955020E+02</totfact>
</mgrwt>
</event>
<event>
 5    1  0.8459321E-003  0.7797083E+02  0.7546771E-02  0.1381780E+00
         -2   -1    0    0    0  501 -0.00000000000E+00  0.00000000000E+00  0.25854206283E+02  0.25854206283E+02  0.00000000000E+00 0.  1.
          2   -1    0    0  502    0  0.00000000000E+00 -0.00000000000E+00 -0.29554852054E+04  0.29554852054E+04  0.00000000000E+00 0. -1.
         25    1    1    2    0    0  0.12152440665E+03  0.59198053457E+01 -0.68162453267E+03  0.70359095293E+03  0.12500000000E+03 0.  0.
          1    1    1    2  502    0 -0.49805069218E+02 -0.16697724325E+02 -0.21722064303E+04  0.21728414887E+04  0.00000000000E+00 0. -1.
         -1    1    1    2    0  501 -0.71719337435E+02  0.10777918979E+02 -0.75800036169E+02  0.10490697013E+03  0.00000000000E+00 0.  1.
<mgrwt>
<rscale>  0 0.63998253E+02</rscale>
<asrwt>0</asrwt>
<pdfrwt beam="2">  1        2 0.45468992E+00 0.52529600E+02</pdfrwt>
<pdfrwt beam="1">  1       -2 0.39775712E-02 0.77970826E+02</pdfrwt>
<totfact> 0.70411726E+02</totfact>
</mgrwt>
</event>
<event>
 5    1  0.8459321E-003  0.7811795E+02  0.7546771E-02  0.1476930E+00
          2   -1    0    0  502    0  0.00000000000E+00  0.00000000000E+00  0.47513391054E+02  0.47513391054E+02  0.00000000000E+00 0. -1.
          1   -1    0    0  501    0 -0.00000000000E+00 -0.00000000000E+00 -0.74176000108E+03  0.74176000108E+03  0.00000000000E+00 0. -1.
         25    1    1    2    0    0 -0.83404000328E+02 -0.17466208824E+02 -0.27887618778E+03  0.31726680228E+03  0.12500000000E+03 0.  0.
          2    1    1    2  501    0  0.67723621755E+02  0.37511719867E+02 -0.43375568309E+03  0.44061049771E+03  0.00000000000E+00 0. -1.
          1    1    1    2  502    0  0.15680378572E+02 -0.20045511043E+02  0.18385260851E+02  0.31396092141E+02  0.00000000000E+00 0. -1.
<mgrwt>
<rscale>  0 0.44588036E+02</rscale>
<asrwt>0</asrwt>
<pdfrwt beam="1">  1        2 0.73097527E-02 0.25449888E+02</pdfrwt>
<pdfrwt beam="2">  1        1 0.11411692E+00 0.78117947E+02</pdfrwt>
<totfact> 0.29214013E+03</totfact>
</mgrwt>
</event>
<event>
 5    1  0.8459321E-003  0.6126195E+02  0.7546771E-02  0.1439607E+00
         -2   -1    0    0    0  501 -0.00000000000E+00  0.00000000000E+00  0.86801096143E+03  0.86801096143E+03  0.00000000000E+00 0.  1.
          2   -1    0    0  502    0  0.00000000000E+00 -0.00000000000E+00 -0.12596744901E+03  0.12596744901E+03  0.00000000000E+00 0. -1.
         25    1    1    2    0    0  0.57257615000E+02  0.77350331192E+02  0.35730126802E+03  0.39057739865E+03  0.12500000000E+03 0.  0.
          1    1    1    2  502    0 -0.49027451661E+02 -0.35564446375E+02 -0.99934659904E+02  0.11685656641E+03  0.00000000000E+00 0. -1.
         -1    1    1    2    0  501 -0.82301633388E+01 -0.41785884817E+02  0.48467690431E+03  0.48654444538E+03  0.00000000000E+00 0.  1.
<mgrwt>
<rscale>  0 0.51079015E+02</rscale>
<asrwt>0</asrwt>
<pdfrwt beam="2">  1        2 0.19379608E-01 0.61261953E+02</pdfrwt>
<pdfrwt beam="1">  1       -2 0.13354014E+00 0.42588681E+02</pdfrwt>
<totfact> 0.12623240E+02</totfact>
</mgrwt>
</event>
<event>
 5    1  0.8459321E-003  0.1344999E+03  0.7546771E-02  0.1328377E+00
          1   -1    0    0  501    0 -0.00000000000E+00  0.00000000000E+00  0.18960882314E+03  0.18960882314E+03  0.00000000000E+00 0. -1.
          2   -1    0    0  502    0  0.00000000000E+00 -0.00000000000E+00 -0.55461212526E+03  0.55461212526E+03  0.00000000000E+00 0. -1.
         25    1    1    2    0    0 -0.79506385783E+02 -0.11592012578E+03  0.42202650770E+02  0.19278175399E+03  0.12500000000E+03 0.  0.
          2    1    1    2  501    0  0.33441587472E+02  0.12893216509E+03  0.80423387933E+01  0.13344108131E+03  0.00000000000E+00 0. -1.
          1    1    1    2  502    0  0.46064798311E+02 -0.13012039314E+02 -0.41524829168E+03  0.41799811310E+03  0.00000000000E+00 0. -1.
<mgrwt>
<rscale>  0 0.80238076E+02</rscale>
<asrwt>0</asrwt>
<pdfrwt beam="2">  1        2 0.85324940E-01 0.47867304E+02</pdfrwt>
<pdfrwt beam="1">  1        1 0.29170589E-01 0.13449992E+03</pdfrwt>
<totfact> 0.12047202E+03</totfact>
</mgrwt>
</event>
<event>
 5    1  0.8459321E-003  0.1370193E+03  0.7546771E-02  0.1246879E+00
         -1   -1    0    0    0  501 -0.00000000000E+00  0.00000000000E+00  0.57504109016E+03  0.57504109016E+03  0.00000000000E+00 0.  1.
          1   -1    0    0  502    0  0.00000000000E+00 -0.00000000000E+00 -0.12106581635E+04  0.12106581635E+04  0.00000000000E+00 0. -1.
         25    1    1    2    0    0  0.90694873465E+02  0.20720846765E+03 -0.34235553725E+03  0.42894431227E+03  0.12500000000E+03 0.  0.
          2    1    1    2  502    0 -0.36806728891E+02 -0.12158882578E+03 -0.81523210849E+03  0.82507088699E+03  0.00000000000E+00 0. -1.
         -2    1    1    2    0  501 -0.53888144574E+02 -0.85619641871E+02  0.52197057242E+03  0.53168405437E+03  0.00000000000E+00 0.  1.
<mgrwt>
<rscale>  0 0.11773597E+03</rscale>
<asrwt>0</asrwt>
<pdfrwt beam="2">  1        1 0.18625510E+00 0.13701929E+03</pdfrwt>
<pdfrwt beam="1">  1       -1 0.88467861E-01 0.10116647E+03</pdfrwt>
<totfact> 0.16463779E+01</totfact>
</mgrwt>
</event>
<event>
 5    1  0.8459321E-003  0.1641311E+03  0.7546771E-02  0.1393959E+00
          2   -1    0    0  502    0  0.00000000000E+00  0.00000000000E+00  0.21001094350E+04  0.21001094350E+04  0.00000000000E+00 0. -1.
          1   -1    0    0  501    0 -0.00000000000E+00 -0.00000000000E+00 -0.21990141073E+03  0.21990141073E+03  0.00000000000E+00 0. -1.
         25    1    1    2    0    0 -0.16760074027E+03 -0.96241815384E+01  0.12922531415E+04  0.13090935088E+04  0.12500000000E+03 0.  0.
          2    1    1    2  501    0  0.68320883223E+01  0.21564435992E+02 -0.20271839654E+03  0.20397659333E+03  0.00000000000E+00 0. -1.
          1    1    1    2  502    0  0.16076865195E+03 -0.11940254454E+02  0.79067327933E+03  0.80694074366E+03  0.00000000000E+00 0. -1.
<mgrwt>
<rscale>  0 0.60932610E+02</rscale>
<asrwt>0</asrwt>
<pdfrwt beam="1">  1        2 0.32309375E+00 0.16413109E+03</pdfrwt>
<pdfrwt beam="2">  1        1 0.33830988E-01 0.22620838E+02</pdfrwt>
<totfact> 0.11830814E+02</totfact>
</mgrwt>
</event>
<event>
 5    1  0.8459321E-003  0.3689399E+02  0.7546771E-02  0.1578821E+00
          2   -1    0    0  502    0  0.00000000000E+00  0.00000000000E+00  0.87723679730E+03  0.87723679730E+03  0.00000000000E+00 0. -1.
          1   -1    0    0  501    0 -0.00000000000E+00 -0.00000000000E+00 -0.11396079072E+03  0.11396079072E+03  0.00000000000E+00 0. -1.
         25    1    1    2    0    0  0.59264746531E+02 -0.22342125626E+02  0.36308397962E+03  0.38918691783E+03  0.12500000000E+03 0.  0.
          2    1    1    2  501    0 -0.35726360790E+02  0.82384681899E+01 -0.97188284133E+02  0.10387399957E+03  0.00000000000E+00 0. -1.
          1    1    1    2  502    0 -0.23538385742E+02  0.14103657436E+02  0.49738031110E+03  0.49813667063E+03  0.00000000000E+00 0. -1.
<mgrwt>
<rscale>  0 0.31817940E+02</rscale>
<asrwt>0</asrwt>
<pdfrwt beam="1">  1        2 0.13495950E+00 0.27440276E+02</pdfrwt>
<pdfrwt beam="2">  1        1 0.17532430E-01 0.36893991E+02</pdfrwt>
<totfact> 0.13171587E+03</totfact>
</mgrwt>
</event>
<event>
 5    1  0.8459321E-003  0.6189608E+02  0.7546771E-02  0.1487041E+00
          1   -1    0    0  501    0 -0.00000000000E+00  0.00000000000E+00  0.22054898801E+04  0.22054898801E+04  0.00000000000E+00 0. -1.
          2   -1    0    0  502    0  0.00000000000E+00 -0.00000000000E+00 -0.76369614890E+02  0.76369614890E+02  0.00000000000E+00 0. -1.
         25    1    1    2    0    0  0.56607691781E+02 -0.18344149775E+02  0.61522719742E+02  0.15149582055E+03  0.12500000000E+03 0.  0.
          2    1    1    2  501    0 -0.11607194514E+02 -0.27567869660E+02  0.20658348875E+04  0.20660514265E+04  0.00000000000E+00 0. -1.
          1    1    1    2  502    0 -0.45000497267E+02  0.45912019434E+02  0.17626580232E+01  0.64312248026E+02  0.00000000000E+00 0. -1.
<mgrwt>
<rscale>  0 0.43028151E+02</rscale>
<asrwt>0</asrwt>
<pdfrwt beam="2">  1        2 0.11749173E-01 0.61896082E+02</pdfrwt>
<pdfrwt beam="1">  1        1 0.33930609E+00 0.29911777E+02</pdfrwt>
<totfact> 0.22062950E+02</totfact>
</mgrwt>
</event>
<event>
 5    1  0.8459321E-003  0.1769522E+03  0.7546771E-02  0.1308332E+00
         -1   -1    0    0    0  502 -0.00000000000E+00  0.00000000000E+00  0.15651995131E+04  0.15651995131E+04  0.00000000000E+00 0.  1.
         -2   -1    0    0    0  501  0.00000000000E+00 -0.00000000000E+00 -0.10918431578E+03  0.10918431578E+03  0.00000000000E+00 0.  1.
         25    1    1    2    0    0  0.14124690353E+03 -0.47802897946E+02  0.33746805074E+03  0.38954523496E+03  0.12500000000E+03 0.  0.
         -2    1    1    2    0  502  0.23721433503E+02 -0.36510084277E+02  0.10975206345E+04  0.10983839200E+04  0.00000000000E+00 0.  1.
         -1    1    1    2    0  501 -0.16496833703E+03  0.84312982223E+02  0.21026512070E+02  0.18645467386E+03  0.00000000000E+00 0.  1.
<mgrwt>
<rscale>  0 0.87774821E+02</rscale>
<asrwt>0</asrwt>
<pdfrwt beam="2">  1       -2 0.16797588E-01 0.17695219E+03</pdfrwt>
<pdfrwt beam="1">  1       -1 0.24079991E+00 0.43539553E+02</pdfrwt>
<totfact> 0.22676842E+01</totfact>
</mgrwt>
</event>
<event>
 5    1  0.8459321E-003  0.9887027E+02  0.7546771E-02  0.1328995E+00
          2   -1    0    0  502    0  0.00000000000E+00  0.00000000000E+00  0.22507089643E+04  0.22507089643E+04  0.00000000000E+00 0. -1.
          1   -1    0    0  501    0 -0.00000000000E+00 -0.00000000000E+00 -0.28388029464E+02  0.28388029464E+02  0.00000000000E+00 0. -1.
         25    1    1    2    0    0  0.26570434304E+02  0.10406616213E+03  0.72056237506E+03  0.73916905402E+03  0.12500000000E+03 0.  0.
          2    1    1    2  501    0 -0.77497736441E+02 -0.64057458135E+02  0.11957866446E+03  0.15623160400E+03  0.00000000000E+00 0. -1.
          1    1    1    2  502    0  0.50927302137E+02 -0.40008703992E+02  0.13821798953E+04  0.13836963357E+04  0.00000000000E+00 0. -1.
<mgrwt>
<rscale>  0 0.80019786E+02</rscale>
<asrwt>0</asrwt>
<pdfrwt beam="1">  1        2 0.34626278E+00 0.64763311E+02</pdfrwt>
<pdfrwt beam="2">  1        1 0.43673909E-02 0.98870272E+02</pdfrwt>
<totfact> 0.16179739E+03</totfact>
</mgrwt>
</event>
<event>
 5    1  0.8459321E-003  0.7258278E+02  0.7546771E-02  0.1445063E+00
          2   -1    0    0  502    0  0.00000000000E+00  0.00000000000E+00  0.53715248146E+03  0.53715248146E+03  0.00000000000E+00 0. -1.
          1   -1    0    0  501    0 -0.00000000000E+00 -0.00000000000E+00 -0.36818176025E+03  0.36818176025E+03  0.00000000000E+00 0. -1.
         25    1    1    2    0    0  0.54024642677E+02  0.74588678040E+02  0.44077888302E+03  0.46732553603E+03  0.12500000000E+03 0.  0.
          2    1    1    2  501    0 -0.18237088324E+02 -0.29302940620E+02 -0.34391671101E+03  0.34564426486E+03  0.00000000000E+00 0. -1.
          1    1    1    2  502    0 -0.35787554353E+02 -0.45285737419E+02  0.72108549193E+02  0.92364440814E+02  0.00000000000E+00 0. -1.
<mgrwt>
<rscale>  0 0.50051589E+02</rscale>
<asrwt>0</asrwt>
<pdfrwt beam="1">  1        2 0.82638843E-01 0.72582781E+02</pdfrwt>
<pdfrwt beam="2">  1        1 0.56643348E-01 0.34514544E+02</pdfrwt>
<totfact> 0.54910878E+02</totfact>
</mgrwt>
</event>
<event>
 5    1  0.8459321E-003  0.9082999E+02  0.7546771E-02  0.1335844E+00
         -1   -1    0    0    0  501 -0.00000000000E+00  0.00000000000E+00  0.13639705339E+03  0.13639705339E+03  0.00000000000E+00 0.  1.
          1   -1    0    0  502    0  0.00000000000E+00 -0.00000000000E+00 -0.13513442886E+04  0.13513442886E+04  0.00000000000E+00 0. -1.
         25    1    1    2    0    0 -0.55041870044E+02  0.25799879171E+02 -0.38867527307E+02  0.14432922747E+03  0.12500000000E+03 0.  0.
          2    1    1    2  502    0  0.30136874546E+02 -0.87340716803E+02 -0.12445883413E+04  0.12480131294E+04  0.00000000000E+00 0. -1.
         -2    1    1    2    0  501  0.24904995499E+02  0.61540837632E+02  0.68508633399E+02  0.95398985044E+02  0.00000000000E+00 0.  1.
<mgrwt>
<rscale>  0 0.77653949E+02</rscale>
<asrwt>0</asrwt>
<pdfrwt beam="2">  1        1 0.20789912E+00 0.90829992E+02</pdfrwt>
<pdfrwt beam="1">  1       -1 0.20984162E-01 0.66389257E+02</pdfrwt>
<totfact> 0.17742509E+02</totfact>
</mgrwt>
</event>
<event>
 5    1  0.8459321E-003  0.2748886E+03  0.7546771E-02  0.1141830E+00
          1   -1    0    0  501    0 -0.00000000000E+00  0.00000000000E+00  0.67070315034E+03  0.67070315034E+03  0.00000000000E+00 0. -1.
          2   -1    0    0  502    0  0.00000000000E+00 -0.00000000000E+00 -0.55813380498E+03  0.55813380498E+03  0.00000000000E+00 0. -1.
         25    1    1    2    0    0 -0.29312269087E+03  0.19356199690E+03  0.22784318348E+03  0.43694928173E+03  0.12500000000E+03 0.  0.
          2    1    1    2  501    0  0.13396975746E+03 -0.20919993719E+03  0.27471770177E+03  0.37038132418E+03  0.00000000000E+00 0. -1.
          1    1    1    2  502    0  0.15915293341E+03  0.15637940289E+02 -0.38999153990E+03  0.42150634939E+03  0.00000000000E+00 0. -1.
<mgrwt>
<rscale>  0 0.20966642E+03</rscale>
<asrwt>0</asrwt>
<pdfrwt beam="2">  1        2 0.85866739E-01 0.15991936E+03</pdfrwt>
<pdfrwt beam="1">  1        1 0.10318510E+00 0.27488858E+03</pdfrwt>
<totfact> 0.22783072E+02</totfact>
</mgrwt>
</event>
<event>
 5    1  0.8848029E-003  0.7234851E+02  0.7546771E-02  0.1407706E+00
          1   -1    0    0  501    0 -0.00000000000E+00  0.00000000000E+00  0.18179380595E+04  0.18179380595E+04  0.00000000000E+00 0. -1.
          2   -1    0    0  502    0  0.00000000000E+00 -0.00000000000E+00 -0.46937777020E+03  0.46937777020E+03  0.00000000000E+00 0. -1.
         25    1    1    2    0    0 -0.31619740012E+02  0.11300917929E+03  0.69239028033E+03  0.71330230818E+03  0.12500000000E+03 0.  0.
          2    1    1    2  501    0  0.56177096005E+01 -0.45687317156E+02  0.11117752869E+04  0.11127278096E+04  0.00000000000E+00 0. -1.
          1    1    1    2  502    0  0.26002030411E+02 -0.67321862130E+02 -0.45560527797E+03  0.46128571192E+03  0.00000000000E+00 0. -1.
<mgrwt>
<rscale>  0 0.57708779E+02</rscale>
<asrwt>0</asrwt>
<pdfrwt beam="2">  1        2 0.72211965E-01 0.72348512E+02</pdfrwt>
<pdfrwt beam="1">  1        1 0.27968278E+00 0.46031398E+02</pdfrwt>
<totfact> 0.50386033E+01</totfact>
</mgrwt>
</event>
<event>
 5    1  0.1058430E-002  0.7271514E+02  0.7546771E-02  0.1448019E+00
          1   -1    0    0  501    0 -0.00000000000E+00  0.00000000000E+00  0.10337996526E+04  0.10337996526E+04  0.00000000000E+00 0. -1.
          2   -1    0    0  502    0  0.00000000000E+00 -0.00000000000E+00 -0.93198293656E+03  0.93198293656E+03  0.00000000000E+00 0. -1.
         25    1    1    2    0    0  0.74371522017E+01 -0.10425730503E+03  0.42783054491E+03  0.45780877235E+03  0.12500000000E+03 0.  0.
          2    1    1    2  501    0 -0.11323734189E+02  0.31746937316E+02  0.58905992856E+03  0.59002346938E+03  0.00000000000E+00 0. -1.
          1    1    1    2  502    0  0.38865819872E+01  0.72510367711E+02 -0.91507375739E+03  0.91795034747E+03  0.00000000000E+00 0. -1.
<mgrwt>
<rscale>  0 0.49506939E+02</rscale>
<asrwt>0</asrwt>
<pdfrwt beam="2">  1        2 0.14338199E+00 0.72715138E+02</pdfrwt>
<pdfrwt beam="1">  1        1 0.15904610E+00 0.33706008E+02</pdfrwt>
<totfact> 0.73446890E+01</totfact>
</mgrwt>
</event>
<event>
 5    1  0.8459321E-003  0.6313435E+02  0.7546771E-02  0.1416521E+00
          1   -1    0    0  502    0  0.00000000000E+00  0.00000000000E+00  0.10816715909E+04  0.10816715909E+04  0.00000000000E+00 0. -1.
         -1   -1    0    0    0  501 -0.00000000000E+00 -0.00000000000E+00 -0.27316395349E+03  0.27316395349E+03  0.00000000000E+00 0.  1.
         25    1    1    2    0    0 -0.10144087163E+03  0.98227103768E+01  0.37358622172E+03  0.40691325996E+03  0.12500000000E+03 0.  0.
          2    1    1    2  502    0  0.54778265766E+02 -0.25587020234E+02  0.68771888934E+03  0.69037136728E+03  0.00000000000E+00 0. -1.
         -2    1    1    2    0  501  0.46662605860E+02  0.15764309857E+02 -0.25279747364E+03  0.25755091716E+03  0.00000000000E+00 0.  1.
<mgrwt>
<rscale>  0 0.55763705E+02</rscale>
<asrwt>0</asrwt>
<pdfrwt beam="1">  1        1 0.16641101E+00 0.63134349E+02</pdfrwt>
<pdfrwt beam="2">  1       -1 0.42025224E-01 0.49253551E+02</pdfrwt>
<totfact> 0.87726715E+01</totfact>
</mgrwt>
</event>
<event>
 5    1  0.8459321E-003  0.7433985E+02  0.7546771E-02  0.1518006E+00
         -2   -1    0    0    0  501  0.00000000000E+00  0.00000000000E+00  0.41396629642E+03  0.41396629642E+03  0.00000000000E+00 0.  1.
         -1   -1    0    0    0  502 -0.00000000000E+00 -0.00000000000E+00 -0.10880559541E+03  0.10880559541E+03  0.00000000000E+00 0.  1.
         25    1    1    2    0    0 -0.53932014502E+02 -0.51620689856E+02  0.85641083473E+02  0.16891640828E+03  0.12500000000E+03 0.  0.
         -2    1    1    2    0  502  0.38176233698E+02  0.64175306180E+02 -0.45914041970E+02  0.87658393737E+02  0.00000000000E+00 0.  1.
         -1    1    1    2    0  501  0.15755780804E+02 -0.12554616323E+02  0.26543365951E+03  0.26619708980E+03  0.00000000000E+00 0.  1.
<mgrwt>
<rscale>  0 0.38699532E+02</rscale>
<asrwt>0</asrwt>
<pdfrwt beam="1">  1       -2 0.63687122E-01 0.20146042E+02</pdfrwt>
<pdfrwt beam="2">  1       -1 0.16739323E-01 0.74339850E+02</pdfrwt>
<totfact> 0.44850589E+02</totfact>
</mgrwt>
</event>
<event>
 5    1  0.8459321E-003  0.9826164E+02  0.7546771E-02  0.1392312E+00
          2   -1    0    0  502    0  0.00000000000E+00  0.00000000000E+00  0.24004409175E+04  0.24004409175E+04  0.00000000000E+00 0. -1.
         -2   -1    0    0    0  501 -0.00000000000E+00 -0.00000000000E+00 -0.62452267624E+02  0.62452267624E+02  0.00000000000E+00 0.  1.
         25    1    1    2    0    0 -0.11553148362E+03  0.38160193310E+02  0.57649150319E+03  0.60230488734E+03  0.12500000000E+03 0.  0.
          1    1    1    2  502    0  0.35039898211E+02  0.15427620694E+02  0.17634546908E+04  0.17638702482E+04  0.00000000000E+00 0. -1.
         -1    1    1    2    0  501  0.80491585405E+02 -0.53587814004E+02 -0.19575441556E+01  0.96718049556E+02  0.00000000000E+00 0.  1.
<mgrwt>
<rscale>  0 0.61335388E+02</rscale>
<asrwt>0</asrwt>
<pdfrwt beam="1">  1        2 0.36929853E+00 0.38285845E+02</pdfrwt>
<pdfrwt beam="2">  1       -2 0.96080430E-02 0.98261636E+02</pdfrwt>
<totfact> 0.39135480E+02</totfact>
</mgrwt>
</event>
<event>
 5    1  0.8459321E-003  0.8034916E+02  0.7546771E-02  0.1442590E+00
         -2   -1    0    0    0  501 -0.00000000000E+00  0.00000000000E+00  0.67328382652E+02  0.67328382652E+02  0.00000000000E+00 0.  1.
          2   -1    0    0  502    0  0.00000000000E+00 -0.00000000000E+00 -0.23136645021E+04  0.23136645021E+04  0.00000000000E+00 0. -1.
         25    1    1    2    0    0 -0.58660465473E+02  0.11387064434E+02 -0.28247323705E+03  0.31462174924E+03  0.12500000000E+03 0.  0.
          1    1    1    2  502    0  0.80769615175E+02  0.11409537979E+02 -0.20092896148E+04  0.20109447194E+04  0.00000000000E+00 0. -1.
         -1    1    1    2    0  501 -0.22109149702E+02 -0.22796602414E+02  0.45426732429E+02  0.55426416097E+02  0.00000000000E+00 0.  1.
<mgrwt>
<rscale>  0 0.50513748E+02</rscale>
<asrwt>0</asrwt>
<pdfrwt beam="2">  1        2 0.35594843E+00 0.80349157E+02</pdfrwt>
<pdfrwt beam="1">  1       -2 0.10358212E-01 0.31756882E+02</pdfrwt>
<totfact> 0.31822535E+02</totfact>
</mgrwt>
</event>
<event>
 5    1  0.8459321E-003  0.5864729E+02  0.7546771E-02  0.1443599E+00
          1   -1    0    0  501    0 -0.00000000000E+00  0.00000000000E+00  0.79152046233E+03  0.79152046233E+03  0.00000000000E+00 0. -1.
          2   -1    0    0  502    0  0.00000000000E+00 -0.00000000000E+00 -0.51888884300E+03  0.51888884300E+03  0.00000000000E+00 0. -1.
         25    1    1    2    0    0 -0.72558052012E+00  0.17542825146E+02  0.41426446558E+02  0.13285114849E+03  0.12500000000E+03 0.  0.
          2    1    1    2  501    0  0.18677621500E+02 -0.56817216617E+02  0.70212242509E+03  0.70466513285E+03  0.00000000000E+00 0. -1.
          1    1    1    2  502    0 -0.17952040979E+02  0.39274391471E+02 -0.47091725231E+03  0.47289302398E+03  0.00000000000E+00 0. -1.
<mgrwt>
<rscale>  0 0.50324485E+02</rscale>
<asrwt>0</asrwt>
<pdfrwt beam="2">  1        2 0.79829053E-01 0.43182793E+02</pdfrwt>
<pdfrwt beam="1">  1        1 0.12177238E+00 0.58647290E+02</pdfrwt>
<totfact> 0.21216931E+02</totfact>
</mgrwt>
</event>
<event>
 5    1  0.8459321E-003  0.6623067E+02  0.7546771E-02  0.1428075E+00
          1   -1    0    0  501    0 -0.00000000000E+00  0.00000000000E+00  0.15855412994E+04  0.15855412994E+04  0.00000000000E+00 0. -1.
          2   -1    0    0  502    0  0.00000000000E+00 -0.00000000000E+00 -0.48046079365E+03  0.48046079365E+03  0.00000000000E+00 0. -1.
         25    1    1    2    0    0 -0.12650850144E+01  0.94630487078E+02  0.77761306265E+02  0.17500957196E+03  0.12500000000E+03 0.  0.
          2    1    1    2  501    0  0.26485990912E+02 -0.33838909111E+02  0.14563293706E+04  0.14569632168E+04  0.00000000000E+00 0. -1.
          1    1    1    2  502    0 -0.25220905897E+02 -0.60791577967E+02 -0.42901017111E+03  0.43402930427E+03  0.00000000000E+00 0. -1.
<mgrwt>
<rscale>  0 0.53348423E+02</rscale>
<asrwt>0</asrwt>
<pdfrwt beam="2">  1        2 0.73917046E-01 0.66230672E+02</pdfrwt>
<pdfrwt beam="1">  1        1 0.24392943E+00 0.42971845E+02</pdfrwt>
<totfact> 0.68756150E+01</totfact>
</mgrwt>
</event>
<event>
 5    1  0.8459321E-003  0.1075194E+03  0.7546771E-02  0.1345410E+00
          2   -1    0    0  502    0  0.00000000000E+00  0.00000000000E+00  0.12200137745E+04  0.12200137745E+04  0.00000000000E+00 0. -1.
         -2   -1    0    0    0  501 -0.00000000000E+00 -0.00000000000E+00 -0.23147632543E+03  0.23147632543E+03  0.00000000000E+00 0.  1.
         25    1    1    2    0    0 -0.51848490507E+02 -0.48491491069E+02  0.34093211751E+02  0.14773976364E+03  0.12500000000E+03 0.  0.
          1    1    1    2  502    0  0.45236608211E+02  0.99694367299E+02  0.11225599862E+04  0.11278857390E+04  0.00000000000E+00 0. -1.
         -1    1    1    2    0  501  0.66118822968E+01 -0.51202876230E+02 -0.16811574894E+03  0.17586459724E+03  0.00000000000E+00 0.  1.
<mgrwt>
<rscale>  0 0.74505121E+02</rscale>
<asrwt>0</asrwt>
<pdfrwt beam="1">  1        2 0.18769442E+00 0.10751940E+03</pdfrwt>
<pdfrwt beam="2">  1       -2 0.35611743E-01 0.51628011E+02</pdfrwt>
<totfact> 0.15154329E+02</totfact>
</mgrwt>
</event>
<event>
 5    1  0.8459321E-003  0.5132836E+02  0.7546771E-02  0.1558735E+00
          1   -1    0    0  501    0 -0.00000000000E+00  0.00000000000E+00  0.95921377304E+03  0.95921377304E+03  0.00000000000E+00 0. -1.
          2   -1    0    0  502    0  0.00000000000E+00 -0.00000000000E+00 -0.12822756094E+03  0.12822756094E+03  0.00000000000E+00 0. -1.
         25    1    1    2    0    0  0.46727155421E+02 -0.47232213040E+02  0.71560167017E+02  0.15861956533E+03  0.12500000000E+03 0.  0.
          2    1    1    2  501    0 -0.22148356313E+02  0.31335336213E+01  0.83643783049E+03  0.83673688397E+03  0.00000000000E+00 0. -1.
          1    1    1    2  502    0 -0.24578799108E+02  0.44098679419E+02 -0.77011785419E+02  0.92084884674E+02  0.00000000000E+00 0. -1.
<mgrwt>
<rscale>  0 0.33884513E+02</rscale>
<asrwt>0</asrwt>
<pdfrwt beam="2">  1        2 0.19727318E-01 0.51328364E+02</pdfrwt>
<pdfrwt beam="1">  1        1 0.14757135E+00 0.22368923E+02</pdfrwt>
<totfact> 0.72604247E+02</totfact>
</mgrwt>
</event>
<event>
 5    1  0.8459321E-003  0.5804118E+02  0.7546771E-02  0.1512069E+00
          1   -1    0    0  501    0 -0.00000000000E+00  0.00000000000E+00  0.84116481004E+03  0.84116481004E+03  0.00000000000E+00 0. -1.
          2   -1    0    0  502    0  0.00000000000E+00 -0.00000000000E+00 -0.14535304258E+04  0.14535304258E+04  0.00000000000E+00 0. -1.
         25    1    1    2    0    0 -0.83944347450E+02  0.19563459585E+01  0.65305185090E+03  0.67018818307E+03  0.12500000000E+03 0.  0.
          2    1    1    2  501    0  0.26360303366E+02  0.51322612265E+01  0.17795450459E+03  0.17996947353E+03  0.00000000000E+00 0. -1.
          1    1    1    2  502    0  0.57584044084E+02 -0.70886071850E+01 -0.14433719712E+04  0.14445375792E+04  0.00000000000E+00 0. -1.
<mgrwt>
<rscale>  0 0.39480524E+02</rscale>
<asrwt>0</asrwt>
<pdfrwt beam="2">  1        2 0.22362007E+00 0.58041183E+02</pdfrwt>
<pdfrwt beam="1">  1        1 0.12940997E+00 0.26855273E+02</pdfrwt>
<totfact> 0.54032840E+01</totfact>
</mgrwt>
</event>
<event>
 5    1  0.8459321E-003  0.1037249E+03  0.7546771E-02  0.1351829E+00
          1   -1    0    0  501    0 -0.00000000000E+00  0.00000000000E+00  0.24760941229E+02  0.24760941229E+02  0.00000000000E+00 0. -1.
          2   -1    0    0  502    0  0.00000000000E+00 -0.00000000000E+00 -0.23380290309E+04  0.23380290309E+04  0.00000000000E+00 0. -1.
         25    1    1    2    0    0 -0.80848641614E+02 -0.73563804301E+02 -0.89874119948E+03  0.91395234000E+03  0.12500000000E+03 0.  0.
          2    1    1    2  501    0  0.10101086019E+03  0.27089628138E+02 -0.14757890249E+03  0.18087723541E+03  0.00000000000E+00 0. -1.
          1    1    1    2  502    0 -0.20162218572E+02  0.46474176163E+02 -0.12669479877E+04  0.12679603967E+04  0.00000000000E+00 0. -1.
<mgrwt>
<rscale>  0 0.72488825E+02</rscale>
<asrwt>0</asrwt>
<pdfrwt beam="2">  1        2 0.35969691E+00 0.50659294E+02</pdfrwt>
<pdfrwt beam="1">  1        1 0.38093741E-02 0.10372489E+03</pdfrwt>
<totfact> 0.18296630E+03</totfact>
</mgrwt>
</event>
<event>
 5    1  0.8459321E-003  0.8437292E+02  0.7546771E-02  0.1324632E+00
         -2   -1    0    0    0  501 -0.00000000000E+00  0.00000000000E+00  0.29697275510E+02  0.29697275510E+02  0.00000000000E+00 0.  1.
          2   -1    0    0  502    0  0.00000000000E+00 -0.00000000000E+00 -0.24201685401E+04  0.24201685401E+04  0.00000000000E+00 0. -1.
         25    1    1    2    0    0  0.13088595409E+02  0.91847258936E+02 -0.33227504825E+03  0.36693178930E+03  0.12500000000E+03 0.  0.
          1    1    1    2  502    0  0.64271593037E+02 -0.54662162990E+02 -0.19085900245E+04  0.19104540485E+04  0.00000000000E+00 0. -1.
         -1    1    1    2    0  501 -0.77360188445E+02 -0.37185095946E+02 -0.14960619181E+03  0.17247997781E+03  0.00000000000E+00 0.  1.
<mgrwt>
<rscale>  0 0.81577854E+02</rscale>
<asrwt>0</asrwt>
<pdfrwt beam="2">  1        2 0.37233360E+00 0.84372921E+02</pdfrwt>
<pdfrwt beam="1">  1       -2 0.45688119E-02 0.78875380E+02</pdfrwt>
<totfact> 0.10316238E+03</totfact>
</mgrwt>
</event>
<event>
 5    1  0.8459321E-003  0.9442191E+02  0.7546771E-02  0.1411427E+00
          2   -1    0    0  502    0  0.00000000000E+00  0.00000000000E+00  0.77459286305E+03  0.77459286305E+03  0.00000000000E+00 0. -1.
          1   -1    0    0  501    0 -0.00000000000E+00 -0.00000000000E+00 -0.11055015281E+04  0.11055015281E+04  0.00000000000E+00 0. -1.
         25    1    1    2    0    0 -0.11824011242E+03 -0.31500248789E+02 -0.29320853691E+03  0.34142237182E+03  0.12500000000E+03 0.  0.
          2    1    1    2  501    0  0.84230330015E+02  0.35639277792E+02 -0.78513913751E+03  0.79044820948E+03  0.00000000000E+00 0. -1.
          1    1    1    2  502    0  0.34009782407E+02 -0.41390290026E+01  0.74743900939E+03  0.74822380984E+03  0.00000000000E+00 0. -1.
<mgrwt>
<rscale>  0 0.56876730E+02</rscale>
<asrwt>0</asrwt>
<pdfrwt beam="1">  1        2 0.11916813E+00 0.34260719E+02</pdfrwt>
<pdfrwt beam="2">  1        1 0.17007716E+00 0.94421906E+02</pdfrwt>
<totfact> 0.78646858E+01</totfact>
</mgrwt>
</event>
<event>
 5    1  0.8459321E-003  0.5194390E+02  0.7546771E-02  0.1550641E+00
          2   -1    0    0  502    0  0.00000000000E+00  0.00000000000E+00  0.55886795924E+03  0.55886795924E+03  0.00000000000E+00 0. -1.
         -2   -1    0    0    0  501 -0.00000000000E+00 -0.00000000000E+00 -0.15786770800E+03  0.15786770800E+03  0.00000000000E+00 0.  1.
         25    1    1    2    0    0 -0.63603436611E+02 -0.25115269105E+02  0.13377533481E+03  0.19544056410E+03  0.12500000000E+03 0.  0.
          1    1    1    2  502    0  0.50866059247E+02  0.56337866175E+01  0.39151433770E+03  0.39484499763E+03  0.00000000000E+00 0. -1.
         -1    1    1    2    0  501  0.12737377364E+02  0.19481482488E+02 -0.12428942127E+03  0.12645010551E+03  0.00000000000E+00 0.  1.
<mgrwt>
<rscale>  0 0.34771291E+02</rscale>
<asrwt>0</asrwt>
<pdfrwt beam="1">  1        2 0.85979685E-01 0.51943902E+02</pdfrwt>
<pdfrwt beam="2">  1       -2 0.24287340E-01 0.23275931E+02</pdfrwt>
<totfact> 0.77939526E+02</totfact>
</mgrwt>
</event>
<event>
 5    1  0.8459321E-003  0.4586335E+02  0.7546771E-02  0.1524201E+00
         -2   -1    0    0    0  501 -0.00000000000E+00  0.00000000000E+00  0.21469595946E+04  0.21469595946E+04  0.00000000000E+00 0.  1.
          2   -1    0    0  502    0  0.00000000000E+00 -0.00000000000E+00 -0.11845640605E+03  0.11845640605E+03  0.00000000000E+00 0. -1.
         25    1    1    2    0    0  0.38955640315E+02 -0.77989751876E+00  0.80132008880E+03  0.81194644828E+03  0.12500000000E+03 0.  0.
          1    1    1    2  502    0 -0.42100353383E+01 -0.31047301894E+02 -0.11055138711E+03  0.11490547657E+03  0.00000000000E+00 0. -1.
         -1    1    1    2    0  501 -0.34745604976E+02  0.31827199412E+02  0.13377344869E+04  0.13385640758E+04  0.00000000000E+00 0.  1.
<mgrwt>
<rscale>  0 0.37907320E+02</rscale>
<asrwt>0</asrwt>
<pdfrwt beam="2">  1        2 0.18224064E-01 0.31331444E+02</pdfrwt>
<pdfrwt beam="1">  1       -2 0.33030145E+00 0.45863349E+02</pdfrwt>
<totfact> 0.86112871E+00</totfact>
</mgrwt>
</event>
<event>
 5    1  0.8459321E-003  0.1213645E+03  0.7546771E-02  0.1286067E+00
          2   -1    0    0  502    0  0.00000000000E+00  0.00000000000E+00  0.72454166588E+02  0.72454166588E+02  0.00000000000E+00 0. -1.
          1   -1    0    0  501    0 -0.00000000000E+00 -0.00000000000E+00 -0.13721023811E+04  0.13721023811E+04  0.00000000000E+00 0. -1.
         25    1    1    2    0    0  0.94170781188E+02 -0.49196821674E+02 -0.16759472752E+03  0.23452389214E+03  0.12500000000E+03 0.  0.
          2    1    1    2  501    0  0.43926622450E+02  0.64473737436E+02 -0.10409909331E+04  0.10439102134E+04  0.00000000000E+00 0. -1.
          1    1    1    2  502    0 -0.13809740364E+03 -0.15276915762E+02 -0.91062553920E+02  0.16612244211E+03  0.00000000000E+00 0. -1.
<mgrwt>
<rscale>  0 0.97305236E+02</rscale>
<asrwt>0</asrwt>
<pdfrwt beam="1">  1        2 0.11146796E-01 0.12136453E+03</pdfrwt>
<pdfrwt beam="2">  1        1 0.21109266E+00 0.78015453E+02</pdfrwt>
<totfact> 0.70720828E+02</totfact>
</mgrwt>
</event>
<event>
 5    1  0.8459321E-003  0.6211918E+02  0.7546771E-02  0.1481500E+00
          2   -1    0    0  502    0  0.00000000000E+00  0.00000000000E+00  0.10245829398E+04  0.10245829398E+04  0.00000000000E+00 0. -1.
          1   -1    0    0  501    0 -0.00000000000E+00 -0.00000000000E+00 -0.43229871214E+03  0.43229871214E+03  0.00000000000E+00 0. -1.
         25    1    1    2    0    0 -0.20161483103E+01  0.38991488692E+02  0.17024292951E+03  0.21478374262E+03  0.12500000000E+03 0.  0.
          2    1    1    2  501    0 -0.24777477024E+02  0.18607913793E+02 -0.40822776229E+03  0.40940210518E+03  0.00000000000E+00 0. -1.
          1    1    1    2  502    0  0.26793625334E+02 -0.57599402485E+02  0.83026906047E+03  0.83269580418E+03  0.00000000000E+00 0. -1.
<mgrwt>
<rscale>  0 0.43873348E+02</rscale>
<asrwt>0</asrwt>
<pdfrwt beam="1">  1        2 0.15762814E+00 0.62119180E+02</pdfrwt>
<pdfrwt beam="2">  1        1 0.66507495E-01 0.30986736E+02</pdfrwt>
<totfact> 0.21230811E+02</totfact>
</mgrwt>
</event>
<event>
 5    1  0.8459321E-003  0.3980663E+02  0.7546771E-02  0.1604191E+00
          2   -1    0    0  502    0  0.00000000000E+00  0.00000000000E+00  0.18449946143E+04  0.18449946143E+04  0.00000000000E+00 0. -1.
         -2   -1    0    0    0  501 -0.00000000000E+00 -0.00000000000E+00 -0.24500865557E+02  0.24500865557E+02  0.00000000000E+00 0.  1.
         25    1    1    2    0    0  0.18336159954E+02 -0.54244486657E+02  0.35829894203E+03  0.38377312432E+03  0.12500000000E+03 0.  0.
          1    1    1    2  502    0 -0.14836781438E+02  0.15965898770E+02  0.14422556448E+04  0.14424203218E+04  0.00000000000E+00 0. -1.
         -1    1    1    2    0  501 -0.34993785157E+01  0.38278587887E+02  0.19939161909E+02  0.43302033650E+02  0.00000000000E+00 0.  1.
<mgrwt>
<rscale>  0 0.29455081E+02</rscale>
<asrwt>0</asrwt>
<pdfrwt beam="1">  1        2 0.28384522E+00 0.21795413E+02</pdfrwt>
<pdfrwt beam="2">  1       -2 0.37693654E-02 0.39806625E+02</pdfrwt>
<totfact> 0.28550804E+03</totfact>
</mgrwt>
</event>
<event>
 5    1  0.8459321E-003  0.9522271E+02  0.7546771E-02  0.1321957E+00
          2   -1    0    0  502    0  0.00000000000E+00  0.00000000000E+00  0.52639918652E+04  0.52639918652E+04  0.00000000000E+00 0. -1.
          1   -1    0    0  501    0 -0.00000000000E+00 -0.00000000000E+00 -0.10129087235E+04  0.10129087235E+04  0.00000000000E+00 0. -1.
         25    1    1    2    0    0  0.83924381932E+02  0.13048507165E+03  0.43143609963E+03  0.47521759633E+03  0.12500000000E+03 0.  0.
          2    1    1    2  501    0 -0.23592170427E+02 -0.91983983185E+02 -0.98847619859E+03  0.99302710882E+03  0.00000000000E+00 0. -1.
          1    1    1    2  502    0 -0.60332211505E+02 -0.38501088463E+02  0.48081232406E+04  0.48086558836E+04  0.00000000000E+00 0. -1.
<mgrwt>
<rscale>  0 0.82553734E+02</rscale>
<asrwt>0</asrwt>
<pdfrwt beam="1">  1        2 0.80984489E+00 0.71570312E+02</pdfrwt>
<pdfrwt beam="2">  1        1 0.15583211E+00 0.95222709E+02</pdfrwt>
<totfact> 0.78544716E-02</totfact>
</mgrwt>
</event>
<event>
 5    1  0.8459321E-003  0.1116714E+03  0.7546771E-02  0.1326581E+00
          1   -1    0    0  501    0 -0.00000000000E+00  0.00000000000E+00  0.18115875451E+04  0.18115875451E+04  0.00000000000E+00 0. -1.
          2   -1    0    0  502    0  0.00000000000E+00 -0.00000000000E+00 -0.21027580515E+03  0.21027580515E+03  0.00000000000E+00 0. -1.
         25    1    1    2    0    0  0.35025142108E+02  0.68392349012E+02 -0.18716738283E+02  0.14791751173E+03  0.12500000000E+03 0.  0.
          2    1    1    2  501    0  0.49540027059E+02  0.31253233872E+02  0.17127193409E+04  0.17137206656E+04  0.00000000000E+00 0. -1.
          1    1    1    2  502    0 -0.84565169167E+02 -0.99645582884E+02 -0.92690862675E+02  0.16022517295E+03  0.00000000000E+00 0. -1.
<mgrwt>
<rscale>  0 0.80877103E+02</rscale>
<asrwt>0</asrwt>
<pdfrwt beam="2">  1        2 0.32350125E-01 0.11167145E+03</pdfrwt>
<pdfrwt beam="1">  1        1 0.27870577E+00 0.58574559E+02</pdfrwt>
<totfact> 0.11503782E+02</totfact>
</mgrwt>
</event>
<event>
 5    1  0.8459321E-003  0.5668020E+02  0.7546771E-02  0.1467764E+00
         -2   -1    0    0    0  501 -0.00000000000E+00  0.00000000000E+00  0.13216819646E+03  0.13216819646E+03  0.00000000000E+00 0.  1.
          2   -1    0    0  502    0  0.00000000000E+00 -0.00000000000E+00 -0.38387179440E+04  0.38387179440E+04  0.00000000000E+00 0. -1.
         25    1    1    2    0    0 -0.54481409908E+02  0.93523833727E+01 -0.84503421252E+02  0.16069075675E+03  0.12500000000E+03 0.  0.
          1    1    1    2  502    0  0.37411505483E+02 -0.42683235167E+02 -0.37121686607E+04  0.37126025434E+04  0.00000000000E+00 0. -1.
         -1    1    1    2    0  501  0.17069904425E+02  0.33330851794E+02  0.90122334456E+02  0.97592840343E+02  0.00000000000E+00 0.  1.
<mgrwt>
<rscale>  0 0.46071040E+02</rscale>
<asrwt>0</asrwt>
<pdfrwt beam="2">  1        2 0.59057204E+00 0.56680195E+02</pdfrwt>
<pdfrwt beam="1">  1       -2 0.20333567E-01 0.37447661E+02</pdfrwt>
<totfact> 0.15466036E+01</totfact>
</mgrwt>
</event>
<event>
 5    1  0.8459321E-003  0.9371771E+02  0.7546771E-02  0.1344318E+00
          1   -1    0    0  501    0 -0.00000000000E+00  0.00000000000E+00  0.18608366619E+04  0.18608366619E+04  0.00000000000E+00 0. -1.
          2   -1    0    0  502    0  0.00000000000E+00 -0.00000000000E+00 -0.74663390929E+03  0.74663390929E+03  0.00000000000E+00 0. -1.
         25    1    1    2    0    0 -0.40219875910E+02  0.14051956256E+03 -0.46078230984E+03  0.49930824441E+03  0.12500000000E+03 0.  0.
          2    1    1    2  501    0  0.46749950282E+02 -0.81086858664E+02  0.18370147402E+04  0.18393976710E+04  0.00000000000E+00 0. -1.
          1    1    1    2  502    0 -0.65300743723E+01 -0.59432703893E+02 -0.26202967774E+03  0.26876465575E+03  0.00000000000E+00 0. -1.
<mgrwt>
<rscale>  0 0.74855973E+02</rscale>
<asrwt>0</asrwt>
<pdfrwt beam="2">  1        2 0.11486676E+00 0.59790368E+02</pdfrwt>
<pdfrwt beam="1">  1        1 0.28628256E+00 0.93717714E+02</pdfrwt>
<totfact> 0.26157301E+01</totfact>
</mgrwt>
</event>
<event>
 5    1  0.8459321E-003  0.1316785E+03  0.7546771E-02  0.1276764E+00
          1   -1    0    0  501    0 -0.00000000000E+00  0.00000000000E+00  0.85055307392E+02  0.85055307392E+02  0.00000000000E+00 0. -1.
          2   -1    0    0  502    0  0.00000000000E+00 -0.00000000000E+00 -0.22197931865E+04  0.22197931865E+04  0.00000000000E+00 0. -1.
         25    1    1    2    0    0  0.19701696406E+03  0.46491812392E+01 -0.94114011813E+03  0.96964272852E+03  0.12500000000E+03 0.  0.
          2    1    1    2  501    0 -0.78340160839E+02 -0.56616988121E+01  0.45276512762E+02  0.90659793965E+02  0.00000000000E+00 0. -1.
          1    1    1    2  502    0 -0.11867680322E+03  0.10125175729E+01 -0.12388742737E+04  0.12445459714E+04  0.00000000000E+00 0. -1.
<mgrwt>
<rscale>  0 0.10169865E+03</rscale>
<asrwt>0</asrwt>
<pdfrwt beam="2">  1        2 0.34150662E+00 0.13167845E+03</pdfrwt>
<pdfrwt beam="1">  1        1 0.13085433E-01 0.78544482E+02</pdfrwt>
<totfact> 0.35309983E+02</totfact>
</mgrwt>
</event>
<event>
 5    1  0.8459321E-003  0.1490999E+03  0.7546771E-02  0.1257084E+00
          1   -1    0    0  501    0 -0.00000000000E+00  0.00000000000E+00  0.46720790182E+03  0.46720790182E+03  0.00000000000E+00 0. -1.
          2   -1    0    0  502    0  0.00000000000E+00 -0.00000000000E+00 -0.36507267200E+04  0.36507267200E+04  0.00000000000E+00 0. -1.
         25    1    1    2    0    0 -0.14151862532E+03 -0.75945959904E+02 -0.20934918989E+04  0.21033612721E+04  0.12500000000E+03 0.  0.
          2    1    1    2  501    0  0.75923851154E+02  0.12839846794E+03  0.44906514315E+03  0.47319139947E+03  0.00000000000E+00 0. -1.
          1    1    1    2  502    0  0.65594774165E+02 -0.52452508032E+02 -0.15390920625E+04  0.15413819503E+04  0.00000000000E+00 0. -1.
<mgrwt>
<rscale>  0 0.11190425E+03</rscale>
<asrwt>0</asrwt>
<pdfrwt beam="2">  1        2 0.56165026E+00 0.83987737E+02</pdfrwt>
<pdfrwt beam="1">  1        1 0.71878139E-01 0.14909987E+03</pdfrwt>
<totfact> 0.68696058E+00</totfact>
</mgrwt>
</event>
<event>
 5    1  0.8459321E-003  0.9551745E+02  0.7546771E-02  0.1405432E+00
         -2   -1    0    0    0  501 -0.00000000000E+00  0.00000000000E+00  0.36044859023E+03  0.36044859023E+03  0.00000000000E+00 0.  1.
          2   -1    0    0  502    0  0.00000000000E+00 -0.00000000000E+00 -0.10397938343E+04  0.10397938343E+04  0.00000000000E+00 0. -1.
         25    1    1    2    0    0  0.20364022953E+02  0.93662706335E+02 -0.32243600741E+02  0.16078571385E+03  0.12500000000E+03 0.  0.
          1    1    1    2  502    0  0.32738799960E+02 -0.13709236492E+02 -0.93515753237E+03  0.93583085146E+03  0.00000000000E+00 0. -1.
         -3    1    1    2    0  501 -0.53102822913E+02 -0.79953469843E+02  0.28805588907E+03  0.30362585919E+03  0.00000000000E+00 0.  1.
<mgrwt>
<rscale>  0 0.58225654E+02</rscale>
<asrwt>0</asrwt>
<pdfrwt beam="2">  1        2 0.15996828E+00 0.35493270E+02</pdfrwt>
<pdfrwt beam="1">  1       -2 0.55453629E-01 0.95517455E+02</pdfrwt>
<totfact> 0.87900216E+01</totfact>
</mgrwt>
</event>
<event>
 5    1  0.8459321E-003  0.6500687E+02  0.7546771E-02  0.1429729E+00
          1   -1    0    0  501    0 -0.00000000000E+00  0.00000000000E+00  0.11618794839E+03  0.11618794839E+03  0.00000000000E+00 0. -1.
          2   -1    0    0  502    0  0.00000000000E+00 -0.00000000000E+00 -0.34043339010E+03  0.34043339010E+03  0.00000000000E+00 0. -1.
         25    1    1    2    0    0  0.14411020270E+02  0.35839548170E+02 -0.18612947483E+03  0.22751116922E+03  0.12500000000E+03 0.  0.
          2    1    1    2  501    0  0.21447900423E+02  0.37539154729E+02  0.76796977623E+02  0.88130450710E+02  0.00000000000E+00 0. -1.
          1    1    1    2  502    0 -0.35858920693E+02 -0.73378702900E+02 -0.11491294450E+03  0.14097971856E+03  0.00000000000E+00 0. -1.
<mgrwt>
<rscale>  0 0.53014371E+02</rscale>
<asrwt>0</asrwt>
<pdfrwt beam="2">  1        2 0.52374367E-01 0.65006872E+02</pdfrwt>
<pdfrwt beam="1">  1        1 0.17875069E-01 0.43234252E+02</pdfrwt>
<totfact> 0.35377435E+03</totfact>
</mgrwt>
</event>
<event>
 5    1  0.8459321E-003  0.3123099E+02  0.7546771E-02  0.1660775E+00
          1   -1    0    0  502    0  0.00000000000E+00  0.00000000000E+00  0.45310685510E+03  0.45310685510E+03  0.00000000000E+00 0. -1.
         -1   -1    0    0    0  501 -0.00000000000E+00 -0.00000000000E+00 -0.67308632476E+02  0.67308632476E+02  0.00000000000E+00 0.  1.
         25    1    1    2    0    0 -0.48202733157E+02  0.93478190143E+01  0.28616419102E+03  0.31611047029E+03  0.12500000000E+03 0.  0.
          2    1    1    2  502    0  0.17241537544E+02 -0.10209286409E+02  0.14664513526E+03  0.14800775602E+03  0.00000000000E+00 0. -1.
         -2    1    1    2    0  501  0.30961195612E+02  0.86146739444E+00 -0.47011103655E+02  0.56297261272E+02  0.00000000000E+00 0.  1.
<mgrwt>
<rscale>  0 0.25015794E+02</rscale>
<asrwt>0</asrwt>
<pdfrwt beam="1">  1        1 0.69708745E-01 0.20037469E+02</pdfrwt>
<pdfrwt beam="2">  1       -1 0.10355174E-01 0.31230988E+02</pdfrwt>
<totfact> 0.26798412E+03</totfact>
</mgrwt>
</event>
<event>
 5    1  0.8459321E-003  0.1074685E+03  0.7546771E-02  0.1275997E+00
          1   -1    0    0  501    0 -0.00000000000E+00  0.00000000000E+00  0.15998718423E+03  0.15998718423E+03  0.00000000000E+00 0. -1.
          2   -1    0    0  502    0  0.00000000000E+00 -0.00000000000E+00 -0.18267387613E+04  0.18267387613E+04  0.00000000000E+00 0. -1.
         25    1    1    2    0    0  0.14643631170E+03 -0.96931031858E+01 -0.20643998691E+03  0.28245356756E+03  0.12500000000E+03 0.  0.
          2    1    1    2  501    0 -0.75403899629E+02  0.75671869216E+02  0.96791186920E+02  0.14415447872E+03  0.00000000000E+00 0. -1.
          1    1    1    2  502    0 -0.71032412075E+02 -0.65978766030E+02 -0.15571027771E+04  0.15601178992E+04  0.00000000000E+00 0. -1.
<mgrwt>
<rscale>  0 0.10207251E+03</rscale>
<asrwt>0</asrwt>
<pdfrwt beam="2">  1        2 0.28103673E+00 0.96947414E+02</pdfrwt>
<pdfrwt beam="1">  1        1 0.24613413E-01 0.10746854E+03</pdfrwt>
<totfact> 0.26343675E+02</totfact>
</mgrwt>
</event>
<event>
 5    1  0.8459321E-003  0.1560532E+03  0.7546771E-02  0.1335704E+00
          1   -1    0    0  501    0 -0.00000000000E+00  0.00000000000E+00  0.32984813706E+03  0.32984813706E+03  0.00000000000E+00 0. -1.
          2   -1    0    0  502    0  0.00000000000E+00 -0.00000000000E+00 -0.76570350613E+03  0.76570350613E+03  0.00000000000E+00 0. -1.
         25    1    1    2    0    0  0.14218286552E+03  0.36006265219E+02 -0.80581646974E+02  0.20887991816E+03  0.12500000000E+03 0.  0.
          2    1    1    2  501    0  0.15937953224E+02 -0.35253507701E+02  0.25414526797E+03  0.25707322962E+03  0.00000000000E+00 0. -1.
          1    1    1    2  502    0 -0.15812081874E+03 -0.75275751814E+00 -0.60941899007E+03  0.62959849540E+03  0.00000000000E+00 0. -1.
<mgrwt>
<rscale>  0 0.77701490E+02</rscale>
<asrwt>0</asrwt>
<pdfrwt beam="2">  1        2 0.11780054E+00 0.15605321E+03</pdfrwt>
<pdfrwt beam="1">  1        1 0.50745868E-01 0.38688863E+02</pdfrwt>
<totfact> 0.40809260E+02</totfact>
</mgrwt>
</event>
<event>
 5    1  0.8459321E-003  0.1013516E+03  0.7546771E-02  0.1307304E+00
          1   -1    0    0  501    0 -0.00000000000E+00  0.00000000000E+00  0.45183148541E+02  0.45183148541E+02  0.00000000000E+00 0. -1.
          2   -1    0    0  502    0  0.00000000000E+00 -0.00000000000E+00 -0.10232217978E+04  0.10232217978E+04  0.00000000000E+00 0. -1.
         25    1    1    2    0    0  0.55538863535E+02  0.17390261129E+02 -0.28078138665E+03  0.31281012393E+03  0.12500000000E+03 0.  0.
          2    1    1    2  501    0 -0.12370596364E+03  0.17835948329E+02 -0.12002108141E+03  0.17328111979E+03  0.00000000000E+00 0. -1.
          1    1    1    2  502    0  0.68167100106E+02 -0.35226209458E+02 -0.57723618119E+03  0.58231370261E+03  0.00000000000E+00 0. -1.
<mgrwt>
<rscale>  0 0.88186190E+02</rscale>
<asrwt>0</asrwt>
<pdfrwt beam="2">  1        2 0.15741873E+00 0.76730954E+02</pdfrwt>
<pdfrwt beam="1">  1        1 0.69512539E-02 0.10135159E+03</pdfrwt>
<totfact> 0.36128104E+03</totfact>
</mgrwt>
</event>
<event>
 5    1  0.8459321E-003  0.6174058E+02  0.7546771E-02  0.1465223E+00
          1   -1    0    0  501    0 -0.00000000000E+00  0.00000000000E+00  0.26036954135E+02  0.26036954135E+02  0.00000000000E+00 0. -1.
          2   -1    0    0  502    0  0.00000000000E+00 -0.00000000000E+00 -0.14564745602E+04  0.14564745602E+04  0.00000000000E+00 0. -1.
         25    1    1    2    0    0  0.83488679117E+01 -0.46323308316E+02 -0.40907754479E+03  0.43033125629E+03  0.12500000000E+03 0.  0.
          2    1    1    2  501    0  0.35010001982E+02 -0.45192059876E+00 -0.68616555981E+01  0.35678940407E+02  0.00000000000E+00 0. -1.
          1    1    1    2  502    0 -0.43358869894E+02  0.46775228915E+02 -0.10144984056E+04  0.10165013176E+04  0.00000000000E+00 0. -1.
<mgrwt>
<rscale>  0 0.46494278E+02</rscale>
<asrwt>0</asrwt>
<pdfrwt beam="2">  1        2 0.22407303E+00 0.61740580E+02</pdfrwt>
<pdfrwt beam="1">  1        1 0.40056848E-02 0.35012919E+02</pdfrwt>
<totfact> 0.40218730E+03</totfact>
</mgrwt>
</event>
<event>
 5    1  0.8459321E-003  0.9935681E+02  0.7546771E-02  0.1287536E+00
         -2   -1    0    0    0  501 -0.00000000000E+00  0.00000000000E+00  0.55681431851E+03  0.55681431851E+03  0.00000000000E+00 0.  1.
          2   -1    0    0  502    0  0.00000000000E+00 -0.00000000000E+00 -0.22227199521E+03  0.22227199521E+03  0.00000000000E+00 0. -1.
         25    1    1    2    0    0  0.66854731915E+02 -0.15628586774E+02  0.15977470690E+02  0.14350640220E+03  0.12500000000E+03 0.  0.
          1    1    1    2  502    0 -0.68766437640E+02 -0.83709831408E+02 -0.13395599369E+03  0.17227990906E+03  0.00000000000E+00 0. -1.
         -3    1    1    2    0  501  0.19117057243E+01  0.99338418182E+02  0.45252084630E+03  0.46330000246E+03  0.00000000000E+00 0.  1.
<mgrwt>
<rscale>  0 0.96634700E+02</rscale>
<asrwt>0</asrwt>
<pdfrwt beam="2">  1        2 0.34195692E-01 0.93987168E+02</pdfrwt>
<pdfrwt beam="1">  1       -2 0.85663741E-01 0.99356811E+02</pdfrwt>
<totfact> 0.18817075E+02</totfact>
</mgrwt>
</event>
<event>
 5    1  0.8459321E-003  0.1951918E+03  0.7546771E-02  0.1319933E+00
          1   -1    0    0  501    0 -0.00000000000E+00  0.00000000000E+00  0.12796954491E+04  0.12796954491E+04  0.00000000000E+00 0. -1.
          2   -1    0    0  502    0  0.00000000000E+00 -0.00000000000E+00 -0.50789853652E+03  0.50789853652E+03  0.00000000000E+00 0. -1.
         25    1    1    2    0    0  0.10286479732E+03  0.14599670621E+03  0.16371863114E+03  0.27262610831E+03  0.12500000000E+03 0.  0.
          2    1    1    2  501    0 -0.13821808543E+03 -0.14225218144E+03  0.10515405314E+04  0.10700828994E+04  0.00000000000E+00 0. -1.
          1    1    1    2  502    0  0.35353288113E+02 -0.37445247686E+01 -0.44346224999E+03  0.44488497795E+03  0.00000000000E+00 0. -1.
<mgrwt>
<rscale>  0 0.83302284E+02</rscale>
<asrwt>0</asrwt>
<pdfrwt beam="2">  1        2 0.78138237E-01 0.35551040E+02</pdfrwt>
<pdfrwt beam="1">  1        1 0.19687622E+00 0.19519177E+03</pdfrwt>
<totfact> 0.89337738E+01</totfact>
</mgrwt>
</event>
<event>
 5    1  0.8459321E-003  0.4423279E+02  0.7546771E-02  0.1506293E+00
          1   -1    0    0  501    0 -0.00000000000E+00  0.00000000000E+00  0.10401326032E+03  0.10401326032E+03  0.00000000000E+00 0. -1.
          2   -1    0    0  502    0  0.00000000000E+00 -0.00000000000E+00 -0.73258435320E+03  0.73258435320E+03  0.00000000000E+00 0. -1.
         25    1    1    2    0    0  0.49447131559E+02  0.35813423705E+02 -0.31276657250E+03  0.34230914246E+03  0.12500000000E+03 0.  0.
          2    1    1    2  501    0 -0.44144782748E+02  0.44840833665E+00  0.82889927797E+02  0.93913274057E+02  0.00000000000E+00 0. -1.
          1    1    1    2  502    0 -0.53023488118E+01 -0.36261832041E+02 -0.39869444817E+03  0.40037519700E+03  0.00000000000E+00 0. -1.
<mgrwt>
<rscale>  0 0.40261879E+02</rscale>
<asrwt>0</asrwt>
<pdfrwt beam="2">  1        2 0.11270528E+00 0.36647447E+02</pdfrwt>
<pdfrwt beam="1">  1        1 0.16002041E-01 0.44232792E+02</pdfrwt>
<totfact> 0.18143676E+03</totfact>
</mgrwt>
</event>
<event>
 5    1  0.8459321E-003  0.7063222E+02  0.7546771E-02  0.1488208E+00
          1   -1    0    0  501    0 -0.00000000000E+00  0.00000000000E+00  0.56921879326E+02  0.56921879326E+02  0.00000000000E+00 0. -1.
          2   -1    0    0  502    0  0.00000000000E+00 -0.00000000000E+00 -0.22642775510E+04  0.22642775510E+04  0.00000000000E+00 0. -1.
         25    1    1    2    0    0  0.46343656059E+02 -0.61655316665E+01 -0.33205343811E+03  0.35786901793E+03  0.12500000000E+03 0.  0.
          2    1    1    2  501    0 -0.72282745731E+02  0.79315750258E+01  0.13829316091E+02  0.74019964850E+02  0.00000000000E+00 0. -1.
          1    1    1    2  502    0  0.25939089672E+02 -0.17660433593E+01 -0.18891315497E+04  0.18893104476E+04  0.00000000000E+00 0. -1.
<mgrwt>
<rscale>  0 0.42852968E+02</rscale>
<asrwt>0</asrwt>
<pdfrwt beam="2">  1        2 0.34835034E+00 0.25999140E+02</pdfrwt>
<pdfrwt beam="1">  1        1 0.87572136E-02 0.70632216E+02</pdfrwt>
<totfact> 0.69321303E+02</totfact>
</mgrwt>
</event>
<event>
 5    1  0.8459321E-003  0.1425101E+03  0.7546771E-02  0.1368637E+00
          1   -1    0    0  501    0 -0.00000000000E+00  0.00000000000E+00  0.56835675636E+03  0.56835675636E+03  0.00000000000E+00 0. -1.
          2   -1    0    0  502    0  0.00000000000E+00 -0.00000000000E+00 -0.19140044184E+04  0.19140044184E+04  0.00000000000E+00 0. -1.
         25    1    1    2    0    0  0.72647235139E+02 -0.84812789620E+02  0.30280256799E+03  0.34610002201E+03  0.12500000000E+03 0.  0.
          2    1    1    2  501    0  0.26604998219E+02 -0.17811057436E+02  0.24014877701E+03  0.24227359492E+03  0.00000000000E+00 0. -1.
          1    1    1    2  502    0 -0.99252233358E+02  0.10262384706E+03 -0.18885990071E+04  0.18939875579E+04  0.00000000000E+00 0. -1.
<mgrwt>
<rscale>  0 0.67547629E+02</rscale>
<asrwt>0</asrwt>
<pdfrwt beam="2">  1        2 0.29446221E+00 0.14251010E+03</pdfrwt>
<pdfrwt beam="1">  1        1 0.87439503E-01 0.32016553E+02</pdfrwt>
<totfact> 0.48768327E+01</totfact>
</mgrwt>
</event>
<event>
 5    1  0.8459321E-003  0.6907186E+02  0.7546771E-02  0.1403617E+00
          1   -1    0    0  501    0 -0.00000000000E+00  0.00000000000E+00  0.85225278521E+03  0.85225278521E+03  0.00000000000E+00 0. -1.
          2   -1    0    0  502    0  0.00000000000E+00 -0.00000000000E+00 -0.11232063088E+04  0.11232063088E+04  0.00000000000E+00 0. -1.
         25    1    1    2    0    0 -0.51451425213E+02 -0.10627412435E+03  0.15101779673E+03  0.22885107295E+03  0.12500000000E+03 0.  0.
          2    1    1    2  501    0  0.16703550751E+02  0.46902832922E+02  0.66028905544E+03  0.66216351536E+03  0.00000000000E+00 0. -1.
          1    1    1    2  502    0  0.34747874462E+02  0.59371291424E+02 -0.10822603758E+04  0.10844445057E+04  0.00000000000E+00 0. -1.
<mgrwt>
<rscale>  0 0.58642791E+02</rscale>
<asrwt>0</asrwt>
<pdfrwt beam="2">  1        2 0.17280097E+00 0.69071856E+02</pdfrwt>
<pdfrwt beam="1">  1        1 0.13111581E+00 0.49788396E+02</pdfrwt>
<totfact> 0.75211025E+01</totfact>
</mgrwt>
</event>
<event>
 5    1  0.8459321E-003  0.4424999E+02  0.7546771E-02  0.1491154E+00
          1   -1    0    0  501    0 -0.00000000000E+00  0.00000000000E+00  0.38110769457E+03  0.38110769457E+03  0.00000000000E+00 0. -1.
          2   -1    0    0  502    0  0.00000000000E+00 -0.00000000000E+00 -0.60219279616E+03  0.60219279616E+03  0.00000000000E+00 0. -1.
         25    1    1    2    0    0  0.20295193986E+02 -0.38224771999E+02 -0.44163745585E+03  0.46102241866E+03  0.12500000000E+03 0.  0.
          2    1    1    2  501    0  0.25409483079E+02  0.36227337994E+02  0.36658561713E+03  0.36924663375E+03  0.00000000000E+00 0. -1.
          1    1    1    2  502    0 -0.45704677066E+02  0.19974340050E+01 -0.14603326287E+03  0.15303143832E+03  0.00000000000E+00 0. -1.
<mgrwt>
<rscale>  0 0.42415334E+02</rscale>
<asrwt>0</asrwt>
<pdfrwt beam="2">  1        2 0.92645045E-01 0.40656743E+02</pdfrwt>
<pdfrwt beam="1">  1        1 0.58631953E-01 0.44249993E+02</pdfrwt>
<totfact> 0.47022893E+02</totfact>
</mgrwt>
</event>
<event>
 5    1  0.8459321E-003  0.5006776E+02  0.7546771E-02  0.1531407E+00
          1   -1    0    0  501    0 -0.00000000000E+00  0.00000000000E+00  0.18789435854E+04  0.18789435854E+04  0.00000000000E+00 0. -1.
          2   -1    0    0  502    0  0.00000000000E+00 -0.00000000000E+00 -0.11852264999E+03  0.11852264999E+03  0.00000000000E+00 0. -1.
         25    1    1    2    0    0  0.38475216581E+02  0.36748463269E+02  0.35578560066E+02  0.14043370600E+03  0.12500000000E+03 0.  0.
          2    1    1    2  501    0 -0.48781598669E+02 -0.11399386369E+02  0.17877391877E+04  0.17884409394E+04  0.00000000000E+00 0. -1.
          1    1    1    2  502    0  0.10306382088E+02 -0.25349076900E+02 -0.62896812378E+02  0.68591590000E+02  0.00000000000E+00 0. -1.
<mgrwt>
<rscale>  0 0.37014351E+02</rscale>
<asrwt>0</asrwt>
<pdfrwt beam="2">  1        2 0.18234255E-01 0.27364159E+02</pdfrwt>
<pdfrwt beam="1">  1        1 0.28906822E+00 0.50067762E+02</pdfrwt>
<totfact> 0.18721941E+02</totfact>
</mgrwt>
</event>
<event>
 5    1  0.8459321E-003  0.3153879E+02  0.7546771E-02  0.1659032E+00
          2   -1    0    0  502    0  0.00000000000E+00  0.00000000000E+00  0.93798141696E+03  0.93798141696E+03  0.00000000000E+00 0. -1.
         -2   -1    0    0    0  501 -0.00000000000E+00 -0.00000000000E+00 -0.26742454890E+03  0.26742454890E+03  0.00000000000E+00 0.  1.
         25    1    1    2    0    0  0.29955280228E+02  0.41095917039E+02  0.76220725103E+03  0.77406142310E+03  0.12500000000E+03 0.  0.
          1    1    1    2  502    0 -0.14874642898E+02 -0.13422918285E+02  0.16830116768E+03  0.16948956540E+03  0.00000000000E+00 0. -1.
         -1    1    1    2    0  501 -0.15080637330E+02 -0.27672998754E+02 -0.25995155065E+03  0.26185497736E+03  0.00000000000E+00 0.  1.
<mgrwt>
<rscale>  0 0.25137665E+02</rscale>
<asrwt>0</asrwt>
<pdfrwt beam="1">  1        2 0.14430483E+00 0.20035712E+02</pdfrwt>
<pdfrwt beam="2">  1       -2 0.41142239E-01 0.31538795E+02</pdfrwt>
<totfact> 0.18124611E+02</totfact>
</mgrwt>
</event>
<event>
 5    1  0.8459321E-003  0.5968475E+02  0.7546771E-02  0.1407540E+00
          1   -1    0    0  501    0 -0.00000000000E+00  0.00000000000E+00  0.23044968713E+03  0.23044968713E+03  0.00000000000E+00 0. -1.
          2   -1    0    0  502    0  0.00000000000E+00 -0.00000000000E+00 -0.60841008100E+03  0.60841008100E+03  0.00000000000E+00 0. -1.
         25    1    1    2    0    0  0.61915723954E+01  0.15544728135E+02 -0.10302873766E+03  0.16284930127E+03  0.12500000000E+03 0.  0.
          2    1    1    2  501    0  0.40323132118E+02 -0.46495254829E+02  0.19412017622E+03  0.20364284059E+03  0.00000000000E+00 0. -1.
          1    1    1    2  502    0 -0.46514704514E+02  0.30950526695E+02 -0.46905183244E+03  0.47236762627E+03  0.00000000000E+00 0. -1.
<mgrwt>
<rscale>  0 0.57746328E+02</rscale>
<asrwt>0</asrwt>
<pdfrwt beam="2">  1        2 0.93601552E-01 0.55870859E+02</pdfrwt>
<pdfrwt beam="1">  1        1 0.35453798E-01 0.59684754E+02</pdfrwt>
<totfact> 0.84480743E+02</totfact>
</mgrwt>
</event>
<event>
 5    1  0.8459321E-003  0.8753267E+02  0.7546771E-02  0.1327347E+00
          2   -1    0    0  502    0  0.00000000000E+00  0.00000000000E+00  0.26666889336E+03  0.26666889336E+03  0.00000000000E+00 0. -1.
          1   -1    0    0  501    0 -0.00000000000E+00 -0.00000000000E+00 -0.19804871378E+03  0.19804871378E+03  0.00000000000E+00 0. -1.
         25    1    1    2    0    0 -0.61872191841E+02 -0.34770992998E+02  0.85784818312E+02  0.16739541550E+03  0.12500000000E+03 0.  0.
          2    1    1    2  501    0  0.13817488746E+02  0.91338005265E+02 -0.13168314821E+03  0.16085398883E+03  0.00000000000E+00 0. -1.
          1    1    1    2  502    0  0.48054703096E+02 -0.56567012268E+02  0.11451850948E+03  0.13646820281E+03  0.00000000000E+00 0. -1.
<mgrwt>
<rscale>  0 0.80603681E+02</rscale>
<asrwt>0</asrwt>
<pdfrwt beam="1">  1        2 0.41025983E-01 0.74223186E+02</pdfrwt>
<pdfrwt beam="2">  1        1 0.30469033E-01 0.87532667E+02</pdfrwt>
<totfact> 0.24261883E+03</totfact>
</mgrwt>
</event>
<event>
 5    1  0.8459321E-003  0.6328565E+02  0.7546771E-02  0.1445118E+00
          1   -1    0    0  501    0 -0.00000000000E+00  0.00000000000E+00  0.20495078815E+02  0.20495078815E+02  0.00000000000E+00 0. -1.
          2   -1    0    0  502    0  0.00000000000E+00 -0.00000000000E+00 -0.10031967863E+04  0.10031967863E+04  0.00000000000E+00 0. -1.
         25    1    1    2    0    0  0.67857358320E+02  0.27774797163E+02 -0.59778729691E+03  0.61510219703E+03  0.12500000000E+03 0.  0.
          2    1    1    2  501    0 -0.31748808418E+02  0.23616108773E+02 -0.34214927978E+02  0.52310311852E+02  0.00000000000E+00 0. -1.
          1    1    1    2  502    0 -0.36108549902E+02 -0.51390905936E+02 -0.35069948262E+03  0.35627935627E+03  0.00000000000E+00 0. -1.
<mgrwt>
<rscale>  0 0.50041495E+02</rscale>
<asrwt>0</asrwt>
<pdfrwt beam="2">  1        2 0.15433798E+00 0.63285649E+02</pdfrwt>
<pdfrwt beam="1">  1        1 0.31530888E-02 0.39569021E+02</pdfrwt>
<totfact> 0.97578300E+03</totfact>
</mgrwt>
</event>
<event>
 5    1  0.8459321E-003  0.8239310E+02  0.7546771E-02  0.1394672E+00
          2   -1    0    0  502    0  0.00000000000E+00  0.00000000000E+00  0.17011292281E+04  0.17011292281E+04  0.00000000000E+00 0. -1.
         -2   -1    0    0    0  501 -0.00000000000E+00 -0.00000000000E+00 -0.97960888923E+02  0.97960888923E+02  0.00000000000E+00 0.  1.
         25    1    1    2    0    0  0.62154941092E+02 -0.92931619615E+02  0.27890048135E+03  0.32543816790E+03  0.12500000000E+03 0.  0.
          1    1    1    2  502    0  0.25546475231E+01  0.44733200609E+02  0.13766977126E+04  0.13774266504E+04  0.00000000000E+00 0. -1.
         -1    1    1    2    0  501 -0.64709588616E+02  0.48198419006E+02 -0.52429854715E+02  0.96225298746E+02  0.00000000000E+00 0.  1.
<mgrwt>
<rscale>  0 0.60759463E+02</rscale>
<asrwt>0</asrwt>
<pdfrwt beam="1">  1        2 0.26171217E+00 0.44806087E+02</pdfrwt>
<pdfrwt beam="2">  1       -2 0.15070907E-01 0.82393097E+02</pdfrwt>
<totfact> 0.40750394E+02</totfact>
</mgrwt>
</event>
<event>
 5    1  0.8459321E-003  0.1423196E+03  0.7546771E-02  0.1350744E+00
          2   -1    0    0  502    0  0.00000000000E+00  0.00000000000E+00  0.18261563758E+03  0.18261563758E+03  0.00000000000E+00 0. -1.
          1   -1    0    0  501    0 -0.00000000000E+00 -0.00000000000E+00 -0.21627475933E+04  0.21627475933E+04  0.00000000000E+00 0. -1.
         25    1    1    2    0    0 -0.34811767114E+02  0.10259407031E+03 -0.12340846622E+04  0.12451214221E+04  0.12500000000E+03 0.  0.
          2    1    1    2  501    0  0.35994799252E+01  0.37089620293E+02 -0.89377400440E+03  0.89455048328E+03  0.00000000000E+00 0. -1.
          1    1    1    2  502    0  0.31212287189E+02 -0.13968369060E+03  0.14772671084E+03  0.20569132551E+03  0.00000000000E+00 0. -1.
<mgrwt>
<rscale>  0 0.72824311E+02</rscale>
<asrwt>0</asrwt>
<pdfrwt beam="1">  1        2 0.28094714E-01 0.14231962E+03</pdfrwt>
<pdfrwt beam="2">  1        1 0.33273040E+00 0.37263872E+02</pdfrwt>
<totfact> 0.87336984E+01</totfact>
</mgrwt>
</event>
<event>
 5    1  0.8459321E-003  0.1517628E+03  0.7546771E-02  0.1331111E+00
          1   -1    0    0  501    0 -0.00000000000E+00  0.00000000000E+00  0.60519493708E+03  0.60519493708E+03  0.00000000000E+00 0. -1.
          2   -1    0    0  502    0  0.00000000000E+00 -0.00000000000E+00 -0.25489802528E+03  0.25489802528E+03  0.00000000000E+00 0. -1.
         25    1    1    2    0    0  0.17658658291E+02  0.17526121981E+03  0.29158767141E+03  0.36287283379E+03  0.12500000000E+03 0.  0.
          2    1    1    2  501    0 -0.32319805131E+02 -0.25895274808E+02  0.25037922504E+03  0.25378118802E+03  0.00000000000E+00 0. -1.
          1    1    1    2  502    0  0.14661146840E+02 -0.14936594500E+03 -0.19166998466E+03  0.24343894055E+03  0.00000000000E+00 0. -1.
<mgrwt>
<rscale>  0 0.79278824E+02</rscale>
<asrwt>0</asrwt>
<pdfrwt beam="2">  1        2 0.39215081E-01 0.15176277E+03</pdfrwt>
<pdfrwt beam="1">  1        1 0.93106913E-01 0.41414189E+02</pdfrwt>
<totfact> 0.65412683E+02</totfact>
</mgrwt>
</event>
<event>
 5    1  0.8459321E-003  0.4631628E+02  0.7546771E-02  0.1501307E+00
          2   -1    0    0  502    0  0.00000000000E+00  0.00000000000E+00  0.27029065692E+02  0.27029065692E+02  0.00000000000E+00 0. -1.
          1   -1    0    0  501    0 -0.00000000000E+00 -0.00000000000E+00 -0.21689520384E+04  0.21689520384E+04  0.00000000000E+00 0. -1.
         25    1    1    2    0    0 -0.39506269877E+02 -0.10100423087E+02 -0.63986869465E+03  0.65323786655E+03  0.12500000000E+03 0.  0.
          2    1    1    2  501    0  0.29369384887E+00  0.36211229862E+02 -0.14946094834E+04  0.14950481087E+04  0.00000000000E+00 0. -1.
          1    1    1    2  502    0  0.39212576029E+02 -0.26110806775E+02 -0.74447946668E+01  0.47695128859E+02  0.00000000000E+00 0. -1.
<mgrwt>
<rscale>  0 0.40953935E+02</rscale>
<asrwt>0</asrwt>
<pdfrwt beam="1">  1        2 0.41583180E-02 0.46316284E+02</pdfrwt>
<pdfrwt beam="2">  1        1 0.33368491E+00 0.36212421E+02</pdfrwt>
<totfact> 0.78811086E+02</totfact>
</mgrwt>
</event>
<event>
 5    1  0.8459321E-003  0.8893106E+02  0.7546771E-02  0.1369515E+00
          2   -1    0    0  502    0  0.00000000000E+00  0.00000000000E+00  0.22771052336E+04  0.22771052336E+04  0.00000000000E+00 0. -1.
         -2   -1    0    0    0  501 -0.00000000000E+00 -0.00000000000E+00 -0.64454858966E+02  0.64454858966E+02  0.00000000000E+00 0.  1.
         25    1    1    2    0    0 -0.33016275994E+02  0.75803943721E+02  0.80770616245E+03  0.82149288324E+03  0.12500000000E+03 0.  0.
          1    1    1    2  502    0 -0.42774468347E+02 -0.27650978746E+02  0.14267537991E+04  0.14276626475E+04  0.00000000000E+00 0. -1.
         -1    1    1    2    0  501  0.75790744342E+02 -0.48152964976E+02 -0.21809586930E+02  0.92404561824E+02  0.00000000000E+00 0.  1.
<mgrwt>
<rscale>  0 0.67302148E+02</rscale>
<asrwt>0</asrwt>
<pdfrwt beam="1">  1        2 0.35032382E+00 0.50933602E+02</pdfrwt>
<pdfrwt beam="2">  1       -2 0.99161339E-02 0.88931060E+02</pdfrwt>
<totfact> 0.40939777E+02</totfact>
</mgrwt>
</event>
<event>
 5    1  0.8459321E-003  0.3260773E+02  0.7546771E-02  0.1603023E+00
          2   -1    0    0  502    0  0.00000000000E+00  0.00000000000E+00  0.14626017357E+04  0.14626017357E+04  0.00000000000E+00 0. -1.
          1   -1    0    0  501    0 -0.00000000000E+00 -0.00000000000E+00 -0.92920169366E+02  0.92920169366E+02  0.00000000000E+00 0. -1.
         25    1    1    2    0    0  0.38555341734E+02 -0.31748729399E+02  0.13626063925E+04  0.13692390868E+04  0.12500000000E+03 0.  0.
          2    1    1    2  501    0 -0.32071888626E+02  0.57509977019E+01 -0.84660485507E+02  0.90714264705E+02  0.00000000000E+00 0. -1.
          1    1    1    2  502    0 -0.64834531085E+01  0.25997731697E+02  0.91735659394E+02  0.95568553521E+02  0.00000000000E+00 0. -1.
<mgrwt>
<rscale>  0 0.29558262E+02</rscale>
<asrwt>0</asrwt>
<pdfrwt beam="1">  1        2 0.22501563E+00 0.26793977E+02</pdfrwt>
<pdfrwt beam="2">  1        1 0.14295412E-01 0.32607733E+02</pdfrwt>
<totfact> 0.83659206E+02</totfact>
</mgrwt>
</event>
<event>
 5    1  0.8459321E-003  0.2026557E+03  0.7546771E-02  0.1326522E+00
          2   -1    0    0  502    0  0.00000000000E+00  0.00000000000E+00  0.68327299199E+03  0.68327299199E+03  0.00000000000E+00 0. -1.
          1   -1    0    0  501    0 -0.00000000000E+00 -0.00000000000E+00 -0.11675604667E+04  0.11675604667E+04  0.00000000000E+00 0. -1.
         25    1    1    2    0    0 -0.17329194480E+03  0.16022661236E+02  0.91337581665E+02  0.23292569122E+03  0.12500000000E+03 0.  0.
          2    1    1    2  501    0  0.20202509087E+03 -0.30763611601E+02 -0.10867333698E+04  0.11057802468E+04  0.00000000000E+00 0. -1.
          1    1    1    2  502    0 -0.28733146067E+02  0.14740950365E+02  0.51110831347E+03  0.51212752064E+03  0.00000000000E+00 0. -1.
<mgrwt>
<rscale>  0 0.80898216E+02</rscale>
<asrwt>0</asrwt>
<pdfrwt beam="1">  1        2 0.10511892E+00 0.32293797E+02</pdfrwt>
<pdfrwt beam="2">  1        1 0.17962469E+00 0.20265568E+03</pdfrwt>
<totfact> 0.77788701E+01</totfact>
</mgrwt>
</event>
<event>
 5    1  0.8459321E-003  0.5493826E+02  0.7546771E-02  0.1478514E+00
          1   -1    0    0  501    0 -0.00000000000E+00  0.00000000000E+00  0.29139007102E+02  0.29139007102E+02  0.00000000000E+00 0. -1.
          2   -1    0    0  502    0  0.00000000000E+00 -0.00000000000E+00 -0.25664771909E+04  0.25664771909E+04  0.00000000000E+00 0. -1.
         25    1    1    2    0    0  0.60958754731E+02  0.11862879894E+02 -0.22016991868E+04  0.22061189920E+04  0.12500000000E+03 0.  0.
          2    1    1    2  501    0 -0.12143001313E+02 -0.33660627153E+02  0.12022234792E+02  0.37749495767E+02  0.00000000000E+00 0. -1.
          1    1    1    2  502    0 -0.48815753418E+02  0.21797747260E+02 -0.34766123175E+03  0.35174771020E+03  0.00000000000E+00 0. -1.
<mgrwt>
<rscale>  0 0.44338554E+02</rscale>
<asrwt>0</asrwt>
<pdfrwt beam="2">  1        2 0.39484286E+00 0.54938261E+02</pdfrwt>
<pdfrwt beam="1">  1        1 0.44829217E-02 0.35783939E+02</pdfrwt>
<totfact> 0.98761756E+02</totfact>
</mgrwt>
</event>
<event>
 5    1  0.8459321E-003  0.7169987E+02  0.7546771E-02  0.1421998E+00
          2   -1    0    0  502    0  0.00000000000E+00  0.00000000000E+00  0.42992178790E+03  0.42992178790E+03  0.00000000000E+00 0. -1.
         -2   -1    0    0    0  501 -0.00000000000E+00 -0.00000000000E+00 -0.10080060352E+03  0.10080060352E+03  0.00000000000E+00 0.  1.
         25    1    1    2    0    0 -0.59517224133E+02 -0.41390287710E+02  0.24282389705E+03  0.28256663084E+03  0.12500000000E+03 0.  0.
          1    1    1    2  502    0 -0.12828714309E+02  0.39550435293E+02  0.14757971205E+03  0.15332509335E+03  0.00000000000E+00 0. -1.
         -1    1    1    2    0  501  0.72345938442E+02  0.18398524169E+01 -0.61282424728E+02  0.94830667226E+02  0.00000000000E+00 0.  1.
<mgrwt>
<rscale>  0 0.54600443E+02</rscale>
<asrwt>0</asrwt>
<pdfrwt beam="1">  1        2 0.66141813E-01 0.41578995E+02</pdfrwt>
<pdfrwt beam="2">  1       -2 0.15507785E-01 0.71699867E+02</pdfrwt>
<totfact> 0.22776089E+03</totfact>
</mgrwt>
</event>
<event>
 5    1  0.8459321E-003  0.7093347E+02  0.7546771E-02  0.1501079E+00
          1   -1    0    0  501    0 -0.00000000000E+00  0.00000000000E+00  0.53736394417E+03  0.53736394417E+03  0.00000000000E+00 0. -1.
          2   -1    0    0  502    0  0.00000000000E+00 -0.00000000000E+00 -0.95348883194E+03  0.95348883194E+03  0.00000000000E+00 0. -1.
         25    1    1    2    0    0  0.74057465117E+02 -0.57298965187E+02 -0.26584212260E+01  0.15620418290E+03  0.12500000000E+03 0.  0.
          2    1    1    2  501    0 -0.53758707356E+02  0.45100614436E+02  0.45775653697E+03  0.46310378014E+03  0.00000000000E+00 0. -1.
          1    1    1    2  502    0 -0.20298757761E+02  0.12198350751E+02 -0.87122300351E+03  0.87154481307E+03  0.00000000000E+00 0. -1.
<mgrwt>
<rscale>  0 0.40985970E+02</rscale>
<asrwt>0</asrwt>
<pdfrwt beam="2">  1        2 0.14669059E+00 0.23682047E+02</pdfrwt>
<pdfrwt beam="1">  1        1 0.82671376E-01 0.70933471E+02</pdfrwt>
<totfact> 0.18400027E+02</totfact>
</mgrwt>
</event>
<event>
 5    1  0.8459321E-003  0.7587319E+02  0.7546771E-02  0.1474522E+00
          1   -1    0    0  501    0 -0.00000000000E+00  0.00000000000E+00  0.56605080761E+01  0.56605080761E+01  0.00000000000E+00 0. -1.
          2   -1    0    0  502    0  0.00000000000E+00 -0.00000000000E+00 -0.47034437741E+04  0.47034437741E+04  0.00000000000E+00 0. -1.
         25    1    1    2    0    0 -0.55550226398E+02 -0.18259455872E+02 -0.20336584891E+04  0.20383353712E+04  0.12500000000E+03 0.  0.
          2    1    1    2  501    0 -0.24832607561E+02  0.96869358879E+01 -0.63237104968E+02  0.68625261893E+02  0.00000000000E+00 0. -1.
          3    1    1    2  502    0  0.80382833959E+02  0.85725199843E+01 -0.26008876720E+04  0.26021436491E+04  0.00000000000E+00 0. -1.
<mgrwt>
<rscale>  0 0.44971196E+02</rscale>
<asrwt>0</asrwt>
<pdfrwt beam="2">  1        2 0.72360556E+00 0.75873185E+02</pdfrwt>
<pdfrwt beam="1">  1        1 0.87084881E-03 0.26655114E+02</pdfrwt>
<totfact> 0.26691935E+02</totfact>
</mgrwt>
</event>
<event>
 5    1  0.8459321E-003  0.2934986E+03  0.7546771E-02  0.1132920E+00
          2   -1    0    0  502    0  0.00000000000E+00  0.00000000000E+00  0.17067922873E+04  0.17067922873E+04  0.00000000000E+00 0. -1.
          1   -1    0    0  501    0 -0.00000000000E+00 -0.00000000000E+00 -0.49175093109E+03  0.49175093109E+03  0.00000000000E+00 0. -1.
         25    1    1    2    0    0 -0.13839738021E+02  0.15201701686E+03  0.13147946417E+02  0.19773360933E+03  0.12500000000E+03 0.  0.
          2    1    1    2  501    0  0.17298202313E+02  0.16595774563E+03 -0.36534060483E+03  0.40164033497E+03  0.00000000000E+00 0. -1.
          1    1    1    2  502    0 -0.34584642920E+01 -0.31797476249E+03  0.15672340146E+04  0.15991692741E+04  0.00000000000E+00 0. -1.
<mgrwt>
<rscale>  0 0.22129674E+03</rscale>
<asrwt>0</asrwt>
<pdfrwt beam="1">  1        2 0.26258343E+00 0.29349861E+03</pdfrwt>
<pdfrwt beam="2">  1        1 0.75653990E-01 0.16685683E+03</pdfrwt>
<totfact> 0.67543469E+01</totfact>
</mgrwt>
</event>
<event>
 5    1  0.8459321E-003  0.7882509E+02  0.7546771E-02  0.1501768E+00
         -2   -1    0    0    0  501 -0.00000000000E+00  0.00000000000E+00  0.66242778647E+02  0.66242778647E+02  0.00000000000E+00 0.  1.
          2   -1    0    0  502    0  0.00000000000E+00 -0.00000000000E+00 -0.26712528114E+04  0.26712528114E+04  0.00000000000E+00 0. -1.
         25    1    1    2    0    0  0.45357351973E+02  0.37599081179E+02 -0.10971320861E+04  0.11058005221E+04  0.12500000000E+03 0.  0.
          3    1    1    2  502    0  0.11097083229E+02  0.18076071876E+02 -0.15442962328E+04  0.15444418876E+04  0.00000000000E+00 0. -1.
         -1    1    1    2    0  501 -0.56454435202E+02 -0.55675153055E+02  0.36418286111E+02  0.87253180371E+02  0.00000000000E+00 0.  1.
<mgrwt>
<rscale>  0 0.40889211E+02</rscale>
<asrwt>0</asrwt>
<pdfrwt beam="2">  1        2 0.41096201E+00 0.21210602E+02</pdfrwt>
<pdfrwt beam="1">  1       -2 0.10191196E-01 0.78825088E+02</pdfrwt>
<totfact> 0.28396606E+02</totfact>
</mgrwt>
</event>
<event>
 5    1  0.8459321E-003  0.7898073E+02  0.7546771E-02  0.1410823E+00
          1   -1    0    0  501    0 -0.00000000000E+00  0.00000000000E+00  0.14918554308E+03  0.14918554308E+03  0.00000000000E+00 0. -1.
          2   -1    0    0  502    0  0.00000000000E+00 -0.00000000000E+00 -0.40733942480E+04  0.40733942480E+04  0.00000000000E+00 0. -1.
         25    1    1    2    0    0 -0.42237549513E+02 -0.10365561106E+01 -0.11378713159E+03  0.17423431451E+03  0.12500000000E+03 0.  0.
          2    1    1    2  501    0 -0.33027983502E+02 -0.24548564784E+02  0.11498857062E+03  0.12213046754E+03  0.00000000000E+00 0. -1.
          3    1    1    2  502    0  0.75265533015E+02  0.25585120895E+02 -0.39254101440E+04  0.39262150091E+04  0.00000000000E+00 0. -1.
<mgrwt>
<rscale>  0 0.57010594E+02</rscale>
<asrwt>0</asrwt>
<pdfrwt beam="2">  1        2 0.62667599E+00 0.78980728E+02</pdfrwt>
<pdfrwt beam="1">  1        1 0.22951624E-01 0.41151910E+02</pdfrwt>
<totfact> 0.14046081E+01</totfact>
</mgrwt>
</event>
<event>
 5    1  0.8459321E-003  0.1012570E+03  0.7546771E-02  0.1462900E+00
          1   -1    0    0  501    0 -0.00000000000E+00  0.00000000000E+00  0.12590812024E+04  0.12590812024E+04  0.00000000000E+00 0. -1.
          2   -1    0    0  502    0  0.00000000000E+00 -0.00000000000E+00 -0.58444663542E+03  0.58444663542E+03  0.00000000000E+00 0. -1.
         25    1    1    2    0    0 -0.61626574809E+02  0.96992788108E+02  0.98853585084E+02  0.19647510517E+03  0.12500000000E+03 0.  0.
          2    1    1    2  501    0  0.66275979544E+02 -0.75786404080E+02  0.11089154867E+04  0.11134763765E+04  0.00000000000E+00 0. -1.
          1    1    1    2  502    0 -0.46494047350E+01 -0.21206384028E+02 -0.53313450475E+03  0.53357635615E+03  0.00000000000E+00 0. -1.
<mgrwt>
<rscale>  0 0.46886015E+02</rscale>
<asrwt>0</asrwt>
<pdfrwt beam="2">  1        2 0.89914867E-01 0.21710083E+02</pdfrwt>
<pdfrwt beam="1">  1        1 0.19370480E+00 0.10125703E+03</pdfrwt>
<totfact> 0.84564496E+01</totfact>
</mgrwt>
</event>
<event>
 5    1  0.8459321E-003  0.1412853E+03  0.7546771E-02  0.1348075E+00
         -1   -1    0    0    0  501 -0.00000000000E+00  0.00000000000E+00  0.71745974130E+02  0.71745974130E+02  0.00000000000E+00 0.  1.
          1   -1    0    0  502    0  0.00000000000E+00 -0.00000000000E+00 -0.84986696216E+03  0.84986696216E+03  0.00000000000E+00 0. -1.
         25    1    1    2    0    0 -0.14074550419E+03 -0.46224950989E+02 -0.19622273445E+03  0.27581588888E+03  0.12500000000E+03 0.  0.
          2    1    1    2  502    0  0.24533700420E+02 -0.29543360376E+02 -0.45856687601E+03  0.46017202476E+03  0.00000000000E+00 0. -1.
         -2    1    1    2    0  501  0.11621180377E+03  0.75768311365E+02 -0.12333137757E+03  0.18562502266E+03  0.00000000000E+00 0.  1.
<mgrwt>
<rscale>  0 0.73658911E+02</rscale>
<asrwt>0</asrwt>
<pdfrwt beam="2">  1        1 0.13074876E+00 0.38401987E+02</pdfrwt>
<pdfrwt beam="1">  1       -1 0.11037843E-01 0.14128527E+03</pdfrwt>
<totfact> 0.11764897E+03</totfact>
</mgrwt>
</event>
<event>
 5    1  0.8459321E-003  0.1155586E+03  0.7546771E-02  0.1309526E+00
          2   -1    0    0  502    0  0.00000000000E+00  0.00000000000E+00  0.18633738696E+04  0.18633738696E+04  0.00000000000E+00 0. -1.
          1   -1    0    0  501    0 -0.00000000000E+00 -0.00000000000E+00 -0.89773432200E+03  0.89773432200E+03  0.00000000000E+00 0. -1.
         25    1    1    2    0    0  0.16836231991E+02 -0.50165102332E+02  0.58843861674E+02  0.14794457157E+03  0.12500000000E+03 0.  0.
          2    1    1    2  501    0  0.92134913361E+01 -0.65304356703E+02 -0.84991470119E+03  0.85246967496E+03  0.00000000000E+00 0. -1.
          1    1    1    2  502    0 -0.26049723327E+02  0.11546945903E+03  0.17567103871E+04  0.17606939451E+04  0.00000000000E+00 0. -1.
<mgrwt>
<rscale>  0 0.87299596E+02</rscale>
<asrwt>0</asrwt>
<pdfrwt beam="1">  1        2 0.28667290E+00 0.11555864E+03</pdfrwt>
<pdfrwt beam="2">  1        1 0.13811297E+00 0.65951099E+02</pdfrwt>
<totfact> 0.27209951E+01</totfact>
</mgrwt>
</event>
<event>
 5    1  0.8459321E-003  0.8395462E+02  0.7546771E-02  0.1415637E+00
         -1   -1    0    0    0  501 -0.00000000000E+00  0.00000000000E+00  0.16659962578E+02  0.16659962578E+02  0.00000000000E+00 0.  1.
          1   -1    0    0  502    0  0.00000000000E+00 -0.00000000000E+00 -0.22793768385E+04  0.22793768385E+04  0.00000000000E+00 0. -1.
         25    1    1    2    0    0  0.21398767147E+02 -0.10246283044E+03 -0.16984436432E+04  0.17062509628E+04  0.12500000000E+03 0.  0.
          2    1    1    2  502    0  0.14552310682E+00  0.72022159261E+02 -0.54111525091E+03  0.54588728449E+03  0.00000000000E+00 0. -1.
         -2    1    1    2    0  501 -0.21544290254E+02  0.30440671177E+02 -0.23157981798E+02  0.43898553794E+02  0.00000000000E+00 0.  1.
<mgrwt>
<rscale>  0 0.55954853E+02</rscale>
<asrwt>0</asrwt>
<pdfrwt beam="2">  1        1 0.35067337E+00 0.83954618E+02</pdfrwt>
<pdfrwt beam="1">  1       -1 0.25630711E-02 0.37293309E+02</pdfrwt>
<totfact> 0.96477266E+02</totfact>
</mgrwt>
</event>
<event>
 5    1  0.8459321E-003  0.1338072E+03  0.7546771E-02  0.1223939E+00
          1   -1    0    0  501    0 -0.00000000000E+00  0.00000000000E+00  0.38312018886E+03  0.38312018886E+03  0.00000000000E+00 0. -1.
          2   -1    0    0  502    0  0.00000000000E+00 -0.00000000000E+00 -0.49742010714E+03  0.49742010714E+03  0.00000000000E+00 0. -1.
         25    1    1    2    0    0 -0.29561616442E+02 -0.10989703889E+03 -0.15266785178E+03  0.22777998439E+03  0.12500000000E+03 0.  0.
          2    1    1    2  501    0 -0.10279908490E+03  0.90274990206E+02  0.31612153742E+03  0.34445616867E+03  0.00000000000E+00 0. -1.
          1    1    1    2  502    0  0.13236070135E+03  0.19622048687E+02 -0.27775360393E+03  0.30830414293E+03  0.00000000000E+00 0. -1.
<mgrwt>
<rscale>  0 0.13239916E+03</rscale>
<asrwt>0</asrwt>
<pdfrwt beam="2">  1        2 0.76526170E-01 0.13380725E+03</pdfrwt>
<pdfrwt beam="1">  1        1 0.58941568E-01 0.13100589E+03</pdfrwt>
<totfact> 0.55753020E+02</totfact>
</mgrwt>
</event>
<event>
 5    1  0.8459321E-003  0.7460193E+02  0.7546771E-02  0.1412142E+00
          1   -1    0    0  501    0 -0.00000000000E+00  0.00000000000E+00  0.93344397647E+02  0.93344397647E+02  0.00000000000E+00 0. -1.
          2   -1    0    0  502    0  0.00000000000E+00 -0.00000000000E+00 -0.13661760701E+04  0.13661760701E+04  0.00000000000E+00 0. -1.
         25    1    1    2    0    0 -0.73098320946E+02  0.29286132076E+02 -0.77564870687E+02  0.16686027455E+03  0.12500000000E+03 0.  0.
          2    1    1    2  501    0  0.44527144922E+02 -0.61585135077E+02  0.18428961888E+02  0.78198606980E+02  0.00000000000E+00 0. -1.
          1    1    1    2  502    0  0.28571176024E+02  0.32299003001E+02 -0.12136957637E+04  0.12144615863E+04  0.00000000000E+00 0. -1.
<mgrwt>
<rscale>  0 0.56718700E+02</rscale>
<asrwt>0</asrwt>
<pdfrwt beam="2">  1        2 0.21018091E+00 0.43122357E+02</pdfrwt>
<pdfrwt beam="1">  1        1 0.14360678E-01 0.74601927E+02</pdfrwt>
<totfact> 0.93543515E+02</totfact>
</mgrwt>
</event>
<event>
 5    1  0.8459321E-003  0.8835853E+02  0.7546771E-02  0.1413445E+00
          2   -1    0    0  502    0  0.00000000000E+00  0.00000000000E+00  0.16341938383E+04  0.16341938383E+04  0.00000000000E+00 0. -1.
         -2   -1    0    0    0  501 -0.00000000000E+00 -0.00000000000E+00 -0.36779090799E+02  0.36779090799E+02  0.00000000000E+00 0.  1.
         25    1    1    2    0    0  0.81083354366E+02 -0.15549517633E+02  0.93843537437E+03  0.95031692067E+03  0.12500000000E+03 0.  0.
          1    1    1    2  502    0  0.58652851455E+01  0.35561148391E+02  0.62365552106E+03  0.62469609074E+03  0.00000000000E+00 0. -1.
         -1    1    1    2    0  501 -0.86948639512E+02 -0.20011630757E+02  0.35323852097E+02  0.95959917702E+02  0.00000000000E+00 0.  1.
<mgrwt>
<rscale>  0 0.56432108E+02</rscale>
<asrwt>0</asrwt>
<pdfrwt beam="1">  1        2 0.25141438E+00 0.36041599E+02</pdfrwt>
<pdfrwt beam="2">  1       -2 0.56583229E-02 0.88358534E+02</pdfrwt>
<totfact> 0.20510492E+03</totfact>
</mgrwt>
</event>
<event>
 5    1  0.8459321E-003  0.3105984E+02  0.7546771E-02  0.1598756E+00
          1   -1    0    0  501    0 -0.00000000000E+00  0.00000000000E+00  0.41805138032E+03  0.41805138032E+03  0.00000000000E+00 0. -1.
          2   -1    0    0  502    0  0.00000000000E+00 -0.00000000000E+00 -0.20501625035E+04  0.20501625035E+04  0.00000000000E+00 0. -1.
         25    1    1    2    0    0 -0.36230382512E+01  0.14656588017E+01  0.60564352841E+02  0.13895436444E+03  0.12500000000E+03 0.  0.
          2    1    1    2  501    0 -0.48714519601E+01  0.28445948725E+02  0.31751733965E+03  0.31882622857E+03  0.00000000000E+00 0. -1.
          1    1    1    2  502    0  0.84944902113E+01 -0.29911607526E+02 -0.20101928157E+04  0.20104332908E+04  0.00000000000E+00 0. -1.
<mgrwt>
<rscale>  0 0.29939753E+02</rscale>
<asrwt>0</asrwt>
<pdfrwt beam="2">  1        2 0.31540961E+00 0.31059839E+02</pdfrwt>
<pdfrwt beam="1">  1        1 0.64315598E-01 0.28860060E+02</pdfrwt>
<totfact> 0.72358221E+01</totfact>
</mgrwt>
</event>
<event>
 5    1  0.8459321E-003  0.5376656E+02  0.7546771E-02  0.1483687E+00
          1   -1    0    0  501    0 -0.00000000000E+00  0.00000000000E+00  0.35995075822E+03  0.35995075822E+03  0.00000000000E+00 0. -1.
          2   -1    0    0  502    0  0.00000000000E+00 -0.00000000000E+00 -0.41345014880E+03  0.41345014880E+03  0.00000000000E+00 0. -1.
         25    1    1    2    0    0 -0.30854376281E+02  0.47924850369E+02  0.21904436699E+03  0.25856182728E+03  0.12500000000E+03 0.  0.
          2    1    1    2  501    0  0.34779653444E+02  0.57615041253E+01  0.11669086647E+03  0.12189986687E+03  0.00000000000E+00 0. -1.
          1    1    1    2  502    0 -0.39252771630E+01 -0.53686354494E+02 -0.38923462404E+03  0.39293921287E+03  0.00000000000E+00 0. -1.
<mgrwt>
<rscale>  0 0.43536962E+02</rscale>
<asrwt>0</asrwt>
<pdfrwt beam="2">  1        2 0.63607715E-01 0.53766561E+02</pdfrwt>
<pdfrwt beam="1">  1        1 0.55377040E-01 0.35253641E+02</pdfrwt>
<totfact> 0.74571950E+02</totfact>
</mgrwt>
</event>
<event>
 5    1  0.8459321E-003  0.9202842E+02  0.7546771E-02  0.1445452E+00
          1   -1    0    0  501    0 -0.00000000000E+00  0.00000000000E+00  0.57012790930E+03  0.57012790930E+03  0.00000000000E+00 0. -1.
          2   -1    0    0  502    0  0.00000000000E+00 -0.00000000000E+00 -0.25033732581E+04  0.25033732581E+04  0.00000000000E+00 0. -1.
         25    1    1    2    0    0  0.71319740781E+01 -0.73413213194E+02 -0.68539680190E+02  0.16050873087E+03  0.12500000000E+03 0.  0.
          2    1    1    2  501    0  0.23349998403E+02 -0.13839427855E+02  0.52289728064E+03  0.52360129707E+03  0.00000000000E+00 0. -1.
          1    1    1    2  502    0 -0.30481972481E+02  0.87252641049E+02 -0.23876029493E+04  0.23893911395E+04  0.00000000000E+00 0. -1.
<mgrwt>
<rscale>  0 0.49979436E+02</rscale>
<asrwt>0</asrwt>
<pdfrwt beam="2">  1        2 0.38513434E+00 0.92028424E+02</pdfrwt>
<pdfrwt beam="1">  1        1 0.87711989E-01 0.27143179E+02</pdfrwt>
<totfact> 0.25519549E+01</totfact>
</mgrwt>
</event>
<event>
 5    1  0.8459321E-003  0.1294797E+03  0.7546771E-02  0.1242334E+00
          1   -1    0    0  501    0 -0.00000000000E+00  0.00000000000E+00  0.10147865289E+03  0.10147865289E+03  0.00000000000E+00 0. -1.
          2   -1    0    0  502    0  0.00000000000E+00 -0.00000000000E+00 -0.21559507901E+04  0.21559507901E+04  0.00000000000E+00 0. -1.
         25    1    1    2    0    0 -0.14813416283E+03 -0.17164011675E+03 -0.33711653638E+03  0.42506072387E+03  0.12500000000E+03 0.  0.
          2    1    1    2  501    0  0.43673686571E+02  0.10321608559E+03 -0.16124676639E+01  0.11208724849E+03  0.00000000000E+00 0. -1.
          1    1    1    2  502    0  0.10446047626E+03  0.68424031158E+02 -0.17157431332E+04  0.17202814706E+04  0.00000000000E+00 0. -1.
<mgrwt>
<rscale>  0 0.12046376E+03</rscale>
<asrwt>0</asrwt>
<pdfrwt beam="2">  1        2 0.33168472E+00 0.12947967E+03</pdfrwt>
<pdfrwt beam="1">  1        1 0.15612101E-01 0.11207565E+03</pdfrwt>
<totfact> 0.30956068E+02</totfact>
</mgrwt>
</event>
<event>
 5    1  0.8459321E-003  0.7100281E+02  0.7546771E-02  0.1507939E+00
          1   -1    0    0  501    0 -0.00000000000E+00  0.00000000000E+00  0.46637491604E+03  0.46637491604E+03  0.00000000000E+00 0. -1.
          2   -1    0    0  502    0  0.00000000000E+00 -0.00000000000E+00 -0.97705536647E+03  0.97705536647E+03  0.00000000000E+00 0. -1.
         25    1    1    2    0    0  0.22432306713E+02 -0.48769373160E+02 -0.23077226114E+03  0.26788523038E+03  0.12500000000E+03 0.  0.
          2    1    1    2  501    0 -0.43754177983E+02  0.56189242879E+02  0.44481022901E+03  0.45047508137E+03  0.00000000000E+00 0. -1.
          1    1    1    2  502    0  0.21321871270E+02 -0.74198697184E+01 -0.72471841830E+03  0.72506997075E+03  0.00000000000E+00 0. -1.
<mgrwt>
<rscale>  0 0.40036993E+02</rscale>
<asrwt>0</asrwt>
<pdfrwt beam="2">  1        2 0.15031621E+00 0.22576020E+02</pdfrwt>
<pdfrwt beam="1">  1        1 0.71749987E-01 0.71002810E+02</pdfrwt>
<totfact> 0.21439045E+02</totfact>
</mgrwt>
</event>
<event>
 5    1  0.8459321E-003  0.2260833E+03  0.7546771E-02  0.1185359E+00
          2   -1    0    0  502    0  0.00000000000E+00  0.00000000000E+00  0.15183468306E+04  0.15183468306E+04  0.00000000000E+00 0. -1.
          1   -1    0    0  501    0 -0.00000000000E+00 -0.00000000000E+00 -0.11485493203E+04  0.11485493203E+04  0.00000000000E+00 0. -1.
         25    1    1    2    0    0  0.29867594844E+03 -0.15678651531E+03  0.81074923178E+02  0.36876479865E+03  0.12500000000E+03 0.  0.
          2    1    1    2  501    0 -0.19168857897E+03  0.10818941803E+03 -0.98992226608E+03  0.10140983948E+04  0.00000000000E+00 0. -1.
          1    1    1    2  502    0 -0.10698736947E+03  0.48597097280E+02  0.12786448532E+04  0.12840329574E+04  0.00000000000E+00 0. -1.
<mgrwt>
<rscale>  0 0.16299216E+03</rscale>
<asrwt>0</asrwt>
<pdfrwt beam="1">  1        2 0.23359182E+00 0.11750734E+03</pdfrwt>
<pdfrwt beam="2">  1        1 0.17669990E+00 0.22608328E+03</pdfrwt>
<totfact> 0.24789830E+01</totfact>
</mgrwt>
</event>
<event>
 5    1  0.8459321E-003  0.4179673E+02  0.7546771E-02  0.1555598E+00
         -1   -1    0    0    0  501 -0.00000000000E+00  0.00000000000E+00  0.36347231075E+02  0.36347231075E+02  0.00000000000E+00 0.  1.
          1   -1    0    0  502    0  0.00000000000E+00 -0.00000000000E+00 -0.33163573916E+03  0.33163573916E+03  0.00000000000E+00 0. -1.
         25    1    1    2    0    0  0.18224328864E+02  0.18790438145E+00 -0.16106677550E+03  0.20469408306E+03  0.12500000000E+03 0.  0.
          2    1    1    2  502    0 -0.46242913935E+02  0.35734071635E+00 -0.12579446603E+03  0.13402530532E+03  0.00000000000E+00 0. -1.
         -2    1    1    2    0  501  0.28018585071E+02 -0.54524509780E+00 -0.84272665581E+01  0.29263581860E+02  0.00000000000E+00 0.  1.
<mgrwt>
<rscale>  0 0.34224361E+02</rscale>
<asrwt>0</asrwt>
<pdfrwt beam="2">  1        1 0.51020884E-01 0.41796728E+02</pdfrwt>
<pdfrwt beam="1">  1       -1 0.55918816E-02 0.28023890E+02</pdfrwt>
<totfact> 0.92447117E+03</totfact>
</mgrwt>
</event>
<event>
 5    1  0.8459321E-003  0.6948696E+02  0.7546771E-02  0.1419968E+00
          1   -1    0    0  501    0 -0.00000000000E+00  0.00000000000E+00  0.32530156485E+04  0.32530156485E+04  0.00000000000E+00 0. -1.
          2   -1    0    0  502    0  0.00000000000E+00 -0.00000000000E+00 -0.13484093821E+03  0.13484093821E+03  0.00000000000E+00 0. -1.
         25    1    1    2    0    0  0.62108444194E+02 -0.71359845102E+02  0.14108884134E+04  0.14195706398E+04  0.12500000000E+03 0.  0.
          2    1    1    2  501    0 -0.19129988647E+02  0.64161660607E+02  0.18335201390E+04  0.18347421550E+04  0.00000000000E+00 0. -1.
          1    1    1    2  502    0 -0.42978455547E+02  0.71981844954E+01 -0.12623384204E+03  0.13354379199E+03  0.00000000000E+00 0. -1.
<mgrwt>
<rscale>  0 0.55027616E+02</rscale>
<asrwt>0</asrwt>
<pdfrwt beam="2">  1        2 0.20744762E-01 0.43577075E+02</pdfrwt>
<pdfrwt beam="1">  1        1 0.50046389E+00 0.69486960E+02</pdfrwt>
<totfact> 0.20678091E+01</totfact>
</mgrwt>
</event>
<event>
 5    1  0.8459321E-003  0.1515902E+03  0.7546771E-02  0.1348682E+00
         -1   -1    0    0    0  501 -0.00000000000E+00  0.00000000000E+00  0.23850028549E+03  0.23850028549E+03  0.00000000000E+00 0.  1.
          1   -1    0    0  502    0  0.00000000000E+00 -0.00000000000E+00 -0.16572072980E+04  0.16572072980E+04  0.00000000000E+00 0. -1.
         25    1    1    2    0    0  0.71352087673E+02 -0.10239721615E+03 -0.38106759074E+03  0.42001645087E+03  0.12500000000E+03 0.  0.
          2    1    1    2  502    0 -0.79900389665E+02  0.13696191094E+03 -0.12501765795E+04  0.12601920954E+04  0.00000000000E+00 0. -1.
         -2    1    1    2    0  501  0.85483019920E+01 -0.34564694784E+02  0.21253715779E+03  0.21549903720E+03  0.00000000000E+00 0.  1.
<mgrwt>
<rscale>  0 0.73467888E+02</rscale>
<asrwt>0</asrwt>
<pdfrwt beam="2">  1        1 0.25495498E+00 0.15159022E+03</pdfrwt>
<pdfrwt beam="1">  1       -1 0.36692350E-01 0.35606061E+02</pdfrwt>
<totfact> 0.42670444E+01</totfact>
</mgrwt>
</event>
<event>
 5    1  0.8459321E-003  0.7672161E+02  0.7546771E-02  0.1491304E+00
          1   -1    0    0  502    0  0.00000000000E+00  0.00000000000E+00  0.23620484370E+03  0.23620484370E+03  0.00000000000E+00 0. -1.
         -1   -1    0    0    0  501 -0.00000000000E+00 -0.00000000000E+00 -0.20399158370E+03  0.20399158370E+03  0.00000000000E+00 0.  1.
         25    1    1    2    0    0 -0.43435345374E+02 -0.82354992491E+02 -0.20556229774E+02  0.15721492486E+03  0.12500000000E+03 0.  0.
          2    1    1    2  502    0  0.46583095348E+02  0.59142645902E+02  0.15808289081E+03  0.17509436799E+03  0.00000000000E+00 0. -1.
         -2    1    1    2    0  501 -0.31477499748E+01  0.23212346589E+02 -0.10531340103E+03  0.10788713455E+03  0.00000000000E+00 0.  1.
<mgrwt>
<rscale>  0 0.42393262E+02</rscale>
<asrwt>0</asrwt>
<pdfrwt beam="1">  1        1 0.36339207E-01 0.76721614E+02</pdfrwt>
<pdfrwt beam="2">  1       -1 0.31383321E-01 0.23424802E+02</pdfrwt>
<totfact> 0.10603046E+03</totfact>
</mgrwt>
</event>
<event>
 5    1  0.8459321E-003  0.7216653E+02  0.7546771E-02  0.1368889E+00
          1   -1    0    0  501    0 -0.00000000000E+00  0.00000000000E+00  0.10438963856E+04  0.10438963856E+04  0.00000000000E+00 0. -1.
          2   -1    0    0  502    0  0.00000000000E+00 -0.00000000000E+00 -0.29901577984E+03  0.29901577984E+03  0.00000000000E+00 0. -1.
         25    1    1    2    0    0 -0.96172226288E+02  0.14738367509E+01  0.24421099193E+03  0.29071511465E+03  0.12500000000E+03 0.  0.
          2    1    1    2  501    0  0.55065495670E+02  0.46389306515E+02  0.77112543592E+03  0.77447957655E+03  0.00000000000E+00 0. -1.
          1    1    1    2  502    0  0.41106730618E+02 -0.47863143266E+02 -0.27045582211E+03  0.27771747424E+03  0.00000000000E+00 0. -1.
<mgrwt>
<rscale>  0 0.67477072E+02</rscale>
<asrwt>0</asrwt>
<pdfrwt beam="2">  1        2 0.46002428E-01 0.63092343E+02</pdfrwt>
<pdfrwt beam="1">  1        1 0.16059944E+00 0.72166527E+02</pdfrwt>
<totfact> 0.24063787E+02</totfact>
</mgrwt>
</event>
<event>
 5    1  0.8459321E-003  0.6618886E+02  0.7546771E-02  0.1416553E+00
          1   -1    0    0  501    0 -0.00000000000E+00  0.00000000000E+00  0.48105778271E+02  0.48105778271E+02  0.00000000000E+00 0. -1.
          2   -1    0    0  502    0  0.00000000000E+00 -0.00000000000E+00 -0.17822477354E+04  0.17822477354E+04  0.00000000000E+00 0. -1.
         25    1    1    2    0    0 -0.62103534577E+02 -0.22901902056E+01 -0.11617486180E+04  0.11701055275E+04  0.12500000000E+03 0.  0.
          2    1    1    2  501    0  0.47352496140E+02  0.46882743481E+02  0.17173920684E+02  0.68812746484E+02  0.00000000000E+00 0. -1.
          1    1    1    2  502    0  0.14751038438E+02 -0.44592553276E+02 -0.58956725975E+03  0.59143523966E+03  0.00000000000E+00 0. -1.
<mgrwt>
<rscale>  0 0.55756846E+02</rscale>
<asrwt>0</asrwt>
<pdfrwt beam="2">  1        2 0.27419199E+00 0.46969021E+02</pdfrwt>
<pdfrwt beam="1">  1        1 0.74008880E-02 0.66188857E+02</pdfrwt>
<totfact> 0.13595972E+03</totfact>
</mgrwt>
</event>
<event>
 5    1  0.8459321E-003  0.7630957E+02  0.7546771E-02  0.1398509E+00
         -2   -1    0    0    0  501 -0.00000000000E+00  0.00000000000E+00  0.74438489531E+02  0.74438489531E+02  0.00000000000E+00 0.  1.
          2   -1    0    0  502    0  0.00000000000E+00 -0.00000000000E+00 -0.18648408866E+04  0.18648408866E+04  0.00000000000E+00 0. -1.
         25    1    1    2    0    0  0.56995099331E+02 -0.99356067820E+02 -0.94992802737E+02  0.19434171485E+03  0.12500000000E+03 0.  0.
          1    1    1    2  502    0 -0.17756078337E+02  0.73624599691E+02 -0.16963156346E+04  0.16980054748E+04  0.00000000000E+00 0. -1.
         -1    1    1    2    0  501 -0.39239020994E+02  0.25731468129E+02  0.90604032462E+00  0.46932186500E+02  0.00000000000E+00 0.  1.
<mgrwt>
<rscale>  0 0.59839012E+02</rscale>
<asrwt>0</asrwt>
<pdfrwt beam="2">  1        2 0.28689857E+00 0.76309566E+02</pdfrwt>
<pdfrwt beam="1">  1       -2 0.11452077E-01 0.46923440E+02</pdfrwt>
<totfact> 0.47698019E+02</totfact>
</mgrwt>
</event>
<event>
 5    1  0.8459321E-003  0.6540297E+02  0.7546771E-02  0.1406506E+00
          1   -1    0    0  502    0  0.00000000000E+00  0.00000000000E+00  0.79190950440E+03  0.79190950440E+03  0.00000000000E+00 0. -1.
         -1   -1    0    0    0  501 -0.00000000000E+00 -0.00000000000E+00 -0.56321523540E+02  0.56321523540E+02  0.00000000000E+00 0.  1.
         25    1    1    2    0    0  0.42568933726E+02 -0.35207186510E+02  0.14157241368E+03  0.19677247881E+03  0.12500000000E+03 0.  0.
          2    1    1    2  502    0 -0.66527376366E+02 -0.10268647928E+02  0.59622223911E+03  0.60001024603E+03  0.00000000000E+00 0. -1.
         -2    1    1    2    0  501  0.23958442640E+02  0.45475834438E+02 -0.22066719237E+01  0.51448303107E+02  0.00000000000E+00 0.  1.
<mgrwt>
<rscale>  0 0.57980820E+02</rscale>
<asrwt>0</asrwt>
<pdfrwt beam="1">  1        1 0.12183222E+00 0.65402972E+02</pdfrwt>
<pdfrwt beam="2">  1       -1 0.86648503E-02 0.51400958E+02</pdfrwt>
<totfact> 0.17006428E+03</totfact>
</mgrwt>
</event>
<event>
 5    1  0.8459321E-003  0.1598239E+03  0.7546771E-02  0.1254612E+00
         -2   -1    0    0    0  501 -0.00000000000E+00  0.00000000000E+00  0.25954210613E+03  0.25954210613E+03  0.00000000000E+00 0.  1.
          2   -1    0    0  502    0  0.00000000000E+00 -0.00000000000E+00 -0.18693586469E+04  0.18693586469E+04  0.00000000000E+00 0. -1.
         25    1    1    2    0    0 -0.18543771756E+03  0.10389444932E+02 -0.69252365620E+03  0.72781117198E+03  0.12500000000E+03 0.  0.
          1    1    1    2  502    0  0.37825372517E+02 -0.70824207906E+02 -0.11313189616E+04  0.11341646354E+04  0.00000000000E+00 0. -1.
         -1    1    1    2    0  501  0.14761234504E+03  0.60434762975E+02  0.21402607703E+03  0.26692494569E+03  0.00000000000E+00 0.  1.
<mgrwt>
<rscale>  0 0.11328106E+03</rscale>
<asrwt>0</asrwt>
<pdfrwt beam="2">  1        2 0.28759364E+00 0.80292137E+02</pdfrwt>
<pdfrwt beam="1">  1       -2 0.39929554E-01 0.15982386E+03</pdfrwt>
<totfact> 0.59232996E+01</totfact>
</mgrwt>
</event>
<event>
 5    1  0.8459321E-003  0.7263065E+02  0.7546771E-02  0.1454982E+00
         -1   -1    0    0    0  502 -0.00000000000E+00  0.00000000000E+00  0.49445501012E+03  0.49445501012E+03  0.00000000000E+00 0.  1.
         -2   -1    0    0    0  501  0.00000000000E+00 -0.00000000000E+00 -0.53641392964E+03  0.53641392964E+03  0.00000000000E+00 0.  1.
         25    1    1    2    0    0  0.97580001963E+02 -0.33497560457E+02  0.24672050257E+02  0.16394405571E+03  0.12500000000E+03 0.  0.
         -2    1    1    2    0  502 -0.68127934702E+02  0.20828362906E+02  0.39641738305E+03  0.40276789565E+03  0.00000000000E+00 0.  1.
         -1    1    1    2    0  501 -0.29452067261E+02  0.12669197551E+02 -0.46304835282E+03  0.46415698840E+03  0.00000000000E+00 0.  1.
<mgrwt>
<rscale>  0 0.48255982E+02</rscale>
<asrwt>0</asrwt>
<pdfrwt beam="2">  1       -2 0.82525220E-01 0.32061392E+02</pdfrwt>
<pdfrwt beam="1">  1       -1 0.76070002E-01 0.72630652E+02</pdfrwt>
<totfact> 0.19461358E+01</totfact>
</mgrwt>
</event>
<event>
 5    1  0.8459321E-003  0.2699711E+02  0.7546771E-02  0.1672498E+00
          2   -1    0    0  502    0  0.00000000000E+00  0.00000000000E+00  0.96621146940E+03  0.96621146940E+03  0.00000000000E+00 0. -1.
          1   -1    0    0  501    0 -0.00000000000E+00 -0.00000000000E+00 -0.46657674366E+03  0.46657674366E+03  0.00000000000E+00 0. -1.
         25    1    1    2    0    0  0.52974603397E+01 -0.11318424148E+02  0.17126923989E+03  0.21240132378E+03  0.12500000000E+03 0.  0.
          2    1    1    2  501    0 -0.26362718335E+02  0.60067715825E+01 -0.44544832837E+03  0.44626817887E+03  0.00000000000E+00 0. -1.
          1    1    1    2  502    0  0.21065257995E+02  0.53116525659E+01  0.77381381422E+03  0.77411871042E+03  0.00000000000E+00 0. -1.
<mgrwt>
<rscale>  0 0.24217799E+02</rscale>
<asrwt>0</asrwt>
<pdfrwt beam="1">  1        2 0.14864792E+00 0.21724612E+02</pdfrwt>
<pdfrwt beam="2">  1        1 0.71781038E-01 0.26997114E+02</pdfrwt>
<totfact> 0.22140198E+02</totfact>
</mgrwt>
</event>
<event>
 5    1  0.8459321E-003  0.3409688E+02  0.7546771E-02  0.1579613E+00
          1   -1    0    0  502    0  0.00000000000E+00  0.00000000000E+00  0.25261212086E+04  0.25261212086E+04  0.00000000000E+00 0. -1.
         -1   -1    0    0    0  501 -0.00000000000E+00 -0.00000000000E+00 -0.80689878490E+02  0.80689878490E+02  0.00000000000E+00 0.  1.
         25    1    1    2    0    0  0.22929915038E+02 -0.12690109432E+02  0.44100959764E+03  0.45913101081E+03  0.12500000000E+03 0.  0.
          2    1    1    2  502    0 -0.30528910729E+02 -0.15862476637E+02  0.20728551510E+04  0.20731406391E+04  0.00000000000E+00 0. -1.
         -2    1    1    2    0  501  0.75989956911E+01  0.28552586069E+02 -0.68433418574E+02  0.74539437109E+02  0.00000000000E+00 0.  1.
<mgrwt>
<rscale>  0 0.31740242E+02</rscale>
<asrwt>0</asrwt>
<pdfrwt beam="1">  1        1 0.38863397E+00 0.34096878E+02</pdfrwt>
<pdfrwt beam="2">  1       -1 0.12413829E-01 0.29546487E+02</pdfrwt>
<totfact> 0.79614672E+01</totfact>
</mgrwt>
</event>
<event>
 5    1  0.8459321E-003  0.1540045E+03  0.7546771E-02  0.1315178E+00
          1   -1    0    0  501    0 -0.00000000000E+00  0.00000000000E+00  0.91771632240E+03  0.91771632240E+03  0.00000000000E+00 0. -1.
          2   -1    0    0  502    0  0.00000000000E+00 -0.00000000000E+00 -0.32858031713E+03  0.32858031713E+03  0.00000000000E+00 0. -1.
         25    1    1    2    0    0  0.11310561582E+03  0.22341696836E+02 -0.43976369089E+02  0.17564439298E+03  0.12500000000E+03 0.  0.
          2    1    1    2  501    0 -0.15658840559E+03 -0.44447254315E+01  0.84204557743E+03  0.85649310494E+03  0.00000000000E+00 0. -1.
          1    1    1    2  502    0  0.43482789775E+02 -0.17896971404E+02 -0.20893320307E+03  0.21415914161E+03  0.00000000000E+00 0. -1.
<mgrwt>
<rscale>  0 0.85097457E+02</rscale>
<asrwt>0</asrwt>
<pdfrwt beam="2">  1        2 0.50550818E-01 0.47021852E+02</pdfrwt>
<pdfrwt beam="1">  1        1 0.14118713E+00 0.15400451E+03</pdfrwt>
<totfact> 0.25704530E+02</totfact>
</mgrwt>
</event>
<event>
 5    1  0.8459321E-003  0.9832686E+02  0.7546771E-02  0.1317292E+00
          1   -1    0    0  501    0 -0.00000000000E+00  0.00000000000E+00  0.58516233495E+03  0.58516233495E+03  0.00000000000E+00 0. -1.
          2   -1    0    0  502    0  0.00000000000E+00 -0.00000000000E+00 -0.11698698742E+04  0.11698698742E+04  0.00000000000E+00 0. -1.
         25    1    1    2    0    0 -0.11913333317E+03  0.96032386273E+02 -0.75011890137E+03  0.77570505766E+03  0.12500000000E+03 0.  0.
          2    1    1    2  501    0  0.53269902728E+02 -0.48827692895E+02  0.56601552879E+03  0.57060967829E+03  0.00000000000E+00 0. -1.
          1    1    1    2  502    0  0.65863430447E+02 -0.47204693379E+02 -0.40060416663E+03  0.40871747317E+03  0.00000000000E+00 0. -1.
<mgrwt>
<rscale>  0 0.84293033E+02</rscale>
<asrwt>0</asrwt>
<pdfrwt beam="2">  1        2 0.17997998E+00 0.98326857E+02</pdfrwt>
<pdfrwt beam="1">  1        1 0.90024975E-01 0.72262204E+02</pdfrwt>
<totfact> 0.11519216E+02</totfact>
</mgrwt>
</event>
<event>
 5    1  0.8459321E-003  0.6773709E+02  0.7546771E-02  0.1498638E+00
          2   -1    0    0  502    0  0.00000000000E+00  0.00000000000E+00  0.11125491688E+04  0.11125491688E+04  0.00000000000E+00 0. -1.
          1   -1    0    0  501    0 -0.00000000000E+00 -0.00000000000E+00 -0.19061210861E+03  0.19061210861E+03  0.00000000000E+00 0. -1.
         25    1    1    2    0    0  0.49957810746E+02 -0.10711887942E+02  0.10936753118E+03  0.17377221951E+03  0.12500000000E+03 0.  0.
          2    1    1    2  501    0 -0.59767822046E+02  0.33944723844E+02 -0.15078093027E+03  0.16570855670E+03  0.00000000000E+00 0. -1.
          3    1    1    2  502    0  0.98100112998E+01 -0.23232835902E+02  0.96335045932E+03  0.96368050123E+03  0.00000000000E+00 0. -1.
<mgrwt>
<rscale>  0 0.41331170E+02</rscale>
<asrwt>0</asrwt>
<pdfrwt beam="1">  1        2 0.17116141E+00 0.25219060E+02</pdfrwt>
<pdfrwt beam="2">  1        1 0.29324940E-01 0.67737085E+02</pdfrwt>
<totfact> 0.53644246E+02</totfact>
</mgrwt>
</event>
<event>
 5    1  0.8459321E-003  0.1576079E+03  0.7546771E-02  0.1222422E+00
          1   -1    0    0  501    0 -0.00000000000E+00  0.00000000000E+00  0.53728720177E+03  0.53728720177E+03  0.00000000000E+00 0. -1.
          2   -1    0    0  502    0  0.00000000000E+00 -0.00000000000E+00 -0.27495493882E+04  0.27495493882E+04  0.00000000000E+00 0. -1.
         25    1    1    2    0    0 -0.80938340915E+02  0.49589962533E+02 -0.34320231371E+03  0.37738972899E+03  0.12500000000E+03 0.  0.
          2    1    1    2  501    0  0.19322110643E+02  0.11133426669E+03  0.51090503051E+03  0.52325195948E+03  0.00000000000E+00 0. -1.
          1    1    1    2  502    0  0.61616230272E+02 -0.16092422922E+03 -0.23799649032E+04  0.23861949015E+04  0.00000000000E+00 0. -1.
<mgrwt>
<rscale>  0 0.13345209E+03</rscale>
<asrwt>0</asrwt>
<pdfrwt beam="2">  1        2 0.42300761E+00 0.15760793E+03</pdfrwt>
<pdfrwt beam="1">  1        1 0.82659568E-01 0.11299851E+03</pdfrwt>
<totfact> 0.18082434E+01</totfact>
</mgrwt>
</event>
<event>
 5    1  0.8459321E-003  0.5275365E+02  0.7546771E-02  0.1435218E+00
         -2   -1    0    0    0  501 -0.00000000000E+00  0.00000000000E+00  0.30316352790E+03  0.30316352790E+03  0.00000000000E+00 0.  1.
          2   -1    0    0  502    0  0.00000000000E+00 -0.00000000000E+00 -0.14466697586E+04  0.14466697586E+04  0.00000000000E+00 0. -1.
         25    1    1    2    0    0  0.14033488227E+02  0.63266372114E+02  0.45363714565E+02  0.14792714163E+03  0.12500000000E+03 0.  0.
          1    1    1    2  502    0  0.33389701099E+02 -0.38699113701E+02 -0.13914578610E+04  0.13923963058E+04  0.00000000000E+00 0. -1.
         -1    1    1    2    0  501 -0.47423189326E+02 -0.24567258413E+02  0.20258791571E+03  0.20950983906E+03  0.00000000000E+00 0.  1.
<mgrwt>
<rscale>  0 0.51926623E+02</rscale>
<asrwt>0</asrwt>
<pdfrwt beam="2">  1        2 0.22256457E+00 0.51112558E+02</pdfrwt>
<pdfrwt beam="1">  1       -2 0.46640544E-01 0.52753653E+02</pdfrwt>
<totfact> 0.73873744E+01</totfact>
</mgrwt>
</event>
<event>
 5    1  0.8459321E-003  0.3419258E+03  0.7546771E-02  0.1251848E+00
          1   -1    0    0  501    0 -0.00000000000E+00  0.00000000000E+00  0.56973635876E+03  0.56973635876E+03  0.00000000000E+00 0. -1.
          2   -1    0    0  502    0  0.00000000000E+00 -0.00000000000E+00 -0.12493194241E+04  0.12493194241E+04  0.00000000000E+00 0. -1.
         25    1    1    2    0    0 -0.41673171854E+02 -0.34714590909E+03 -0.14226359391E+03  0.39763157018E+03  0.12500000000E+03 0.  0.
          2    1    1    2  501    0  0.76991536768E+02  0.33163259630E+03  0.37603383479E+03  0.50725666144E+03  0.00000000000E+00 0. -1.
          1    1    1    2  502    0 -0.35318364914E+02  0.15513312789E+02 -0.91335330620E+03  0.91416755123E+03  0.00000000000E+00 0. -1.
<mgrwt>
<rscale>  0 0.11484718E+03</rscale>
<asrwt>0</asrwt>
<pdfrwt beam="2">  1        2 0.19220298E+00 0.38575248E+02</pdfrwt>
<pdfrwt beam="1">  1        1 0.87651750E-01 0.34192584E+03</pdfrwt>
<totfact> 0.11000381E+02</totfact>
</mgrwt>
</event>
<event>
 5    1  0.8459321E-003  0.1343277E+03  0.7546771E-02  0.1247541E+00
          2   -1    0    0  502    0  0.00000000000E+00  0.00000000000E+00  0.19074536576E+04  0.19074536576E+04  0.00000000000E+00 0. -1.
          1   -1    0    0  501    0 -0.00000000000E+00 -0.00000000000E+00 -0.35681885625E+02  0.35681885625E+02  0.00000000000E+00 0. -1.
         25    1    1    2    0    0  0.49582102309E+02 -0.58830024185E+02  0.58937609445E+03  0.60737841361E+03  0.12500000000E+03 0.  0.
          2    1    1    2  501    0  0.41015534243E+02 -0.93947685464E+02  0.11148384463E+03  0.15144995631E+03  0.00000000000E+00 0. -1.
          1    1    1    2  502    0 -0.90597636552E+02  0.15277770965E+03  0.11709118329E+04  0.11843071733E+04  0.00000000000E+00 0. -1.
<mgrwt>
<rscale>  0 0.11734574E+03</rscale>
<asrwt>0</asrwt>
<pdfrwt beam="1">  1        2 0.29345433E+00 0.13432768E+03</pdfrwt>
<pdfrwt beam="2">  1        1 0.54895223E-02 0.10251069E+03</pdfrwt>
<totfact> 0.16337828E+03</totfact>
</mgrwt>
</event>
<event>
 5    1  0.8459321E-003  0.4776267E+02  0.7546771E-02  0.1555201E+00
          2   -1    0    0  502    0  0.00000000000E+00  0.00000000000E+00  0.16603220369E+03  0.16603220369E+03  0.00000000000E+00 0. -1.
          1   -1    0    0  501    0 -0.00000000000E+00 -0.00000000000E+00 -0.61454613122E+03  0.61454613122E+03  0.00000000000E+00 0. -1.
         25    1    1    2    0    0 -0.15604727002E+02 -0.30696383265E+02 -0.30353268837E+03  0.33006494567E+03  0.12500000000E+03 0.  0.
          2    1    1    2  501    0  0.91546088771E+00  0.50411442912E+02 -0.29460235612E+03  0.29888576392E+03  0.00000000000E+00 0. -1.
          1    1    1    2  502    0  0.14689266114E+02 -0.19715059646E+02  0.14962111696E+03  0.15162762531E+03  0.00000000000E+00 0. -1.
<mgrwt>
<rscale>  0 0.34267771E+02</rscale>
<asrwt>0</asrwt>
<pdfrwt beam="1">  1        2 0.25543416E-01 0.24585730E+02</pdfrwt>
<pdfrwt beam="2">  1        1 0.94545558E-01 0.47762670E+02</pdfrwt>
<totfact> 0.95437465E+02</totfact>
</mgrwt>
</event>
<event>
 5    1  0.8459321E-003  0.4836973E+02  0.7546771E-02  0.1488639E+00
          1   -1    0    0  501    0 -0.00000000000E+00  0.00000000000E+00  0.13580930550E+03  0.13580930550E+03  0.00000000000E+00 0. -1.
          2   -1    0    0  502    0  0.00000000000E+00 -0.00000000000E+00 -0.51080385343E+03  0.51080385343E+03  0.00000000000E+00 0. -1.
         25    1    1    2    0    0  0.24014733968E+01  0.70418657742E+02 -0.21227167554E+02  0.14505222189E+03  0.12500000000E+03 0.  0.
          2    1    1    2  501    0 -0.24912373136E+02 -0.39988757143E+02  0.65446890205E+02  0.80641319872E+02  0.00000000000E+00 0. -1.
          1    1    1    2  502    0  0.22510899739E+02 -0.30429900599E+02 -0.41921427058E+03  0.42091961717E+03  0.00000000000E+00 0. -1.
<mgrwt>
<rscale>  0 0.42788507E+02</rscale>
<asrwt>0</asrwt>
<pdfrwt beam="2">  1        2 0.78585209E-01 0.37851281E+02</pdfrwt>
<pdfrwt beam="1">  1        1 0.20893739E-01 0.48369733E+02</pdfrwt>
<totfact> 0.19342768E+03</totfact>
</mgrwt>
</event>
<event>
 5    1  0.8459321E-003  0.5395306E+02  0.7546771E-02  0.1529655E+00
         -2   -1    0    0    0  501 -0.00000000000E+00  0.00000000000E+00  0.45307637822E+02  0.45307637822E+02  0.00000000000E+00 0.  1.
          2   -1    0    0  502    0  0.00000000000E+00 -0.00000000000E+00 -0.29184414722E+04  0.29184414722E+04  0.00000000000E+00 0. -1.
         25    1    1    2    0    0 -0.99352312843E+01 -0.29438822731E+02 -0.18013812134E+03  0.22144998502E+03  0.12500000000E+03 0.  0.
          1    1    1    2  502    0  0.30418135674E+02  0.44942356169E+02 -0.27106089425E+04  0.27111521384E+04  0.00000000000E+00 0. -1.
         -1    1    1    2    0  501 -0.20482904389E+02 -0.15503533438E+02  0.17613229478E+02  0.31146986595E+02  0.00000000000E+00 0.  1.
<mgrwt>
<rscale>  0 0.37228799E+02</rscale>
<asrwt>0</asrwt>
<pdfrwt beam="2">  1        2 0.44899125E+00 0.53953056E+02</pdfrwt>
<pdfrwt beam="1">  1       -2 0.69704018E-02 0.25688692E+02</pdfrwt>
<totfact> 0.28504754E+02</totfact>
</mgrwt>
</event>
<event>
 5    1  0.8459321E-003  0.1431294E+03  0.7546771E-02  0.1278279E+00
          1   -1    0    0  501    0 -0.00000000000E+00  0.00000000000E+00  0.21421877020E+03  0.21421877020E+03  0.00000000000E+00 0. -1.
          2   -1    0    0  502    0  0.00000000000E+00 -0.00000000000E+00 -0.10817911932E+04  0.10817911932E+04  0.00000000000E+00 0. -1.
         25    1    1    2    0    0  0.77361860075E+02  0.22175141949E+02 -0.20002285648E+03  0.24922025886E+03  0.12500000000E+03 0.  0.
          2    1    1    2  501    0 -0.14666051842E+03 -0.38615072246E+02  0.15751418441E+03  0.21865760851E+03  0.00000000000E+00 0. -1.
          1    1    1    2  502    0  0.69298658341E+02  0.16439930297E+02 -0.82506375096E+03  0.82813209605E+03  0.00000000000E+00 0. -1.
<mgrwt>
<rscale>  0 0.10096515E+03</rscale>
<asrwt>0</asrwt>
<pdfrwt beam="2">  1        2 0.16642941E+00 0.71222015E+02</pdfrwt>
<pdfrwt beam="1">  1        1 0.32956734E-01 0.14312938E+03</pdfrwt>
<totfact> 0.45886887E+02</totfact>
</mgrwt>
</event>
<event>
 5    1  0.8459321E-003  0.1255873E+03  0.7546771E-02  0.1343620E+00
         -2   -1    0    0    0  501 -0.00000000000E+00  0.00000000000E+00  0.73101828005E+02  0.73101828005E+02  0.00000000000E+00 0.  1.
          2   -1    0    0  502    0  0.00000000000E+00 -0.00000000000E+00 -0.24054264540E+04  0.24054264540E+04  0.00000000000E+00 0. -1.
         25    1    1    2    0    0  0.73830402525E+02 -0.60052241382E+02 -0.69023359072E+03  0.70788742734E+03  0.12500000000E+03 0.  0.
          1    1    1    2  502    0 -0.88111535300E+02  0.10260624864E+03 -0.16954938151E+04  0.17008794672E+04  0.00000000000E+00 0. -1.
         -1    1    1    2    0  501  0.14281132774E+02 -0.42554007263E+02  0.53402779823E+02  0.69761387459E+02  0.00000000000E+00 0.  1.
<mgrwt>
<rscale>  0 0.75081092E+02</rscale>
<asrwt>0</asrwt>
<pdfrwt beam="2">  1        2 0.37006559E+00 0.12558732E+03</pdfrwt>
<pdfrwt beam="1">  1       -2 0.11246436E-01 0.44886460E+02</pdfrwt>
<totfact> 0.24480421E+02</totfact>
</mgrwt>
</event>
<event>
 5    1  0.8459321E-003  0.8026015E+02  0.7546771E-02  0.1433546E+00
         -1   -1    0    0    0  501 -0.00000000000E+00  0.00000000000E+00  0.57548594166E+03  0.57548594166E+03  0.00000000000E+00 0.  1.
          1   -1    0    0  502    0  0.00000000000E+00 -0.00000000000E+00 -0.24123879023E+03  0.24123879023E+03  0.00000000000E+00 0. -1.
         25    1    1    2    0    0  0.63038342539E+02 -0.58683560275E+01  0.28235086763E+02  0.14293526632E+03  0.12500000000E+03 0.  0.
          2    1    1    2  502    0  0.87198728719E+01 -0.32884829629E+02 -0.17888021513E+03  0.18208673639E+03  0.00000000000E+00 0. -1.
         -2    1    1    2    0  501 -0.71758215411E+02  0.38753185657E+02  0.48489227980E+03  0.49170272919E+03  0.00000000000E+00 0.  1.
<mgrwt>
<rscale>  0 0.52254701E+02</rscale>
<asrwt>0</asrwt>
<pdfrwt beam="2">  1        1 0.37113660E-01 0.34021290E+02</pdfrwt>
<pdfrwt beam="1">  1       -1 0.88536299E-01 0.80260146E+02</pdfrwt>
<totfact> 0.15679589E+02</totfact>
</mgrwt>
</event>
<event>
 5    1  0.8459321E-003  0.4571846E+02  0.7546771E-02  0.1482520E+00
         -2   -1    0    0    0  501 -0.00000000000E+00  0.00000000000E+00  0.26275754271E+02  0.26275754271E+02  0.00000000000E+00 0.  1.
          2   -1    0    0  502    0  0.00000000000E+00 -0.00000000000E+00 -0.64987945782E+03  0.64987945782E+03  0.00000000000E+00 0. -1.
         25    1    1    2    0    0  0.40124573832E+02  0.45908175446E+02 -0.37846804728E+03  0.40321285298E+03  0.12500000000E+03 0.  0.
          3    1    1    2  502    0  0.16731496683E+01 -0.45363960411E+02 -0.21897281073E+03  0.22362866581E+03  0.00000000000E+00 0. -1.
         -3    1    1    2    0  501 -0.41797723501E+02 -0.54421503423E+00 -0.26162845537E+02  0.49313693295E+02  0.00000000000E+00 0.  1.
<mgrwt>
<rscale>  0 0.43716008E+02</rscale>
<asrwt>0</asrwt>
<pdfrwt beam="2">  1        2 0.99981445E-01 0.45718456E+02</pdfrwt>
<pdfrwt beam="1">  1       -2 0.40424242E-02 0.41801266E+02</pdfrwt>
<totfact> 0.10678014E+04</totfact>
</mgrwt>
</event>
<event>
 5    1  0.8459321E-003  0.9320125E+02  0.7546771E-02  0.1324331E+00
          2   -1    0    0  502    0  0.00000000000E+00  0.00000000000E+00  0.97911300180E+03  0.97911300180E+03  0.00000000000E+00 0. -1.
          1   -1    0    0  501    0 -0.00000000000E+00 -0.00000000000E+00 -0.33074858916E+03  0.33074858916E+03  0.00000000000E+00 0. -1.
         25    1    1    2    0    0  0.19102318733E+02  0.24924664024E+02  0.81923891284E+02  0.15271758714E+03  0.12500000000E+03 0.  0.
          2    1    1    2  501    0 -0.53951973356E-01  0.71595108200E+02 -0.28814897618E+03  0.29691024722E+03  0.00000000000E+00 0. -1.
          1    1    1    2  502    0 -0.19048366759E+02 -0.96519772224E+02  0.85458949753E+03  0.86023375660E+03  0.00000000000E+00 0. -1.
<mgrwt>
<rscale>  0 0.81686936E+02</rscale>
<asrwt>0</asrwt>
<pdfrwt beam="1">  1        2 0.15063277E+00 0.93201251E+02</pdfrwt>
<pdfrwt beam="2">  1        1 0.50884399E-01 0.71595129E+02</pdfrwt>
<totfact> 0.30332237E+02</totfact>
</mgrwt>
</event>
<event>
 5    1  0.8459321E-003  0.6105344E+02  0.7546771E-02  0.1440056E+00
          2   -1    0    0  502    0  0.00000000000E+00  0.00000000000E+00  0.29906300464E+04  0.29906300464E+04  0.00000000000E+00 0. -1.
          1   -1    0    0  501    0 -0.00000000000E+00 -0.00000000000E+00 -0.61923329959E+01  0.61923329959E+01  0.00000000000E+00 0. -1.
         25    1    1    2    0    0 -0.18291548261E+01 -0.26820257581E+02  0.16199211419E+04  0.16249591312E+04  0.12500000000E+03 0.  0.
          2    1    1    2  501    0 -0.65663493403E+01  0.68575617268E+02  0.36527176535E+03  0.37171117120E+03  0.00000000000E+00 0. -1.
          1    1    1    2  502    0  0.83955041664E+01 -0.41755359687E+02  0.99924480613E+03  0.10001520770E+04  0.00000000000E+00 0. -1.
<mgrwt>
<rscale>  0 0.50993410E+02</rscale>
<asrwt>0</asrwt>
<pdfrwt beam="1">  1        2 0.46009578E+00 0.42591015E+02</pdfrwt>
<pdfrwt beam="2">  1        1 0.95266900E-03 0.61053438E+02</pdfrwt>
<totfact> 0.53374901E+03</totfact>
</mgrwt>
</event>
<event>
 5    1  0.8459321E-003  0.1612700E+03  0.7546771E-02  0.1232674E+00
          1   -1    0    0  501    0 -0.00000000000E+00  0.00000000000E+00  0.11237437436E+04  0.11237437436E+04  0.00000000000E+00 0. -1.
          2   -1    0    0  502    0  0.00000000000E+00 -0.00000000000E+00 -0.12846318467E+03  0.12846318467E+03  0.00000000000E+00 0. -1.
         25    1    1    2    0    0 -0.87562777901E+02  0.22060006627E+03  0.44935029966E+03  0.52332811994E+03  0.12500000000E+03 0.  0.
          2    1    1    2  501    0  0.77429629764E+02 -0.12182121550E+03  0.59909894023E+03  0.61624288742E+03  0.00000000000E+00 0. -1.
          1    1    1    2  502    0  0.10133148138E+02 -0.98778850770E+02 -0.53168680940E+02  0.11263592093E+03  0.00000000000E+00 0. -1.
<mgrwt>
<rscale>  0 0.12654511E+03</rscale>
<asrwt>0</asrwt>
<pdfrwt beam="2">  1        2 0.19763568E-01 0.99297241E+02</pdfrwt>
<pdfrwt beam="1">  1        1 0.17288365E+00 0.16126998E+03</pdfrwt>
<totfact> 0.49857611E+02</totfact>
</mgrwt>
</event>
<event>
 5    1  0.8459321E-003  0.5271742E+02  0.7546771E-02  0.1533099E+00
         -1   -1    0    0    0  501 -0.00000000000E+00  0.00000000000E+00  0.67497651043E+03  0.67497651043E+03  0.00000000000E+00 0.  1.
          1   -1    0    0  502    0  0.00000000000E+00 -0.00000000000E+00 -0.16218150895E+03  0.16218150895E+03  0.00000000000E+00 0. -1.
         25    1    1    2    0    0  0.24076313985E+02  0.18748679121E+02 -0.64346134340E+01  0.12883161923E+03  0.12500000000E+03 0.  0.
          2    1    1    2  502    0 -0.47766101224E+02 -0.28716060110E+02 -0.86038633750E+02  0.10251272619E+03  0.00000000000E+00 0. -1.
         -2    1    1    2    0  501  0.23689787239E+02  0.99673809882E+01  0.60526824866E+03  0.60581367395E+03  0.00000000000E+00 0.  1.
<mgrwt>
<rscale>  0 0.36809022E+02</rscale>
<asrwt>0</asrwt>
<pdfrwt beam="2">  1        1 0.24951002E-01 0.52717423E+02</pdfrwt>
<pdfrwt beam="1">  1       -1 0.10384254E+00 0.25701259E+02</pdfrwt>
<totfact> 0.19038754E+02</totfact>
</mgrwt>
</event>
<event>
 5    1  0.8459321E-003  0.1414841E+03  0.7546771E-02  0.1321849E+00
          1   -1    0    0  501    0 -0.00000000000E+00  0.00000000000E+00  0.15828354160E+04  0.15828354160E+04  0.00000000000E+00 0. -1.
          2   -1    0    0  502    0  0.00000000000E+00 -0.00000000000E+00 -0.35915644522E+03  0.35915644522E+03  0.00000000000E+00 0. -1.
         25    1    1    2    0    0  0.32800363303E+02  0.89022575912E+02  0.45417995714E+03  0.48052608287E+03  0.12500000000E+03 0.  0.
          2    1    1    2  501    0  0.20634809300E+02  0.43576096258E+02  0.11001639702E+04  0.11012199748E+04  0.00000000000E+00 0. -1.
          1    1    1    2  502    0 -0.53435172602E+02 -0.13259867217E+03 -0.33066495653E+03  0.36024580360E+03  0.00000000000E+00 0. -1.
<mgrwt>
<rscale>  0 0.82593195E+02</rscale>
<asrwt>0</asrwt>
<pdfrwt beam="2">  1        2 0.55254839E-01 0.14148413E+03</pdfrwt>
<pdfrwt beam="1">  1        1 0.24351314E+00 0.48214848E+02</pdfrwt>
<totfact> 0.92343234E+01</totfact>
</mgrwt>
</event>
<event>
 5    1  0.8459321E-003  0.4064353E+02  0.7546771E-02  0.1509730E+00
         -2   -1    0    0    0  501 -0.00000000000E+00  0.00000000000E+00  0.28642402377E+03  0.28642402377E+03  0.00000000000E+00 0.  1.
          2   -1    0    0  502    0  0.00000000000E+00 -0.00000000000E+00 -0.10050851464E+04  0.10050851464E+04  0.00000000000E+00 0. -1.
         25    1    1    2    0    0  0.74881716803E+02  0.15782402542E+02  0.22705667532E+03  0.27025190017E+03  0.12500000000E+03 0.  0.
          1    1    1    2  502    0 -0.40506368518E+02  0.25603724109E+01 -0.97290203827E+03  0.97374827213E+03  0.00000000000E+00 0. -1.
         -1    1    1    2    0  501 -0.34375348285E+02 -0.18342774953E+02  0.27184240288E+02  0.47508997913E+02  0.00000000000E+00 0.  1.
<mgrwt>
<rscale>  0 0.39794440E+02</rscale>
<asrwt>0</asrwt>
<pdfrwt beam="2">  1        2 0.15462848E+00 0.40643535E+02</pdfrwt>
<pdfrwt beam="1">  1       -2 0.44065235E-01 0.38963085E+02</pdfrwt>
<totfact> 0.14164025E+02</totfact>
</mgrwt>
</event>
<event>
 5    1  0.8459321E-003  0.1622004E+03  0.7546771E-02  0.1259871E+00
          2   -1    0    0  502    0  0.00000000000E+00  0.00000000000E+00  0.36786589857E+03  0.36786589857E+03  0.00000000000E+00 0. -1.
          1   -1    0    0  501    0 -0.00000000000E+00 -0.00000000000E+00 -0.40977430080E+03  0.40977430080E+03  0.00000000000E+00 0. -1.
         25    1    1    2    0    0 -0.13439567523E+03  0.12348255654E+03  0.24270931229E+03  0.32839450295E+03  0.12500000000E+03 0.  0.
          2    1    1    2  501    0  0.75065307849E+02  0.26744481493E+01 -0.29974731329E+03  0.30901521798E+03  0.00000000000E+00 0. -1.
          1    1    1    2  502    0  0.59330367383E+02 -0.12615700469E+03  0.15129598763E+02  0.14023047845E+03  0.00000000000E+00 0. -1.
<mgrwt>
<rscale>  0 0.11037820E+03</rscale>
<asrwt>0</asrwt>
<pdfrwt beam="1">  1        2 0.56594754E-01 0.16220037E+03</pdfrwt>
<pdfrwt beam="2">  1        1 0.63042200E-01 0.75112936E+02</pdfrwt>
<totfact> 0.71392683E+02</totfact>
</mgrwt>
</event>
<event>
 5    1  0.8459321E-003  0.2059851E+03  0.7546771E-02  0.1233406E+00
          1   -1    0    0  501    0 -0.00000000000E+00  0.00000000000E+00  0.12918215846E+04  0.12918215846E+04  0.00000000000E+00 0. -1.
          2   -1    0    0  502    0  0.00000000000E+00 -0.00000000000E+00 -0.75407616964E+03  0.75407616964E+03  0.00000000000E+00 0. -1.
         25    1    1    2    0    0  0.67813181528E+02  0.12988253871E+03 -0.27040319954E+03  0.33198040872E+03  0.12500000000E+03 0.  0.
          2    1    1    2  501    0 -0.43707282732E+02 -0.20317993140E+03  0.12490972687E+04  0.12662686910E+04  0.00000000000E+00 0. -1.
          3    1    1    2  502    0 -0.24105898796E+02  0.73297392686E+02 -0.44094865428E+03  0.44764865446E+03  0.00000000000E+00 0. -1.
<mgrwt>
<rscale>  0 0.12607033E+03</rscale>
<asrwt>0</asrwt>
<pdfrwt beam="2">  1        2 0.11601172E+00 0.77159589E+02</pdfrwt>
<pdfrwt beam="1">  1        1 0.19874178E+00 0.20598512E+03</pdfrwt>
<totfact> 0.55461532E+01</totfact>
</mgrwt>
</event>
<event>
 5    1  0.8459321E-003  0.1033131E+03  0.7546771E-02  0.1370966E+00
          2   -1    0    0  502    0  0.00000000000E+00  0.00000000000E+00  0.32296814405E+03  0.32296814405E+03  0.00000000000E+00 0. -1.
          1   -1    0    0  501    0 -0.00000000000E+00 -0.00000000000E+00 -0.19720426594E+04  0.19720426594E+04  0.00000000000E+00 0. -1.
         25    1    1    2    0    0  0.91815795824E+02  0.13704735633E+02 -0.21285872523E+03  0.26372674693E+03  0.12500000000E+03 0.  0.
          2    1    1    2  501    0 -0.10041689982E+03  0.28752733043E+02 -0.17305900681E+04  0.17337393856E+04  0.00000000000E+00 0. -1.
          1    1    1    2  502    0  0.86011039977E+01 -0.42457468676E+02  0.29437427799E+03  0.29754467089E+03  0.00000000000E+00 0. -1.
<mgrwt>
<rscale>  0 0.66899291E+02</rscale>
<asrwt>0</asrwt>
<pdfrwt beam="1">  1        2 0.49687408E-01 0.43319922E+02</pdfrwt>
<pdfrwt beam="2">  1        1 0.30339117E+00 0.10331309E+03</pdfrwt>
<totfact> 0.53882888E+01</totfact>
</mgrwt>
</event>
<event>
 5    1  0.8459321E-003  0.9883377E+02  0.7546771E-02  0.1322957E+00
         -2   -1    0    0    0  501 -0.00000000000E+00  0.00000000000E+00  0.19491927514E+03  0.19491927514E+03  0.00000000000E+00 0.  1.
          2   -1    0    0  502    0  0.00000000000E+00 -0.00000000000E+00 -0.16674350187E+04  0.16674350187E+04  0.00000000000E+00 0. -1.
         25    1    1    2    0    0  0.14592363657E+03  0.71943981533E+02 -0.17242323950E+03  0.26800077930E+03  0.12500000000E+03 0.  0.
          1    1    1    2  502    0 -0.60233206119E+02 -0.32293327620E+02 -0.14311749713E+04  0.14328058824E+04  0.00000000000E+00 0. -1.
         -1    1    1    2    0  501 -0.85690430453E+02 -0.39650653913E+02  0.13108246725E+03  0.16154763213E+03  0.00000000000E+00 0.  1.
<mgrwt>
<rscale>  0 0.82186935E+02</rscale>
<asrwt>0</asrwt>
<pdfrwt beam="2">  1        2 0.25652848E+00 0.68343969E+02</pdfrwt>
<pdfrwt beam="1">  1       -2 0.29987579E-01 0.98833773E+02</pdfrwt>
<totfact> 0.12759333E+02</totfact>
</mgrwt>
</event>
<event>
 5    1  0.8459321E-003  0.1026951E+03  0.7546771E-02  0.1339821E+00
          1   -1    0    0  501    0 -0.00000000000E+00  0.00000000000E+00  0.15543580994E+03  0.15543580994E+03  0.00000000000E+00 0. -1.
          2   -1    0    0  502    0  0.00000000000E+00 -0.00000000000E+00 -0.20244429720E+04  0.20244429720E+04  0.00000000000E+00 0. -1.
         25    1    1    2    0    0 -0.24269291423E+02 -0.79037906981E+02  0.50693436130E+02  0.15821129452E+03  0.12500000000E+03 0.  0.
          2    1    1    2  501    0  0.26585051971E+02  0.13571452750E+03 -0.44022100620E+02  0.14513146904E+03  0.00000000000E+00 0. -1.
          1    1    1    2  502    0 -0.23157605477E+01 -0.56676620520E+02 -0.18756784976E+04  0.18765360184E+04  0.00000000000E+00 0. -1.
<mgrwt>
<rscale>  0 0.76323432E+02</rscale>
<asrwt>0</asrwt>
<pdfrwt beam="2">  1        2 0.31145274E+00 0.56723911E+02</pdfrwt>
<pdfrwt beam="1">  1        1 0.23913203E-01 0.10269507E+03</pdfrwt>
<totfact> 0.23058047E+02</totfact>
</mgrwt>
</event>
<event>
 5    1  0.8459321E-003  0.6110313E+02  0.7546771E-02  0.1506743E+00
          2   -1    0    0  502    0  0.00000000000E+00  0.00000000000E+00  0.98585051399E+03  0.98585051399E+03  0.00000000000E+00 0. -1.
          1   -1    0    0  501    0 -0.00000000000E+00 -0.00000000000E+00 -0.66481143039E+02  0.66481143039E+02  0.00000000000E+00 0. -1.
         25    1    1    2    0    0 -0.89796574162E+01  0.37224999012E+02  0.12103056646E+03  0.17815648407E+03  0.12500000000E+03 0.  0.
          2    1    1    2  501    0 -0.19396125787E+02  0.17980256399E+02 -0.32002562902E+02  0.41517024797E+02  0.00000000000E+00 0. -1.
          1    1    1    2  502    0  0.28375783204E+02 -0.55205255411E+02  0.83034136739E+03  0.83265814816E+03  0.00000000000E+00 0. -1.
<mgrwt>
<rscale>  0 0.40200230E+02</rscale>
<asrwt>0</asrwt>
<pdfrwt beam="1">  1        2 0.15166930E+00 0.61103127E+02</pdfrwt>
<pdfrwt beam="2">  1        1 0.10227869E-01 0.26448049E+02</pdfrwt>
<totfact> 0.20834799E+03</totfact>
</mgrwt>
</event>
<event>
 5    1  0.8459321E-003  0.8292690E+02  0.7546771E-02  0.1391971E+00
          1   -1    0    0  501    0 -0.00000000000E+00  0.00000000000E+00  0.22520824836E+03  0.22520824836E+03  0.00000000000E+00 0. -1.
          2   -1    0    0  502    0  0.00000000000E+00 -0.00000000000E+00 -0.77995920580E+03  0.77995920580E+03  0.00000000000E+00 0. -1.
         25    1    1    2    0    0 -0.14477167089E+02  0.12662072443E+03 -0.49993786064E+03  0.53085333259E+03  0.12500000000E+03 0.  0.
          2    1    1    2  501    0  0.53791367198E+01 -0.82050222277E+02  0.19959621769E+03  0.21586992427E+03  0.00000000000E+00 0. -1.
          1    1    1    2  502    0  0.90980303692E+01 -0.44570502156E+02 -0.25440931449E+03  0.25844419730E+03  0.00000000000E+00 0. -1.
<mgrwt>
<rscale>  0 0.61419149E+02</rscale>
<asrwt>0</asrwt>
<pdfrwt beam="2">  1        2 0.11999372E+00 0.45489601E+02</pdfrwt>
<pdfrwt beam="1">  1        1 0.34647423E-01 0.82926905E+02</pdfrwt>
<totfact> 0.66311109E+02</totfact>
</mgrwt>
</event>
<event>
 5    1  0.8459321E-003  0.1036935E+03  0.7546771E-02  0.1292539E+00
          1   -1    0    0  502    0  0.00000000000E+00  0.00000000000E+00  0.15988839125E+04  0.15988839125E+04  0.00000000000E+00 0. -1.
         -1   -1    0    0    0  501 -0.00000000000E+00 -0.00000000000E+00 -0.10942533195E+03  0.10942533195E+03  0.00000000000E+00 0.  1.
         25    1    1    2    0    0  0.13659470801E+03 -0.10062751270E+03  0.38898440784E+03  0.44240013575E+03  0.12500000000E+03 0.  0.
          2    1    1    2  502    0 -0.52188658333E+02  0.84488518697E+02  0.11581587661E+04  0.11624085741E+04  0.00000000000E+00 0. -1.
         -2    1    1    2    0  501 -0.84406049681E+02  0.16138994007E+02 -0.57684593331E+02  0.10350053458E+03  0.00000000000E+00 0.  1.
<mgrwt>
<rscale>  0 0.94397638E+02</rscale>
<asrwt>0</asrwt>
<pdfrwt beam="1">  1        1 0.24598212E+00 0.10369348E+03</pdfrwt>
<pdfrwt beam="2">  1       -1 0.16834668E-01 0.85935140E+02</pdfrwt>
<totfact> 0.17367811E+02</totfact>
</mgrwt>
</event>
<event>
 5    1  0.8459321E-003  0.5467802E+02  0.7546771E-02  0.1437170E+00
          1   -1    0    0  501    0 -0.00000000000E+00  0.00000000000E+00  0.70740242688E+03  0.70740242688E+03  0.00000000000E+00 0. -1.
          2   -1    0    0  502    0  0.00000000000E+00 -0.00000000000E+00 -0.49624286258E+03  0.49624286258E+03  0.00000000000E+00 0. -1.
         25    1    1    2    0    0 -0.21752951823E+02  0.46710291299E+02  0.69919760042E+02  0.15221305815E+03  0.12500000000E+03 0.  0.
          2    1    1    2  501    0  0.54383255946E+02 -0.10698986096E+02  0.59374436391E+03  0.59632573020E+03  0.00000000000E+00 0. -1.
          1    1    1    2  502    0 -0.32630304123E+02 -0.36011305203E+02 -0.45250455964E+03  0.45510650111E+03  0.00000000000E+00 0. -1.
<mgrwt>
<rscale>  0 0.51547275E+02</rscale>
<asrwt>0</asrwt>
<pdfrwt beam="2">  1        2 0.76345056E-01 0.48595790E+02</pdfrwt>
<pdfrwt beam="1">  1        1 0.10883114E+00 0.54678020E+02</pdfrwt>
<totfact> 0.26106919E+02</totfact>
</mgrwt>
</event>
<event>
 5    1  0.8459321E-003  0.5138004E+02  0.7546771E-02  0.1494707E+00
          1   -1    0    0  501    0 -0.00000000000E+00  0.00000000000E+00  0.40137504354E+03  0.40137504354E+03  0.00000000000E+00 0. -1.
          2   -1    0    0  502    0  0.00000000000E+00 -0.00000000000E+00 -0.20578089423E+03  0.20578089423E+03  0.00000000000E+00 0. -1.
         25    1    1    2    0    0  0.15317417486E+02  0.38259740283E+02  0.16733714089E+03  0.21289704020E+03  0.12500000000E+03 0.  0.
          2    1    1    2  501    0  0.30811728893E+02 -0.14754324597E+02  0.20616224830E+03  0.20897350395E+03  0.00000000000E+00 0. -1.
          1    1    1    2  502    0 -0.46129146379E+02 -0.23505415686E+02 -0.17790523988E+03  0.18528539362E+03  0.00000000000E+00 0. -1.
<mgrwt>
<rscale>  0 0.41895737E+02</rscale>
<asrwt>0</asrwt>
<pdfrwt beam="2">  1        2 0.31658599E-01 0.51380040E+02</pdfrwt>
<pdfrwt beam="1">  1        1 0.61750007E-01 0.34162153E+02</pdfrwt>
<totfact> 0.13421777E+03</totfact>
</mgrwt>
</event>
<event>
 5    1  0.8459321E-003  0.5023251E+02  0.7546771E-02  0.1467731E+00
          2   -1    0    0  502    0  0.00000000000E+00  0.00000000000E+00  0.11345336928E+03  0.11345336928E+03  0.00000000000E+00 0. -1.
          1   -1    0    0  501    0 -0.00000000000E+00 -0.00000000000E+00 -0.11644665041E+04  0.11644665041E+04  0.00000000000E+00 0. -1.
         25    1    1    2    0    0 -0.13550109404E+02  0.87687684833E+02 -0.66295127249E+02  0.16701131528E+03  0.12500000000E+03 0.  0.
          2    1    1    2  501    0  0.19479804265E+02 -0.45841309879E+02 -0.10400720956E+04  0.10412640648E+04  0.00000000000E+00 0. -1.
          1    1    1    2  502    0 -0.59296948618E+01 -0.41846374954E+02  0.55354088090E+02  0.69644493295E+02  0.00000000000E+00 0. -1.
<mgrwt>
<rscale>  0 0.46076540E+02</rscale>
<asrwt>0</asrwt>
<pdfrwt beam="1">  1        2 0.17454365E-01 0.42264410E+02</pdfrwt>
<pdfrwt beam="2">  1        1 0.17914869E+00 0.50232513E+02</pdfrwt>
<totfact> 0.56369238E+02</totfact>
</mgrwt>
</event>
<event>
 5    1  0.8459321E-003  0.9769027E+02  0.7546771E-02  0.1351358E+00
          1   -1    0    0  501    0 -0.00000000000E+00  0.00000000000E+00  0.96520318035E+03  0.96520318035E+03  0.00000000000E+00 0. -1.
          2   -1    0    0  502    0  0.00000000000E+00 -0.00000000000E+00 -0.13258378080E+04  0.13258378080E+04  0.00000000000E+00 0. -1.
         25    1    1    2    0    0 -0.60252480442E+02 -0.43908082924E+01 -0.27559906181E+03  0.30859274695E+03  0.12500000000E+03 0.  0.
          2    1    1    2  501    0  0.88927222821E+02 -0.41371923225E+02  0.94546244512E+03  0.95053612352E+03  0.00000000000E+00 0. -1.
          1    1    1    2  502    0 -0.28674742380E+02  0.45762731517E+02 -0.10304980110E+04  0.10319121179E+04  0.00000000000E+00 0. -1.
<mgrwt>
<rscale>  0 0.72634002E+02</rscale>
<asrwt>0</asrwt>
<pdfrwt beam="2">  1        2 0.20397505E+00 0.54004337E+02</pdfrwt>
<pdfrwt beam="1">  1        1 0.14849280E+00 0.97690270E+02</pdfrwt>
<totfact> 0.47318271E+01</totfact>
</mgrwt>
</event>
<event>
 5    1  0.8459321E-003  0.1900879E+03  0.7546771E-02  0.1244957E+00
          2   -1    0    0  502    0  0.00000000000E+00  0.00000000000E+00  0.16115058138E+04  0.16115058138E+04  0.00000000000E+00 0. -1.
          1   -1    0    0  501    0 -0.00000000000E+00 -0.00000000000E+00 -0.25846802447E+04  0.25846802447E+04  0.00000000000E+00 0. -1.
         25    1    1    2    0    0  0.25309866557E+03 -0.36778476649E+02  0.12805155225E+03  0.31214386250E+03  0.12500000000E+03 0.  0.
          2    1    1    2  501    0 -0.73547045190E+02 -0.10872042210E+02 -0.24858754212E+04  0.24869869278E+04  0.00000000000E+00 0. -1.
          1    1    1    2  502    0 -0.17955162038E+03  0.47650518859E+02  0.13846494380E+04  0.13970552682E+04  0.00000000000E+00 0. -1.
<mgrwt>
<rscale>  0 0.11887948E+03</rscale>
<asrwt>0</asrwt>
<pdfrwt beam="1">  1        2 0.24792397E+00 0.19008793E+03</pdfrwt>
<pdfrwt beam="2">  1        1 0.39764311E+00 0.74346279E+02</pdfrwt>
<totfact> 0.28437514E+00</totfact>
</mgrwt>
</event>
<event>
 5    1  0.8459321E-003  0.7774589E+02  0.7546771E-02  0.1366112E+00
          2   -1    0    0  502    0  0.00000000000E+00  0.00000000000E+00  0.15023767256E+04  0.15023767256E+04  0.00000000000E+00 0. -1.
          1   -1    0    0  501    0 -0.00000000000E+00 -0.00000000000E+00 -0.34799929011E+03  0.34799929011E+03  0.00000000000E+00 0. -1.
         25    1    1    2    0    0 -0.42431762504E+01  0.10913775786E+03  0.10828963736E+04  0.10955448921E+04  0.12500000000E+03 0.  0.
          2    1    1    2  501    0 -0.30778955064E+02 -0.51424210054E+02 -0.33624995477E+03  0.34154915538E+03  0.00000000000E+00 0. -1.
          1    1    1    2  502    0  0.35022131314E+02 -0.57713547805E+02  0.40773101672E+03  0.41328196825E+03  0.00000000000E+00 0. -1.
<mgrwt>
<rscale>  0 0.68260044E+02</rscale>
<asrwt>0</asrwt>
<pdfrwt beam="1">  1        2 0.23113488E+00 0.77745892E+02</pdfrwt>
<pdfrwt beam="2">  1        1 0.53538353E-01 0.59931573E+02</pdfrwt>
<totfact> 0.15069633E+02</totfact>
</mgrwt>
</event>
<event>
 5    1  0.8459321E-003  0.4602830E+02  0.7546771E-02  0.1497412E+00
         -2   -1    0    0    0  501 -0.00000000000E+00  0.00000000000E+00  0.26321519742E+02  0.26321519742E+02  0.00000000000E+00 0.  1.
          2   -1    0    0  502    0  0.00000000000E+00 -0.00000000000E+00 -0.17251236759E+04  0.17251236759E+04  0.00000000000E+00 0. -1.
         25    1    1    2    0    0 -0.29800549926E+02 -0.57639840917E+02 -0.56664392177E+03  0.58388419923E+03  0.12500000000E+03 0.  0.
          1    1    1    2  502    0 -0.55172267881E+01  0.45249472686E+02 -0.11290872507E+04  0.11300070683E+04  0.00000000000E+00 0. -1.
         -1    1    1    2    0  501  0.35317776714E+02  0.12390368231E+02 -0.30709836394E+01  0.37553928122E+02  0.00000000000E+00 0.  1.
<mgrwt>
<rscale>  0 0.41506075E+02</rscale>
<asrwt>0</asrwt>
<pdfrwt beam="2">  1        2 0.26540368E+00 0.46028301E+02</pdfrwt>
<pdfrwt beam="1">  1       -2 0.40494641E-02 0.37428152E+02</pdfrwt>
<totfact> 0.26793525E+03</totfact>
</mgrwt>
</event>
<event>
 5    1  0.8459321E-003  0.1115719E+03  0.7546771E-02  0.1387530E+00
         -2   -1    0    0    0  501 -0.00000000000E+00  0.00000000000E+00  0.15732831228E+03  0.15732831228E+03  0.00000000000E+00 0.  1.
          2   -1    0    0  502    0  0.00000000000E+00 -0.00000000000E+00 -0.10014327059E+04  0.10014327059E+04  0.00000000000E+00 0. -1.
         25    1    1    2    0    0  0.30006398827E+02  0.77686331444E+02 -0.94199411344E+02  0.17729658531E+03  0.12500000000E+03 0.  0.
          1    1    1    2  502    0  0.61890166597E+01  0.34488264714E+02 -0.83522258730E+03  0.83595724452E+03  0.00000000000E+00 0. -1.
         -1    1    1    2    0  501 -0.36195415487E+02 -0.11217459616E+03  0.85317605040E+02  0.14550718833E+03  0.00000000000E+00 0.  1.
<mgrwt>
<rscale>  0 0.62525114E+02</rscale>
<asrwt>0</asrwt>
<pdfrwt beam="2">  1        2 0.15406657E+00 0.35039183E+02</pdfrwt>
<pdfrwt beam="1">  1       -2 0.24204356E-01 0.11157195E+03</pdfrwt>
<totfact> 0.43142816E+02</totfact>
</mgrwt>
</event>
<event>
 5    1  0.8459321E-003  0.2925478E+02  0.7546771E-02  0.1609189E+00
          1   -1    0    0  502    0  0.00000000000E+00  0.00000000000E+00  0.38267969054E+04  0.38267969054E+04  0.00000000000E+00 0. -1.
         -1   -1    0    0    0  501 -0.00000000000E+00 -0.00000000000E+00 -0.78161166548E+02  0.78161166548E+02  0.00000000000E+00 0.  1.
         25    1    1    2    0    0  0.21538551143E+02  0.48610640302E+01  0.17735434213E+04  0.17780800899E+04  0.12500000000E+03 0.  0.
          2    1    1    2  502    0 -0.16036819436E+02  0.23904856317E+02  0.20480547156E+04  0.20482570004E+04  0.00000000000E+00 0. -1.
         -2    1    1    2    0  501 -0.55017317073E+01 -0.28765920347E+02 -0.72962397996E+02  0.78620981592E+02  0.00000000000E+00 0.  1.
<mgrwt>
<rscale>  0 0.29019339E+02</rscale>
<asrwt>0</asrwt>
<pdfrwt beam="1">  1        1 0.58873784E+00 0.28785790E+02</pdfrwt>
<pdfrwt beam="2">  1       -1 0.12024798E-01 0.29254783E+02</pdfrwt>
<totfact> 0.11366467E+01</totfact>
</mgrwt>
</event>
<event>
 5    1  0.8459321E-003  0.9994830E+02  0.7546771E-02  0.1391815E+00
          2   -1    0    0  502    0  0.00000000000E+00  0.00000000000E+00  0.51664419973E+03  0.51664419973E+03  0.00000000000E+00 0. -1.
         -2   -1    0    0    0  501 -0.00000000000E+00 -0.00000000000E+00 -0.62044935660E+03  0.62044935660E+03  0.00000000000E+00 0.  1.
         25    1    1    2    0    0 -0.41526459103E+02  0.49127253663E+02 -0.42427937431E+02  0.14684367107E+03  0.12500000000E+03 0.  0.
          1    1    1    2  502    0  0.67799604965E+02 -0.76289612739E+02  0.45813444651E+03  0.46936559581E+03  0.00000000000E+00 0. -1.
         -1    1    1    2    0  501 -0.26273145863E+02  0.27162359076E+02 -0.51951166595E+03  0.52088428946E+03  0.00000000000E+00 0.  1.
<mgrwt>
<rscale>  0 0.61457549E+02</rscale>
<asrwt>0</asrwt>
<pdfrwt beam="1">  1        2 0.79483724E-01 0.99948304E+02</pdfrwt>
<pdfrwt beam="2">  1       -2 0.95453746E-01 0.37789839E+02</pdfrwt>
<totfact> 0.61898982E+01</totfact>
</mgrwt>
</event>
<event>
 5    1  0.8459321E-003  0.1033317E+03  0.7546771E-02  0.1370967E+00
         -1   -1    0    0    0  501 -0.00000000000E+00  0.00000000000E+00  0.55283868092E+03  0.55283868092E+03  0.00000000000E+00 0.  1.
          1   -1    0    0  502    0  0.00000000000E+00 -0.00000000000E+00 -0.12150314612E+04  0.12150314612E+04  0.00000000000E+00 0. -1.
         25    1    1    2    0    0  0.99328194211E+02 -0.66341156679E+02  0.12011034707E+03  0.21052015274E+03  0.12500000000E+03 0.  0.
          2    1    1    2  502    0 -0.40026378452E+02 -0.16546916841E+02 -0.11627153975E+04  0.11635218120E+04  0.00000000000E+00 0. -1.
         -2    1    1    2    0  501 -0.59301815759E+02  0.82888073521E+02  0.38041227011E+03  0.39382817743E+03  0.00000000000E+00 0.  1.
<mgrwt>
<rscale>  0 0.66899025E+02</rscale>
<asrwt>0</asrwt>
<pdfrwt beam="2">  1        1 0.18692792E+00 0.43311793E+02</pdfrwt>
<pdfrwt beam="1">  1       -1 0.85052105E-01 0.10333166E+03</pdfrwt>
<totfact> 0.19455432E+01</totfact>
</mgrwt>
</event>
<event>
 5    1  0.8459321E-003  0.1171206E+03  0.7546771E-02  0.1383681E+00
         -2   -1    0    0    0  501 -0.00000000000E+00  0.00000000000E+00  0.24338597144E+02  0.24338597144E+02  0.00000000000E+00 0.  1.
          2   -1    0    0  502    0  0.00000000000E+00 -0.00000000000E+00 -0.27106741852E+04  0.27106741852E+04  0.00000000000E+00 0. -1.
         25    1    1    2    0    0 -0.10063834069E+03  0.71256269427E+02 -0.16432866281E+04  0.16526407576E+04  0.12500000000E+03 0.  0.
          1    1    1    2  502    0  0.71615400856E+02 -0.89787896289E+02 -0.10415937188E+04  0.10479065354E+04  0.00000000000E+00 0. -1.
         -1    1    1    2    0  501  0.29022939835E+02  0.18531626861E+02 -0.14552412075E+01  0.34465489374E+02  0.00000000000E+00 0.  1.
<mgrwt>
<rscale>  0 0.63506067E+02</rscale>
<asrwt>0</asrwt>
<pdfrwt beam="2">  1        2 0.41702663E+00 0.11712065E+03</pdfrwt>
<pdfrwt beam="1">  1       -2 0.37444011E-02 0.34434753E+02</pdfrwt>
<totfact> 0.83267334E+02</totfact>
</mgrwt>
</event>
<event>
 5    1  0.8459321E-003  0.9106357E+02  0.7546771E-02  0.1307858E+00
         -2   -1    0    0    0  501 -0.00000000000E+00  0.00000000000E+00  0.27776105111E+03  0.27776105111E+03  0.00000000000E+00 0.  1.
          2   -1    0    0  502    0  0.00000000000E+00 -0.00000000000E+00 -0.14073061398E+04  0.14073061398E+04  0.00000000000E+00 0. -1.
         25    1    1    2    0    0  0.14096004697E+02 -0.14882469477E+02 -0.12678950088E+03  0.17922266257E+03  0.12500000000E+03 0.  0.
          1    1    1    2  502    0 -0.29697924768E+02 -0.79611541239E+02 -0.12436813586E+04  0.12465806376E+04  0.00000000000E+00 0. -1.
         -1    1    1    2    0  501  0.15601920071E+02  0.94494010716E+02  0.24092577084E+03  0.25926389071E+03  0.00000000000E+00 0.  1.
<mgrwt>
<rscale>  0 0.87964229E+02</rscale>
<asrwt>0</asrwt>
<pdfrwt beam="2">  1        2 0.21650864E+00 0.84970373E+02</pdfrwt>
<pdfrwt beam="1">  1       -2 0.42732469E-01 0.91063571E+02</pdfrwt>
<totfact> 0.88192845E+01</totfact>
</mgrwt>
</event>
<event>
 5    1  0.8459321E-003  0.5547283E+02  0.7546771E-02  0.1425505E+00
          1   -1    0    0  502    0  0.00000000000E+00  0.00000000000E+00  0.84592731637E+03  0.84592731637E+03  0.00000000000E+00 0. -1.
         -1   -1    0    0    0  501 -0.00000000000E+00 -0.00000000000E+00 -0.38806317063E+02  0.38806317063E+02  0.00000000000E+00 0.  1.
         25    1    1    2    0    0 -0.11805340167E+02  0.22194571282E+02  0.25435626942E+03  0.28452429921E+03  0.12500000000E+03 0.  0.
          2    1    1    2  502    0 -0.31867108959E+02 -0.51004949730E+02  0.54381437737E+03  0.54712986993E+03  0.00000000000E+00 0. -1.
         -2    1    1    2    0  501  0.43672449126E+02  0.28810378448E+02  0.89503525137E+01  0.53079464288E+02  0.00000000000E+00 0.  1.
<mgrwt>
<rscale>  0 0.53873051E+02</rscale>
<asrwt>0</asrwt>
<pdfrwt beam="1">  1        1 0.13014265E+00 0.55472827E+02</pdfrwt>
<pdfrwt beam="2">  1       -1 0.59702033E-02 0.52319411E+02</pdfrwt>
<totfact> 0.26865628E+03</totfact>
</mgrwt>
</event>
<event>
 5    1  0.8459321E-003  0.6542200E+02  0.7546771E-02  0.1406717E+00
          1   -1    0    0  501    0 -0.00000000000E+00  0.00000000000E+00  0.35750722419E+03  0.35750722419E+03  0.00000000000E+00 0. -1.
          2   -1    0    0  502    0  0.00000000000E+00 -0.00000000000E+00 -0.18803821214E+03  0.18803821214E+03  0.00000000000E+00 0. -1.
         25    1    1    2    0    0 -0.38229267463E+02 -0.29011278191E+02  0.46542653240E+02  0.14175454040E+03  0.12500000000E+03 0.  0.
          2    1    1    2  501    0  0.67239120988E+02 -0.13299747356E+02  0.25397361232E+03  0.26306002818E+03  0.00000000000E+00 0. -1.
          3    1    1    2  502    0 -0.29009853524E+02  0.42311025547E+02 -0.13104725351E+03  0.14073086775E+03  0.00000000000E+00 0. -1.
<mgrwt>
<rscale>  0 0.57932853E+02</rscale>
<asrwt>0</asrwt>
<pdfrwt beam="2">  1        2 0.28928956E-01 0.51301018E+02</pdfrwt>
<pdfrwt beam="1">  1        1 0.55001112E-01 0.65422004E+02</pdfrwt>
<totfact> 0.16881811E+03</totfact>
</mgrwt>
</event>
<event>
 5    1  0.8459321E-003  0.1149228E+03  0.7546771E-02  0.1277562E+00
         -1   -1    0    0    0  502 -0.00000000000E+00  0.00000000000E+00  0.36436860466E+03  0.36436860466E+03  0.00000000000E+00 0.  1.
         -2   -1    0    0    0  501  0.00000000000E+00 -0.00000000000E+00 -0.98511686856E+03  0.98511686856E+03  0.00000000000E+00 0.  1.
         25    1    1    2    0    0 -0.89534518090E+02  0.10212067765E+03 -0.34055611703E+03  0.38736098355E+03  0.12500000000E+03 0.  0.
         -2    1    1    2    0  502 -0.25450543126E+02 -0.85609207827E+02  0.32953846404E+03  0.34142680898E+03  0.00000000000E+00 0.  1.
         -1    1    1    2    0  501  0.11498506122E+03 -0.16511469823E+02 -0.60973061091E+03  0.62069768069E+03  0.00000000000E+00 0.  1.
<mgrwt>
<rscale>  0 0.10131143E+03</rscale>
<asrwt>0</asrwt>
<pdfrwt beam="2">  1       -2 0.15155644E+00 0.11492279E+03</pdfrwt>
<pdfrwt beam="1">  1       -1 0.56056709E-01 0.89312186E+02</pdfrwt>
<totfact> 0.81196270E+00</totfact>
</mgrwt>
</event>
<event>
 5    1  0.8459321E-003  0.1071587E+03  0.7546771E-02  0.1355418E+00
          2   -1    0    0  502    0  0.00000000000E+00  0.00000000000E+00  0.34432931156E+03  0.34432931156E+03  0.00000000000E+00 0. -1.
          1   -1    0    0  501    0 -0.00000000000E+00 -0.00000000000E+00 -0.18255056902E+04  0.18255056902E+04  0.00000000000E+00 0. -1.
         25    1    1    2    0    0 -0.55248986635E+02 -0.10257891856E+03 -0.15975275636E+03  0.23392483455E+03  0.12500000000E+03 0.  0.
          2    1    1    2  501    0  0.78791525373E+01  0.10688374306E+03 -0.16250502061E+04  0.16285804825E+04  0.00000000000E+00 0. -1.
          1    1    1    2  502    0  0.47369834098E+02 -0.43048245011E+01  0.30362658383E+03  0.30732968471E+03  0.00000000000E+00 0. -1.
<mgrwt>
<rscale>  0 0.71393336E+02</rscale>
<asrwt>0</asrwt>
<pdfrwt beam="1">  1        2 0.52973740E-01 0.47565036E+02</pdfrwt>
<pdfrwt beam="2">  1        1 0.28084703E+00 0.10715872E+03</pdfrwt>
<totfact> 0.62209444E+01</totfact>
</mgrwt>
</event>
<event>
 5    1  0.8459321E-003  0.6618113E+02  0.7546771E-02  0.1429527E+00
          2   -1    0    0  502    0  0.00000000000E+00  0.00000000000E+00  0.13979461413E+03  0.13979461413E+03  0.00000000000E+00 0. -1.
          1   -1    0    0  501    0 -0.00000000000E+00 -0.00000000000E+00 -0.14123595380E+04  0.14123595380E+04  0.00000000000E+00 0. -1.
         25    1    1    2    0    0 -0.19766303292E+02 -0.90985357049E+02 -0.49413627385E+03  0.51813579212E+03  0.12500000000E+03 0.  0.
          2    1    1    2  501    0  0.33252131905E+02  0.26519662508E+02 -0.89720047967E+03  0.89820804800E+03  0.00000000000E+00 0. -1.
          1    1    1    2  502    0 -0.13485828612E+02  0.64465694540E+02  0.11877182962E+03  0.13581031204E+03  0.00000000000E+00 0. -1.
<mgrwt>
<rscale>  0 0.53055028E+02</rscale>
<asrwt>0</asrwt>
<pdfrwt beam="1">  1        2 0.21506862E-01 0.66181132E+02</pdfrwt>
<pdfrwt beam="2">  1        1 0.21728610E+00 0.42532303E+02</pdfrwt>
<totfact> 0.32209550E+02</totfact>
</mgrwt>
</event>
<event>
 5    1  0.8459321E-003  0.2804579E+02  0.7546771E-02  0.1659092E+00
          1   -1    0    0  501    0 -0.00000000000E+00  0.00000000000E+00  0.14541707267E+03  0.14541707267E+03  0.00000000000E+00 0. -1.
          2   -1    0    0  502    0  0.00000000000E+00 -0.00000000000E+00 -0.47486616334E+03  0.47486616334E+03  0.00000000000E+00 0. -1.
         25    1    1    2    0    0 -0.13384902989E+02 -0.14515265427E+02  0.35919420911E+02  0.13154867296E+03  0.12500000000E+03 0.  0.
          2    1    1    2  501    0  0.18253665336E+02 -0.13195260329E+02  0.59145607759E+02  0.63289131061E+02  0.00000000000E+00 0. -1.
          1    1    1    2  502    0 -0.48687623471E+01  0.27710525756E+02 -0.42451411934E+03  0.42544543199E+03  0.00000000000E+00 0. -1.
<mgrwt>
<rscale>  0 0.25133469E+02</rscale>
<asrwt>0</asrwt>
<pdfrwt beam="2">  1        2 0.73056332E-01 0.28045789E+02</pdfrwt>
<pdfrwt beam="1">  1        1 0.22371858E-01 0.22523570E+02</pdfrwt>
<totfact> 0.18572158E+03</totfact>
</mgrwt>
</event>
<event>
 5    1  0.8459321E-003  0.1500347E+03  0.7546771E-02  0.1343700E+00
          2   -1    0    0  502    0  0.00000000000E+00  0.00000000000E+00  0.11993153408E+04  0.11993153408E+04  0.00000000000E+00 0. -1.
          1   -1    0    0  501    0 -0.00000000000E+00 -0.00000000000E+00 -0.70253952136E+03  0.70253952136E+03  0.00000000000E+00 0. -1.
         25    1    1    2    0    0  0.14394548039E+03 -0.75979499417E+02  0.46013729838E+03  0.50382985125E+03  0.12500000000E+03 0.  0.
          2    1    1    2  501    0 -0.24527462426E+01  0.37466529528E+02 -0.67266999219E+03  0.67371705870E+03  0.00000000000E+00 0. -1.
          1    1    1    2  502    0 -0.14149273415E+03  0.38512969888E+02  0.70930851328E+03  0.72430795224E+03  0.00000000000E+00 0. -1.
<mgrwt>
<rscale>  0 0.75055405E+02</rscale>
<asrwt>0</asrwt>
<pdfrwt beam="1">  1        2 0.18451005E+00 0.15003475E+03</pdfrwt>
<pdfrwt beam="2">  1        1 0.10808300E+00 0.37546728E+02</pdfrwt>
<totfact> 0.86791530E+01</totfact>
</mgrwt>
</event>
<event>
 5    1  0.8459321E-003  0.2146384E+03  0.7546771E-02  0.1219221E+00
          1   -1    0    0  501    0 -0.00000000000E+00  0.00000000000E+00  0.95346702944E+02  0.95346702944E+02  0.00000000000E+00 0. -1.
          2   -1    0    0  502    0  0.00000000000E+00 -0.00000000000E+00 -0.16582189848E+04  0.16582189848E+04  0.00000000000E+00 0. -1.
         25    1    1    2    0    0 -0.14205693294E+03 -0.24460824217E+02 -0.89588376959E+02  0.21078325693E+03  0.12500000000E+03 0.  0.
          2    1    1    2  501    0 -0.71069324747E+02 -0.48080230048E+02 -0.45048441812E+02  0.96911916456E+02  0.00000000000E+00 0. -1.
          1    1    1    2  502    0  0.21312625768E+03  0.72541054265E+02 -0.14282354631E+04  0.14458705144E+04  0.00000000000E+00 0. -1.
<mgrwt>
<rscale>  0 0.13570971E+03</rscale>
<asrwt>0</asrwt>
<pdfrwt beam="2">  1        2 0.25511059E+00 0.21463843E+03</pdfrwt>
<pdfrwt beam="1">  1        1 0.14668725E-01 0.85805346E+02</pdfrwt>
<totfact> 0.56990712E+02</totfact>
</mgrwt>
</event>
<event>
 5    1  0.8459321E-003  0.8614346E+02  0.7546771E-02  0.1467279E+00
          2   -1    0    0  502    0  0.00000000000E+00  0.00000000000E+00  0.12366816483E+04  0.12366816483E+04  0.00000000000E+00 0. -1.
          1   -1    0    0  501    0 -0.00000000000E+00 -0.00000000000E+00 -0.63841267265E+02  0.63841267265E+02  0.00000000000E+00 0. -1.
         25    1    1    2    0    0 -0.61772319796E+02  0.51193267893E+02  0.16081171265E+03  0.21891088848E+03  0.12500000000E+03 0.  0.
          2    1    1    2  501    0  0.50198528609E+02 -0.73042877983E+02  0.22058434555E+02  0.91333065390E+02  0.00000000000E+00 0. -1.
          1    1    1    2  502    0  0.11573791187E+02  0.21849610090E+02  0.98997023380E+03  0.99027896167E+03  0.00000000000E+00 0. -1.
<mgrwt>
<rscale>  0 0.46151421E+02</rscale>
<asrwt>0</asrwt>
<pdfrwt beam="1">  1        2 0.19025870E+00 0.24725657E+02</pdfrwt>
<pdfrwt beam="2">  1        1 0.98217343E-02 0.86143463E+02</pdfrwt>
<totfact> 0.18666269E+03</totfact>
</mgrwt>
</event>
<event>
 5    1  0.8459321E-003  0.1057070E+03  0.7546771E-02  0.1292252E+00
          3   -1    0    0  501    0 -0.00000000000E+00  0.00000000000E+00  0.34348833479E+03  0.34348833479E+03  0.00000000000E+00 0. -1.
          2   -1    0    0  502    0  0.00000000000E+00 -0.00000000000E+00 -0.41265475144E+03  0.41265475144E+03  0.00000000000E+00 0. -1.
         25    1    1    2    0    0  0.45868843221E+02  0.10142004483E+02 -0.39985994061E+02  0.13939401262E+03  0.12500000000E+03 0.  0.
          2    1    1    2  501    0  0.68228668340E+02 -0.49891353617E+02  0.27593050558E+03  0.28858610892E+03  0.00000000000E+00 0. -1.
          1    1    1    2  502    0 -0.11409751156E+03  0.39749349134E+02 -0.30511092817E+03  0.32816296469E+03  0.00000000000E+00 0. -1.
<mgrwt>
<rscale>  0 0.94523945E+02</rscale>
<asrwt>0</asrwt>
<pdfrwt beam="2">  1        2 0.63485346E-01 0.10570703E+03</pdfrwt>
<pdfrwt beam="1">  1        3 0.52844359E-01 0.84523951E+02</pdfrwt>
<totfact> 0.16472562E+02</totfact>
</mgrwt>
</event>
<event>
 5    1  0.8459321E-003  0.1009083E+03  0.7546771E-02  0.1350797E+00
         -2   -1    0    0    0  501 -0.00000000000E+00  0.00000000000E+00  0.22878495007E+03  0.22878495007E+03  0.00000000000E+00 0.  1.
          2   -1    0    0  502    0  0.00000000000E+00 -0.00000000000E+00 -0.22310346758E+04  0.22310346758E+04  0.00000000000E+00 0. -1.
         25    1    1    2    0    0 -0.34454314504E+02 -0.12333843647E+03 -0.65574507978E+03  0.67972500275E+03  0.12500000000E+03 0.  0.
          3    1    1    2  502    0 -0.27986262798E+02  0.44457032033E+02 -0.15511597197E+04  0.15520490117E+04  0.00000000000E+00 0. -1.
         -1    1    1    2    0  501  0.62440577302E+02  0.78881404434E+02  0.20465507379E+03  0.22804561142E+03  0.00000000000E+00 0.  1.
<mgrwt>
<rscale>  0 0.72807701E+02</rscale>
<asrwt>0</asrwt>
<pdfrwt beam="2">  1        2 0.34323611E+00 0.52532453E+02</pdfrwt>
<pdfrwt beam="1">  1       -2 0.35197684E-01 0.10090832E+03</pdfrwt>
<totfact> 0.51866467E+01</totfact>
</mgrwt>
</event>
<event>
 5    1  0.8459321E-003  0.1030114E+03  0.7546771E-02  0.1299803E+00
          2   -1    0    0  502    0  0.00000000000E+00  0.00000000000E+00  0.25110101423E+04  0.25110101423E+04  0.00000000000E+00 0. -1.
          1   -1    0    0  501    0 -0.00000000000E+00 -0.00000000000E+00 -0.70015423971E+03  0.70015423971E+03  0.00000000000E+00 0. -1.
         25    1    1    2    0    0  0.17337827084E+03 -0.48755851312E+02 -0.19258869148E+02  0.22007512780E+03  0.12500000000E+03 0.  0.
          2    1    1    2  501    0 -0.97602749740E+02  0.20510011908E+02 -0.57551890093E+03  0.58409670661E+03  0.00000000000E+00 0. -1.
          1    1    1    2  502    0 -0.75775521102E+02  0.28245839404E+02  0.24056336726E+04  0.24069925476E+04  0.00000000000E+00 0. -1.
<mgrwt>
<rscale>  0 0.91271032E+02</rscale>
<asrwt>0</asrwt>
<pdfrwt beam="1">  1        2 0.38630925E+00 0.80868764E+02</pdfrwt>
<pdfrwt beam="2">  1        1 0.10771604E+00 0.10301136E+03</pdfrwt>
<totfact> 0.18683474E+01</totfact>
</mgrwt>
</event>
<event>
 5    1  0.8459321E-003  0.1036074E+03  0.7546771E-02  0.1335491E+00
          1   -1    0    0  501    0 -0.00000000000E+00  0.00000000000E+00  0.27945827201E+04  0.27945827201E+04  0.00000000000E+00 0. -1.
          2   -1    0    0  502    0  0.00000000000E+00 -0.00000000000E+00 -0.45691924351E+03  0.45691924351E+03  0.00000000000E+00 0. -1.
         25    1    1    2    0    0 -0.97313309297E+02 -0.54714846858E+02  0.47880180014E+03  0.50728666300E+03  0.12500000000E+03 0.  0.
          2    1    1    2  501    0  0.46293211549E+02 -0.35571606968E+02  0.22950885085E+04  0.22958309307E+04  0.00000000000E+00 0. -1.
          1    1    1    2  502    0  0.51020097748E+02  0.90286453826E+02 -0.43622683207E+03  0.44838436987E+03  0.00000000000E+00 0. -1.
<mgrwt>
<rscale>  0 0.77773766E+02</rscale>
<asrwt>0</asrwt>
<pdfrwt beam="2">  1        2 0.70295270E-01 0.10360744E+03</pdfrwt>
<pdfrwt beam="1">  1        1 0.42993579E+00 0.58381510E+02</pdfrwt>
<totfact> 0.12226274E+01</totfact>
</mgrwt>
</event>
<event>
 5    1  0.8459321E-003  0.4027927E+02  0.7546771E-02  0.1601663E+00
          2   -1    0    0  502    0  0.00000000000E+00  0.00000000000E+00  0.46162730907E+02  0.46162730907E+02  0.00000000000E+00 0. -1.
          1   -1    0    0  501    0 -0.00000000000E+00 -0.00000000000E+00 -0.16938092620E+04  0.16938092620E+04  0.00000000000E+00 0. -1.
         25    1    1    2    0    0 -0.15128967555E+02 -0.24388834507E+02 -0.64671905523E+03  0.65931345907E+03  0.12500000000E+03 0.  0.
          2    1    1    2  501    0  0.36424667843E+02  0.19416092063E+02 -0.10373523199E+04  0.10381731920E+04  0.00000000000E+00 0. -1.
          1    1    1    2  502    0 -0.21295700287E+02  0.49727424440E+01  0.36424843956E+02  0.42485341888E+02  0.00000000000E+00 0. -1.
<mgrwt>
<rscale>  0 0.29679128E+02</rscale>
<asrwt>0</asrwt>
<pdfrwt beam="1">  1        2 0.71019576E-02 0.21868585E+02</pdfrwt>
<pdfrwt beam="2">  1        1 0.26058608E+00 0.40279271E+02</pdfrwt>
<totfact> 0.71335272E+02</totfact>
</mgrwt>
</event>
<event>
 5    1  0.8459321E-003  0.6870176E+02  0.7546771E-02  0.1500284E+00
         -2   -1    0    0    0  501 -0.00000000000E+00  0.00000000000E+00  0.10775384398E+03  0.10775384398E+03  0.00000000000E+00 0.  1.
          2   -1    0    0  502    0  0.00000000000E+00 -0.00000000000E+00 -0.75554958639E+03  0.75554958639E+03  0.00000000000E+00 0. -1.
         25    1    1    2    0    0 -0.77336812709E+02 -0.33068718978E+02 -0.20634528424E+03  0.25549539938E+03  0.12500000000E+03 0.  0.
          1    1    1    2  502    0  0.66638637506E+02  0.10933373617E+02 -0.52058285417E+03  0.52494452537E+03  0.00000000000E+00 0. -1.
         -1    1    1    2    0  501  0.10698175203E+02  0.22135345361E+02  0.79132396000E+02  0.82863505620E+02  0.00000000000E+00 0.  1.
<mgrwt>
<rscale>  0 0.41097881E+02</rscale>
<asrwt>0</asrwt>
<pdfrwt beam="2">  1        2 0.11623840E+00 0.68701758E+02</pdfrwt>
<pdfrwt beam="1">  1       -2 0.16577514E-01 0.24585046E+02</pdfrwt>
<totfact> 0.10257395E+03</totfact>
</mgrwt>
</event>
<event>
 5    1  0.8459321E-003  0.3861228E+02  0.7546771E-02  0.1544073E+00
          1   -1    0    0  502    0  0.00000000000E+00  0.00000000000E+00  0.78229777655E+03  0.78229777655E+03  0.00000000000E+00 0. -1.
         -1   -1    0    0    0  501 -0.00000000000E+00 -0.00000000000E+00 -0.14871275139E+02  0.14871275139E+02  0.00000000000E+00 0.  1.
         25    1    1    2    0    0  0.21202305003E+02  0.95229096980E+01  0.35880793524E+03  0.38066830435E+03  0.12500000000E+03 0.  0.
          2    1    1    2  502    0 -0.10393465356E+02 -0.40349196859E+02  0.30559251764E+03  0.30841995501E+03  0.00000000000E+00 0. -1.
         -2    1    1    2    0  501 -0.10808839647E+02  0.30826287161E+02  0.10302604853E+03  0.10808079233E+03  0.00000000000E+00 0.  1.
<mgrwt>
<rscale>  0 0.35515103E+02</rscale>
<asrwt>0</asrwt>
<pdfrwt beam="1">  1        1 0.12035347E+00 0.38612279E+02</pdfrwt>
<pdfrwt beam="2">  1       -1 0.22878891E-02 0.32666359E+02</pdfrwt>
<totfact> 0.11178077E+04</totfact>
</mgrwt>
</event>
<event>
 5    1  0.8459321E-003  0.1436635E+03  0.7546771E-02  0.1349726E+00
          1   -1    0    0  502    0  0.00000000000E+00  0.00000000000E+00  0.31951006593E+03  0.31951006593E+03  0.00000000000E+00 0. -1.
         -1   -1    0    0    0  501 -0.00000000000E+00 -0.00000000000E+00 -0.63500589846E+03  0.63500589846E+03  0.00000000000E+00 0.  1.
         25    1    1    2    0    0  0.15956922120E+03  0.14603569732E+02 -0.35000290346E+02  0.20621741179E+03  0.12500000000E+03 0.  0.
          2    1    1    2  502    0 -0.14020968779E+03  0.17205409012E+02  0.21180586800E+03  0.25459086466E+03  0.00000000000E+00 0. -1.
         -2    1    1    2    0  501 -0.19359533410E+02 -0.31808978744E+02 -0.49230141019E+03  0.49370768794E+03  0.00000000000E+00 0.  1.
<mgrwt>
<rscale>  0 0.73141057E+02</rscale>
<asrwt>0</asrwt>
<pdfrwt beam="1">  1        1 0.49155395E-01 0.14366350E+03</pdfrwt>
<pdfrwt beam="2">  1       -1 0.97693215E-01 0.37237114E+02</pdfrwt>
<totfact> 0.94322086E+01</totfact>
</mgrwt>
</event>
<event>
 5    1  0.8459321E-003  0.2181805E+03  0.7546771E-02  0.1169294E+00
          1   -1    0    0  501    0 -0.00000000000E+00  0.00000000000E+00  0.46999715121E+03  0.46999715121E+03  0.00000000000E+00 0. -1.
          2   -1    0    0  502    0  0.00000000000E+00 -0.00000000000E+00 -0.11051786959E+04  0.11051786959E+04  0.00000000000E+00 0. -1.
         25    1    1    2    0    0  0.13431784060E+03  0.20249219342E+03  0.24096034631E+03  0.36432301491E+03  0.12500000000E+03 0.  0.
          2    1    1    2  501    0  0.11223240502E+02 -0.21384689397E+03  0.91058577736E+02  0.23269748552E+03  0.00000000000E+00 0. -1.
          1    1    1    2  502    0 -0.14554108110E+03  0.11354700552E+02 -0.96720046874E+03  0.97815534668E+03  0.00000000000E+00 0. -1.
<mgrwt>
<rscale>  0 0.17846770E+03</rscale>
<asrwt>0</asrwt>
<pdfrwt beam="2">  1        2 0.17002749E+00 0.14598334E+03</pdfrwt>
<pdfrwt beam="1">  1        1 0.72307255E-01 0.21818050E+03</pdfrwt>
<totfact> 0.15856913E+02</totfact>
</mgrwt>
</event>
<event>
 5    1  0.8459321E-003  0.1025808E+03  0.7546771E-02  0.1307237E+00
          2   -1    0    0  502    0  0.00000000000E+00  0.00000000000E+00  0.43567366360E+03  0.43567366360E+03  0.00000000000E+00 0. -1.
          1   -1    0    0  501    0 -0.00000000000E+00 -0.00000000000E+00 -0.24167681598E+03  0.24167681598E+03  0.00000000000E+00 0. -1.
         25    1    1    2    0    0  0.52506688823E+02 -0.15066187774E+03  0.24428477768E+03  0.31742086633E+03  0.12500000000E+03 0.  0.
          2    1    1    2  501    0 -0.29532147654E+02  0.69873260780E+02 -0.18569296293E+03  0.20058987212E+03  0.00000000000E+00 0. -1.
          1    1    1    2  502    0 -0.22974541168E+02  0.80788616962E+02  0.13540503287E+03  0.15933974112E+03  0.00000000000E+00 0. -1.
<mgrwt>
<rscale>  0 0.88213173E+02</rscale>
<asrwt>0</asrwt>
<pdfrwt beam="1">  1        2 0.67026718E-01 0.10258080E+03</pdfrwt>
<pdfrwt beam="2">  1        1 0.37181049E-01 0.75857896E+02</pdfrwt>
<totfact> 0.11368962E+03</totfact>
</mgrwt>
</event>
<event>
 5    1  0.8459321E-003  0.7846831E+02  0.7546771E-02  0.1471015E+00
          1   -1    0    0  501    0 -0.00000000000E+00  0.00000000000E+00  0.44066244537E+03  0.44066244537E+03  0.00000000000E+00 0. -1.
          2   -1    0    0  502    0  0.00000000000E+00 -0.00000000000E+00 -0.19210425601E+04  0.19210425601E+04  0.00000000000E+00 0. -1.
         25    1    1    2    0    0  0.42703935175E+02  0.85596860706E+02 -0.16813823971E+03  0.23031699089E+03  0.12500000000E+03 0.  0.
          2    1    1    2  501    0 -0.18050337581E+02 -0.76080367792E+02  0.40573856654E+03  0.41320433374E+03  0.00000000000E+00 0. -1.
          1    1    1    2  502    0 -0.24653597593E+02 -0.95164929141E+01 -0.17179804416E+04  0.17181836809E+04  0.00000000000E+00 0. -1.
<mgrwt>
<rscale>  0 0.45537326E+02</rscale>
<asrwt>0</asrwt>
<pdfrwt beam="2">  1        2 0.29554501E+00 0.26426568E+02</pdfrwt>
<pdfrwt beam="1">  1        1 0.67794222E-01 0.78468306E+02</pdfrwt>
<totfact> 0.78642098E+01</totfact>
</mgrwt>
</event>
<event>
 5    1  0.8459321E-003  0.1673640E+03  0.7546771E-02  0.1252770E+00
          2   -1    0    0  502    0  0.00000000000E+00  0.00000000000E+00  0.32431371349E+03  0.32431371349E+03  0.00000000000E+00 0. -1.
         -2   -1    0    0    0  501 -0.00000000000E+00 -0.00000000000E+00 -0.41181308072E+03  0.41181308072E+03  0.00000000000E+00 0.  1.
         25    1    1    2    0    0 -0.11230912466E+03  0.17765994660E+03  0.15589775145E+03  0.29000949125E+03  0.12500000000E+03 0.  0.
          1    1    1    2  502    0  0.91065910202E+02 -0.10251508253E+03  0.47349380573E+02  0.14506655710E+03  0.00000000000E+00 0. -1.
         -1    1    1    2    0  501  0.21243214454E+02 -0.75144864063E+02 -0.29074649926E+03  0.30105074587E+03  0.00000000000E+00 0.  1.
<mgrwt>
<rscale>  0 0.11432161E+03</rscale>
<asrwt>0</asrwt>
<pdfrwt beam="1">  1        2 0.49894418E-01 0.16736401E+03</pdfrwt>
<pdfrwt beam="2">  1       -2 0.63355858E-01 0.78089851E+02</pdfrwt>
<totfact> 0.24181148E+02</totfact>
</mgrwt>
</event>
<event>
 5    1  0.8459321E-003  0.1068679E+03  0.7546771E-02  0.1370092E+00
          2   -1    0    0  502    0  0.00000000000E+00  0.00000000000E+00  0.51309775981E+03  0.51309775981E+03  0.00000000000E+00 0. -1.
          1   -1    0    0  501    0 -0.00000000000E+00 -0.00000000000E+00 -0.23860520589E+04  0.23860520589E+04  0.00000000000E+00 0. -1.
         25    1    1    2    0    0  0.11866253787E+03  0.61356403472E+02  0.12171827387E+03  0.21974017460E+03  0.12500000000E+03 0.  0.
          2    1    1    2  501    0 -0.18148377043E+02 -0.38079119568E+02 -0.23290727846E+04  0.23294547471E+04  0.00000000000E+00 0. -1.
          1    1    1    2  502    0 -0.10051416083E+03 -0.23277283904E+02  0.33440021157E+03  0.34995489705E+03  0.00000000000E+00 0. -1.
<mgrwt>
<rscale>  0 0.67141480E+02</rscale>
<asrwt>0</asrwt>
<pdfrwt beam="1">  1        2 0.78938116E-01 0.10686786E+03</pdfrwt>
<pdfrwt beam="2">  1        1 0.36708494E+00 0.42182733E+02</pdfrwt>
<totfact> 0.20705199E+01</totfact>
</mgrwt>
</event>
<event>
 5    1  0.8459321E-003  0.2132444E+03  0.7546771E-02  0.1363692E+00
          2   -1    0    0  502    0  0.00000000000E+00  0.00000000000E+00  0.31644488543E+03  0.31644488543E+03  0.00000000000E+00 0. -1.
          1   -1    0    0  501    0 -0.00000000000E+00 -0.00000000000E+00 -0.41105105467E+03  0.41105105467E+03  0.00000000000E+00 0. -1.
         25    1    1    2    0    0 -0.19977060834E+03  0.10937357579E+02  0.18014141444E+03  0.29682292860E+03  0.12500000000E+03 0.  0.
          2    1    1    2  501    0  0.21322301277E+03 -0.28717559122E+02 -0.31687321989E+03  0.38301095135E+03  0.00000000000E+00 0. -1.
          1    1    1    2  502    0 -0.13452404424E+02  0.17780201543E+02  0.42125636209E+02  0.47662060150E+02  0.00000000000E+00 0. -1.
<mgrwt>
<rscale>  0 0.68952548E+02</rscale>
<asrwt>0</asrwt>
<pdfrwt beam="1">  1        2 0.48683829E-01 0.22295801E+02</pdfrwt>
<pdfrwt beam="2">  1        1 0.63238624E-01 0.21324436E+03</pdfrwt>
<totfact> 0.80889571E+02</totfact>
</mgrwt>
</event>
<event>
 5    1  0.8459321E-003  0.8591888E+02  0.7546771E-02  0.1314590E+00
          2   -1    0    0  502    0  0.00000000000E+00  0.00000000000E+00  0.27021153278E+03  0.27021153278E+03  0.00000000000E+00 0. -1.
          1   -1    0    0  501    0 -0.00000000000E+00 -0.00000000000E+00 -0.22032277294E+04  0.22032277294E+04  0.00000000000E+00 0. -1.
         25    1    1    2    0    0 -0.27768502440E+02  0.15412541362E+03  0.65726111003E+02  0.21088066417E+03  0.12500000000E+03 0.  0.
          2    1    1    2  501    0  0.46867080014E+02 -0.71574957867E+02 -0.21160896193E+04  0.21178183999E+04  0.00000000000E+00 0. -1.
          1    1    1    2  502    0 -0.19098577573E+02 -0.82550455756E+02  0.11734731168E+03  0.14474019818E+03  0.00000000000E+00 0. -1.
<mgrwt>
<rscale>  0 0.85322844E+02</rscale>
<asrwt>0</asrwt>
<pdfrwt beam="1">  1        2 0.41571005E-01 0.84730947E+02</pdfrwt>
<pdfrwt beam="2">  1        1 0.33895811E+00 0.85918876E+02</pdfrwt>
<totfact> 0.47759159E+01</totfact>
</mgrwt>
</event>
<event>
 5    1  0.8459321E-003  0.1618777E+03  0.7546771E-02  0.1289470E+00
          2   -1    0    0  502    0  0.00000000000E+00  0.00000000000E+00  0.33704222160E+03  0.33704222160E+03  0.00000000000E+00 0. -1.
         -2   -1    0    0    0  501 -0.00000000000E+00 -0.00000000000E+00 -0.81588131167E+03  0.81588131167E+03  0.00000000000E+00 0.  1.
         25    1    1    2    0    0  0.14403163997E+03 -0.10375783795E+02  0.33565609572E+02  0.19391859206E+03  0.12500000000E+03 0.  0.
          1    1    1    2  502    0 -0.16612847806E+03 -0.41786157214E+02  0.18913603913E+03  0.25518071137E+03  0.00000000000E+00 0. -1.
         -1    1    1    2    0  501  0.22096838096E+02  0.52161941009E+02 -0.70154073877E+03  0.70382422983E+03  0.00000000000E+00 0.  1.
<mgrwt>
<rscale>  0 0.95761443E+02</rscale>
<asrwt>0</asrwt>
<pdfrwt beam="1">  1        2 0.51852649E-01 0.16187775E+03</pdfrwt>
<pdfrwt beam="2">  1       -2 0.12552020E+00 0.56649257E+02</pdfrwt>
<totfact> 0.51383140E+01</totfact>
</mgrwt>
</event>
<event>
 5    1  0.8459321E-003  0.6638369E+02  0.7546771E-02  0.1499210E+00
         -2   -1    0    0    0  501 -0.00000000000E+00  0.00000000000E+00  0.71572602928E+02  0.71572602928E+02  0.00000000000E+00 0.  1.
          2   -1    0    0  502    0  0.00000000000E+00 -0.00000000000E+00 -0.47065254437E+03  0.47065254437E+03  0.00000000000E+00 0. -1.
         25    1    1    2    0    0  0.26525593380E+02  0.54505761410E+02 -0.26738102660E+03  0.30131727218E+03  0.12500000000E+03 0.  0.
          1    1    1    2  502    0 -0.58202135611E+01 -0.69615044019E+02 -0.17620539355E+03  0.18954806767E+03  0.00000000000E+00 0. -1.
         -1    1    1    2    0  501 -0.20705379818E+02  0.15109282608E+02  0.44506478707E+02  0.51359807450E+02  0.00000000000E+00 0.  1.
<mgrwt>
<rscale>  0 0.41249867E+02</rscale>
<asrwt>0</asrwt>
<pdfrwt beam="2">  1        2 0.72408083E-01 0.66383688E+02</pdfrwt>
<pdfrwt beam="1">  1       -2 0.11011170E-01 0.25632073E+02</pdfrwt>
<totfact> 0.32676773E+03</totfact>
</mgrwt>
</event>
<event>
 5    1  0.8459321E-003  0.6776500E+02  0.7546771E-02  0.1370370E+00
         -2   -1    0    0    0  501 -0.00000000000E+00  0.00000000000E+00  0.10252753288E+04  0.10252753288E+04  0.00000000000E+00 0.  1.
          2   -1    0    0  502    0  0.00000000000E+00 -0.00000000000E+00 -0.33558076827E+04  0.33558076827E+04  0.00000000000E+00 0. -1.
         25    1    1    2    0    0 -0.13955386972E+02  0.10475246242E+03 -0.11722729997E+04  0.11836455622E+04  0.12500000000E+03 0.  0.
          1    1    1    2  502    0  0.47790149065E+02 -0.46056425990E+02 -0.21762164538E+04  0.21772283175E+04  0.00000000000E+00 0. -1.
         -1    1    1    2    0  501 -0.33834762093E+02 -0.58696036431E+02  0.10179570996E+04  0.10202091317E+04  0.00000000000E+00 0.  1.
<mgrwt>
<rscale>  0 0.67064312E+02</rscale>
<asrwt>0</asrwt>
<pdfrwt beam="2">  1        2 0.51627811E+00 0.66370873E+02</pdfrwt>
<pdfrwt beam="1">  1       -2 0.15773467E+00 0.67764997E+02</pdfrwt>
<totfact> 0.48953518E-01</totfact>
</mgrwt>
</event>
<event>
 5    1  0.8459321E-003  0.5662153E+02  0.7546771E-02  0.1528202E+00
         -1   -1    0    0    0  501 -0.00000000000E+00  0.00000000000E+00  0.16681336077E+03  0.16681336077E+03  0.00000000000E+00 0.  1.
          1   -1    0    0  502    0  0.00000000000E+00 -0.00000000000E+00 -0.80313207375E+03  0.80313207375E+03  0.00000000000E+00 0. -1.
         25    1    1    2    0    0  0.79689342329E+02  0.14139130130E+02 -0.40061058694E+03  0.42739226555E+03  0.12500000000E+03 0.  0.
          2    1    1    2  502    0 -0.24587184985E+02 -0.25011767167E+01 -0.38355128895E+03  0.38434668830E+03  0.00000000000E+00 0. -1.
         -2    1    1    2    0  501 -0.55102157345E+02 -0.11637953413E+02  0.14784316292E+03  0.15820648067E+03  0.00000000000E+00 0.  1.
<mgrwt>
<rscale>  0 0.37407869E+02</rscale>
<asrwt>0</asrwt>
<pdfrwt beam="2">  1        1 0.12355878E+00 0.24714076E+02</pdfrwt>
<pdfrwt beam="1">  1       -1 0.25663594E-01 0.56621525E+02</pdfrwt>
<totfact> 0.33462012E+02</totfact>
</mgrwt>
</event>
<event>
 5    1  0.8459321E-003  0.4137690E+02  0.7546771E-02  0.1565150E+00
         -1   -1    0    0    0  501 -0.00000000000E+00  0.00000000000E+00  0.93324225510E+01  0.93324225510E+01  0.00000000000E+00 0.  1.
          1   -1    0    0  502    0  0.00000000000E+00 -0.00000000000E+00 -0.17039116120E+04  0.17039116120E+04  0.00000000000E+00 0. -1.
         25    1    1    2    0    0 -0.50770309427E+01 -0.43151281242E+01 -0.13833047280E+04  0.13889569349E+04  0.12500000000E+03 0.  0.
          2    1    1    2  502    0  0.24546263832E+01  0.45608845289E+02 -0.20953872113E+03  0.21445901150E+03  0.00000000000E+00 0. -1.
         -2    1    1    2    0  501  0.26224045595E+01 -0.41293717164E+02 -0.10173574028E+03  0.10982808809E+03  0.00000000000E+00 0.  1.
<mgrwt>
<rscale>  0 0.33204343E+02</rscale>
<asrwt>0</asrwt>
<pdfrwt beam="2">  1        1 0.26214021E+00 0.26645986E+02</pdfrwt>
<pdfrwt beam="1">  1       -1 0.14357575E-02 0.41376903E+02</pdfrwt>
<totfact> 0.57642488E+03</totfact>
</mgrwt>
</event>
<event>
 5    1  0.8459321E-003  0.8472512E+02  0.7546771E-02  0.1415600E+00
          2   -1    0    0  502    0  0.00000000000E+00  0.00000000000E+00  0.38386550195E+03  0.38386550195E+03  0.00000000000E+00 0. -1.
          1   -1    0    0  501    0 -0.00000000000E+00 -0.00000000000E+00 -0.42193980327E+03  0.42193980327E+03  0.00000000000E+00 0. -1.
         25    1    1    2    0    0  0.71495015378E+02 -0.52202329277E+02 -0.21581985455E+03  0.26465039207E+03  0.12500000000E+03 0.  0.
          2    1    1    2  501    0 -0.29914425914E+02 -0.21714095282E+02 -0.17474168093E+03  0.17860859405E+03  0.00000000000E+00 0. -1.
          1    1    1    2  502    0 -0.41580589463E+02  0.73916424559E+02  0.35248723417E+03  0.36254631910E+03  0.00000000000E+00 0. -1.
<mgrwt>
<rscale>  0 0.55962685E+02</rscale>
<asrwt>0</asrwt>
<pdfrwt beam="1">  1        2 0.59056231E-01 0.84725115E+02</pdfrwt>
<pdfrwt beam="2">  1        1 0.64913816E-01 0.36964507E+02</pdfrwt>
<totfact> 0.66542045E+02</totfact>
</mgrwt>
</event>
<event>
 5    1  0.8459321E-003  0.1024058E+03  0.7546771E-02  0.1465742E+00
          2   -1    0    0  502    0  0.00000000000E+00  0.00000000000E+00  0.29838447657E+03  0.29838447657E+03  0.00000000000E+00 0. -1.
          1   -1    0    0  501    0 -0.00000000000E+00 -0.00000000000E+00 -0.62675405201E+03  0.62675405201E+03  0.00000000000E+00 0. -1.
         25    1    1    2    0    0 -0.29456065424E+02 -0.83833201317E+02  0.56803229282E+02  0.16354593327E+03  0.12500000000E+03 0.  0.
          2    1    1    2  501    0  0.17962254956E+02  0.10144506386E+03 -0.56814783154E+03  0.57741293895E+03  0.00000000000E+00 0. -1.
          1    1    1    2  502    0  0.11493810469E+02 -0.17611862548E+02  0.18297502681E+03  0.18417965636E+03  0.00000000000E+00 0. -1.
<mgrwt>
<rscale>  0 0.46407465E+02</rscale>
<asrwt>0</asrwt>
<pdfrwt beam="1">  1        2 0.45905304E-01 0.21030582E+02</pdfrwt>
<pdfrwt beam="2">  1        1 0.96423700E-01 0.10240576E+03</pdfrwt>
<totfact> 0.50035291E+02</totfact>
</mgrwt>
</event>
<event>
 5    1  0.8459321E-003  0.9846471E+02  0.7546771E-02  0.1313948E+00
          2   -1    0    0  502    0  0.00000000000E+00  0.00000000000E+00  0.51515628393E+03  0.51515628393E+03  0.00000000000E+00 0. -1.
         -2   -1    0    0    0  501 -0.00000000000E+00 -0.00000000000E+00 -0.35792857357E+03  0.35792857357E+03  0.00000000000E+00 0.  1.
         25    1    1    2    0    0  0.30216733454E+01  0.50076590990E+02  0.76397050797E+02  0.15484929721E+03  0.12500000000E+03 0.  0.
          1    1    1    2  502    0 -0.68252040109E+02  0.29525671146E+02  0.38759693181E+03  0.39466629928E+03  0.00000000000E+00 0. -1.
         -1    1    1    2    0  501  0.65230366763E+02 -0.79602262136E+02 -0.30676627225E+03  0.32356926102E+03  0.00000000000E+00 0.  1.
<mgrwt>
<rscale>  0 0.85570421E+02</rscale>
<asrwt>0</asrwt>
<pdfrwt beam="1">  1        2 0.79254813E-01 0.74364684E+02</pdfrwt>
<pdfrwt beam="2">  1       -2 0.55065935E-01 0.98464710E+02</pdfrwt>
<totfact> 0.19702847E+02</totfact>
</mgrwt>
</event>
<event>
 5    1  0.8459321E-003  0.7366236E+02  0.7546771E-02  0.1408428E+00
          1   -1    0    0  501    0 -0.00000000000E+00  0.00000000000E+00  0.55022414203E+03  0.55022414203E+03  0.00000000000E+00 0. -1.
          2   -1    0    0  502    0  0.00000000000E+00 -0.00000000000E+00 -0.68248069805E+03  0.68248069805E+03  0.00000000000E+00 0. -1.
         25    1    1    2    0    0  0.80843868206E+02 -0.64162678489E+02  0.18694964353E+03  0.24744241664E+03  0.12500000000E+03 0.  0.
          2    1    1    2  501    0 -0.10279727191E+02  0.43764863582E+02  0.32942855799E+03  0.33248189559E+03  0.00000000000E+00 0. -1.
          1    1    1    2  502    0 -0.70564141015E+02  0.20397814907E+02 -0.64863475754E+03  0.65278052785E+03  0.00000000000E+00 0. -1.
<mgrwt>
<rscale>  0 0.57546157E+02</rscale>
<asrwt>0</asrwt>
<pdfrwt beam="2">  1        2 0.10499703E+00 0.73662358E+02</pdfrwt>
<pdfrwt beam="1">  1        1 0.84649869E-01 0.44955935E+02</pdfrwt>
<totfact> 0.25649083E+02</totfact>
</mgrwt>
</event>
<event>
 5    1  0.8459321E-003  0.3552663E+02  0.7546771E-02  0.1595967E+00
          1   -1    0    0  501    0 -0.00000000000E+00  0.00000000000E+00  0.13205048681E+03  0.13205048681E+03  0.00000000000E+00 0. -1.
          2   -1    0    0  502    0  0.00000000000E+00 -0.00000000000E+00 -0.20078140353E+04  0.20078140353E+04  0.00000000000E+00 0. -1.
         25    1    1    2    0    0 -0.23060457647E+02 -0.29393980145E+02 -0.43413772465E+03  0.45331705763E+03  0.12500000000E+03 0.  0.
          2    1    1    2  501    0  0.34941993215E+02  0.66508136392E+01  0.11977036180E+03  0.12494044892E+03  0.00000000000E+00 0. -1.
          1    1    1    2  502    0 -0.11881535568E+02  0.22743166506E+02 -0.15613961856E+04  0.15616070155E+04  0.00000000000E+00 0. -1.
<mgrwt>
<rscale>  0 0.30192784E+02</rscale>
<asrwt>0</asrwt>
<pdfrwt beam="2">  1        2 0.30889444E+00 0.25659745E+02</pdfrwt>
<pdfrwt beam="1">  1        1 0.20315461E-01 0.35526627E+02</pdfrwt>
<totfact> 0.30455338E+02</totfact>
</mgrwt>
</event>
<event>
 5    1  0.8459321E-003  0.5654475E+02  0.7546771E-02  0.1477770E+00
          1   -1    0    0  501    0 -0.00000000000E+00  0.00000000000E+00  0.16528058963E+02  0.16528058963E+02  0.00000000000E+00 0. -1.
          2   -1    0    0  502    0  0.00000000000E+00 -0.00000000000E+00 -0.13536320504E+04  0.13536320504E+04  0.00000000000E+00 0. -1.
         25    1    1    2    0    0  0.83080501822E+02 -0.14370364923E+02 -0.69397682512E+03  0.71016738236E+03  0.12500000000E+03 0.  0.
          2    1    1    2  501    0 -0.48816578371E+02  0.21266307942E+02 -0.81960034129E+02  0.97738228814E+02  0.00000000000E+00 0. -1.
          1    1    1    2  502    0 -0.34263923451E+02 -0.68959430189E+01 -0.56116713223E+03  0.56225449823E+03  0.00000000000E+00 0. -1.
<mgrwt>
<rscale>  0 0.44455530E+02</rscale>
<asrwt>0</asrwt>
<pdfrwt beam="2">  1        2 0.20825108E+00 0.34950973E+02</pdfrwt>
<pdfrwt beam="1">  1        1 0.25427784E-02 0.56544755E+02</pdfrwt>
<totfact> 0.92736618E+03</totfact>
</mgrwt>
</event>
<event>
 5    1  0.8459321E-003  0.8733991E+02  0.7546771E-02  0.1360991E+00
          1   -1    0    0  501    0 -0.00000000000E+00  0.00000000000E+00  0.17164123504E+04  0.17164123504E+04  0.00000000000E+00 0. -1.
          2   -1    0    0  502    0  0.00000000000E+00 -0.00000000000E+00 -0.71585725668E+02  0.71585725668E+02  0.00000000000E+00 0. -1.
         25    1    1    2    0    0  0.86320069578E+02 -0.11014432935E+03  0.54080082768E+03  0.57242769231E+03  0.12500000000E+03 0.  0.
          2    1    1    2  501    0 -0.33106914955E+02  0.44769962758E+02  0.11268629392E+04  0.11282377857E+04  0.00000000000E+00 0. -1.
          1    1    1    2  502    0 -0.53213154623E+02  0.65374366588E+02 -0.22837142093E+02  0.87332598098E+02  0.00000000000E+00 0. -1.
<mgrwt>
<rscale>  0 0.69736703E+02</rscale>
<asrwt>0</asrwt>
<pdfrwt beam="2">  1        2 0.11013190E-01 0.87339910E+02</pdfrwt>
<pdfrwt beam="1">  1        1 0.26406341E+00 0.55681392E+02</pdfrwt>
<totfact> 0.44311842E+02</totfact>
</mgrwt>
</event>
<event>
 5    1  0.8459321E-003  0.4026912E+02  0.7546771E-02  0.1587083E+00
          1   -1    0    0  501    0 -0.00000000000E+00  0.00000000000E+00  0.56071100343E+03  0.56071100343E+03  0.00000000000E+00 0. -1.
          2   -1    0    0  502    0  0.00000000000E+00 -0.00000000000E+00 -0.86276097254E+03  0.86276097254E+03  0.00000000000E+00 0. -1.
         25    1    1    2    0    0 -0.38915705100E+02  0.31049910644E+02  0.15488202280E+03  0.20516327654E+03  0.12500000000E+03 0.  0.
          2    1    1    2  501    0  0.23132694352E+02  0.59869026637E+01  0.37982894416E+03  0.38057980947E+03  0.00000000000E+00 0. -1.
          1    1    1    2  502    0  0.15783010749E+02 -0.37036813308E+02 -0.83676093607E+03  0.83772888997E+03  0.00000000000E+00 0. -1.
<mgrwt>
<rscale>  0 0.31019754E+02</rscale>
<asrwt>0</asrwt>
<pdfrwt beam="2">  1        2 0.13273246E+00 0.40269118E+02</pdfrwt>
<pdfrwt beam="1">  1        1 0.86263232E-01 0.23894865E+02</pdfrwt>
<totfact> 0.19771775E+02</totfact>
</mgrwt>
</event>
<event>
 5    1  0.8459321E-003  0.1293097E+03  0.7546771E-02  0.1352706E+00
          2   -1    0    0  502    0  0.00000000000E+00  0.00000000000E+00  0.19998058131E+04  0.19998058131E+04  0.00000000000E+00 0. -1.
         -2   -1    0    0    0  501 -0.00000000000E+00 -0.00000000000E+00 -0.38224281229E+02  0.38224281229E+02  0.00000000000E+00 0.  1.
         25    1    1    2    0    0  0.12194822219E+03  0.81751297420E+02  0.15629159082E+04  0.15747653094E+04  0.12500000000E+03 0.  0.
          1    1    1    2  502    0 -0.83524812429E+02 -0.69484250583E+02  0.40770225809E+03  0.42193078416E+03  0.00000000000E+00 0. -1.
         -1    1    1    2    0  501 -0.38423409759E+02 -0.12267046837E+02 -0.90366344577E+01  0.41334000749E+02  0.00000000000E+00 0.  1.
<mgrwt>
<rscale>  0 0.72219023E+02</rscale>
<asrwt>0</asrwt>
<pdfrwt beam="1">  1        2 0.30766235E+00 0.12930965E+03</pdfrwt>
<pdfrwt beam="2">  1       -2 0.58806602E-02 0.40334090E+02</pdfrwt>
<totfact> 0.10337289E+03</totfact>
</mgrwt>
</event>
<event>
 5    1  0.8459321E-003  0.6599623E+02  0.7546771E-02  0.1421670E+00
          1   -1    0    0  501    0 -0.00000000000E+00  0.00000000000E+00  0.16417698440E+04  0.16417698440E+04  0.00000000000E+00 0. -1.
          2   -1    0    0  502    0  0.00000000000E+00 -0.00000000000E+00 -0.28582621943E+03  0.28582621943E+03  0.00000000000E+00 0. -1.
         25    1    1    2    0    0  0.71860724670E+02 -0.29045655277E+02  0.40093346431E+03  0.42706001527E+03  0.12500000000E+03 0.  0.
          2    1    1    2  501    0 -0.77014930635E+01  0.44626394900E+02  0.12233526215E+04  0.12241905345E+04  0.00000000000E+00 0. -1.
          1    1    1    2  502    0 -0.64159231607E+02 -0.15580739623E+02 -0.26834246123E+03  0.27634551371E+03  0.00000000000E+00 0. -1.
<mgrwt>
<rscale>  0 0.54669094E+02</rscale>
<asrwt>0</asrwt>
<pdfrwt beam="2">  1        2 0.43973266E-01 0.65996230E+02</pdfrwt>
<pdfrwt beam="1">  1        1 0.25257997E+00 0.45286070E+02</pdfrwt>
<totfact> 0.10832788E+02</totfact>
</mgrwt>
</event>
<event>
 5    1  0.8459321E-003  0.8411522E+02  0.7546771E-02  0.1348547E+00
          2   -1    0    0  502    0  0.00000000000E+00  0.00000000000E+00  0.14585203656E+03  0.14585203656E+03  0.00000000000E+00 0. -1.
          1   -1    0    0  501    0 -0.00000000000E+00 -0.00000000000E+00 -0.96853667423E+03  0.96853667423E+03  0.00000000000E+00 0. -1.
         25    1    1    2    0    0 -0.94238077183E+02 -0.10710658008E+03 -0.30858639390E+03  0.36221981888E+03  0.12500000000E+03 0.  0.
          2    1    1    2  501    0  0.48473335227E+02  0.62021609954E+02 -0.62179990970E+03  0.62676269196E+03  0.00000000000E+00 0. -1.
          1    1    1    2  502    0  0.45764741956E+02  0.45084970128E+02  0.10770166593E+03  0.12540619994E+03  0.00000000000E+00 0. -1.
<mgrwt>
<rscale>  0 0.73510206E+02</rscale>
<asrwt>0</asrwt>
<pdfrwt beam="1">  1        2 0.22438775E-01 0.64242246E+02</pdfrwt>
<pdfrwt beam="2">  1        1 0.14900564E+00 0.84115216E+02</pdfrwt>
<totfact> 0.57458730E+02</totfact>
</mgrwt>
</event>
<event>
 5    1  0.8459321E-003  0.2645638E+03  0.7546771E-02  0.1170536E+00
          2   -1    0    0  502    0  0.00000000000E+00  0.00000000000E+00  0.15668826320E+04  0.15668826320E+04  0.00000000000E+00 0. -1.
          1   -1    0    0  501    0 -0.00000000000E+00 -0.00000000000E+00 -0.15209685933E+04  0.15209685933E+04  0.00000000000E+00 0. -1.
         25    1    1    2    0    0  0.31535129743E+03  0.20314696228E+03 -0.69195572382E+03  0.79695850131E+03  0.12500000000E+03 0.  0.
          2    1    1    2  501    0 -0.78509147099E+02 -0.89016266901E+02 -0.76046269776E+03  0.76966947233E+03  0.00000000000E+00 0. -1.
          1    1    1    2  502    0 -0.23684215033E+03 -0.11413069538E+03  0.14983324602E+04  0.15212232516E+04  0.00000000000E+00 0. -1.
<mgrwt>
<rscale>  0 0.17720432E+03</rscale>
<asrwt>0</asrwt>
<pdfrwt beam="1">  1        2 0.24105887E+00 0.26456378E+03</pdfrwt>
<pdfrwt beam="2">  1        1 0.23399517E+00 0.11869112E+03</pdfrwt>
<totfact> 0.13001434E+01</totfact>
</mgrwt>
</event>
<event>
 5    1  0.8459321E-003  0.5314442E+02  0.7546771E-02  0.1435122E+00
          1   -1    0    0  502    0  0.00000000000E+00  0.00000000000E+00  0.16040173609E+04  0.16040173609E+04  0.00000000000E+00 0. -1.
         -1   -1    0    0    0  501 -0.00000000000E+00 -0.00000000000E+00 -0.22974479162E+03  0.22974479162E+03  0.00000000000E+00 0.  1.
         25    1    1    2    0    0  0.64980957776E+02  0.56618775897E+02  0.71699723876E+01  0.15200203670E+03  0.12500000000E+03 0.  0.
          2    1    1    2  502    0 -0.50330574475E+02 -0.66917960916E+01  0.15196937225E+04  0.15205416657E+04  0.00000000000E+00 0. -1.
         -2    1    1    2    0  501 -0.14650383302E+02 -0.49926979805E+02 -0.15259112562E+03  0.16121845013E+03  0.00000000000E+00 0.  1.
<mgrwt>
<rscale>  0 0.51945427E+02</rscale>
<asrwt>0</asrwt>
<pdfrwt beam="1">  1        1 0.24677190E+00 0.50773486E+02</pdfrwt>
<pdfrwt beam="2">  1       -1 0.35345353E-01 0.53144419E+02</pdfrwt>
<totfact> 0.55418955E+01</totfact>
</mgrwt>
</event>
<event>
 5    1  0.8459321E-003  0.9478143E+02  0.7546771E-02  0.1331275E+00
          2   -1    0    0  502    0  0.00000000000E+00  0.00000000000E+00  0.61779205317E+03  0.61779205317E+03  0.00000000000E+00 0. -1.
          1   -1    0    0  501    0 -0.00000000000E+00 -0.00000000000E+00 -0.17105998762E+04  0.17105998762E+04  0.00000000000E+00 0. -1.
         25    1    1    2    0    0 -0.14575542243E+03  0.50056508948E+02 -0.45194675568E+03  0.49359008015E+03  0.12500000000E+03 0.  0.
          2    1    1    2  501    0  0.88692302938E+02 -0.16465142882E+02 -0.12343442696E+04  0.12376361345E+04  0.00000000000E+00 0. -1.
          1    1    1    2  502    0  0.57063119490E+02 -0.33591366066E+02  0.59348320225E+03  0.59716571472E+03  0.00000000000E+00 0. -1.
<mgrwt>
<rscale>  0 0.79221601E+02</rscale>
<asrwt>0</asrwt>
<pdfrwt beam="1">  1        2 0.95044930E-01 0.66216157E+02</pdfrwt>
<pdfrwt beam="2">  1        1 0.26316921E+00 0.94781429E+02</pdfrwt>
<totfact> 0.40150885E+01</totfact>
</mgrwt>
</event>
<event>
 5    1  0.8459321E-003  0.9350799E+02  0.7546771E-02  0.1339025E+00
          2   -1    0    0  502    0  0.00000000000E+00  0.00000000000E+00  0.21620561943E+03  0.21620561943E+03  0.00000000000E+00 0. -1.
          1   -1    0    0  501    0 -0.00000000000E+00 -0.00000000000E+00 -0.53221531277E+03  0.53221531277E+03  0.00000000000E+00 0. -1.
         25    1    1    2    0    0 -0.24960952807E+02 -0.12313612650E+03 -0.20313414707E+00  0.17723034751E+03  0.12500000000E+03 0.  0.
          2    1    1    2  501    0  0.59550435982E+02  0.70806183142E+02 -0.43057253111E+03  0.44040035712E+03  0.00000000000E+00 0. -1.
          1    1    1    2  502    0 -0.34589483175E+02  0.52329943357E+02  0.11476597192E+03  0.13079022757E+03  0.00000000000E+00 0. -1.
<mgrwt>
<rscale>  0 0.76587265E+02</rscale>
<asrwt>0</asrwt>
<pdfrwt beam="1">  1        2 0.33262403E-01 0.62728425E+02</pdfrwt>
<pdfrwt beam="2">  1        1 0.81879278E-01 0.93507993E+02</pdfrwt>
<totfact> 0.88574231E+02</totfact>
</mgrwt>
</event>
<event>
 5    1  0.8459321E-003  0.1229569E+03  0.7546771E-02  0.1295082E+00
          2   -1    0    0  502    0  0.00000000000E+00  0.00000000000E+00  0.17653840405E+04  0.17653840405E+04  0.00000000000E+00 0. -1.
          1   -1    0    0  501    0 -0.00000000000E+00 -0.00000000000E+00 -0.68875514492E+03  0.68875514492E+03  0.00000000000E+00 0. -1.
         25    1    1    2    0    0  0.11247614139E+03 -0.58552106962E+02 -0.19986945559E+02  0.17917508087E+03  0.12500000000E+03 0.  0.
          2    1    1    2  501    0 -0.12365994845E+03 -0.11334946127E+02 -0.58187690363E+03  0.59497982725E+03  0.00000000000E+00 0. -1.
          1    1    1    2  502    0  0.11183807057E+02  0.69887053089E+02  0.16784927448E+04  0.16799842773E+04  0.00000000000E+00 0. -1.
<mgrwt>
<rscale>  0 0.93286794E+02</rscale>
<asrwt>0</asrwt>
<pdfrwt beam="1">  1        2 0.27159754E+00 0.70776251E+02</pdfrwt>
<pdfrwt beam="2">  1        1 0.10596233E+00 0.12295686E+03</pdfrwt>
<totfact> 0.45860291E+01</totfact>
</mgrwt>
</event>
<event>
 5    1  0.8459321E-003  0.3307789E+02  0.7546771E-02  0.1614770E+00
          1   -1    0    0  501    0 -0.00000000000E+00  0.00000000000E+00  0.37461829396E+03  0.37461829396E+03  0.00000000000E+00 0. -1.
          2   -1    0    0  502    0  0.00000000000E+00 -0.00000000000E+00 -0.85454237340E+02  0.85454237340E+02  0.00000000000E+00 0. -1.
         25    1    1    2    0    0  0.25882300310E+02 -0.88290006999E+01  0.16974547346E+03  0.21257085991E+03  0.12500000000E+03 0.  0.
          2    1    1    2  501    0 -0.11956483678E+02 -0.21533944828E+02  0.17819874355E+03  0.17989291393E+03  0.00000000000E+00 0. -1.
          1    1    1    2  502    0 -0.13925816632E+02  0.30362945528E+02 -0.58780160386E+02  0.67608757457E+02  0.00000000000E+00 0. -1.
<mgrwt>
<rscale>  0 0.28543466E+02</rscale>
<asrwt>0</asrwt>
<pdfrwt beam="2">  1        2 0.13146806E-01 0.33077888E+02</pdfrwt>
<pdfrwt beam="1">  1        1 0.57633583E-01 0.24630637E+02</pdfrwt>
<totfact> 0.37024282E+03</totfact>
</mgrwt>
</event>
<event>
 5    1  0.8459321E-003  0.2286755E+03  0.7546771E-02  0.1293078E+00
          1   -1    0    0  501    0 -0.00000000000E+00  0.00000000000E+00  0.93785051141E+03  0.93785051141E+03  0.00000000000E+00 0. -1.
          2   -1    0    0  502    0  0.00000000000E+00 -0.00000000000E+00 -0.31757102587E+03  0.31757102587E+03  0.00000000000E+00 0. -1.
         25    1    1    2    0    0 -0.19291881671E+03  0.17981585487E+03 -0.74919076537E+02  0.30131259438E+03  0.12500000000E+03 0.  0.
          2    1    1    2  501    0  0.16001674108E+03 -0.15930468820E+03  0.80583727001E+03  0.83687337564E+03  0.00000000000E+00 0. -1.
          1    1    1    2  502    0  0.32902075631E+02 -0.20511166667E+02 -0.11063870793E+03  0.11723556726E+03  0.00000000000E+00 0. -1.
<mgrwt>
<rscale>  0 0.94160335E+02</rscale>
<asrwt>0</asrwt>
<pdfrwt beam="2">  1        2 0.48857081E-01 0.38771827E+02</pdfrwt>
<pdfrwt beam="1">  1        1 0.14428469E+00 0.22867555E+03</pdfrwt>
<totfact> 0.25070006E+02</totfact>
</mgrwt>
</event>
<event>
 5    1  0.8459321E-003  0.1455513E+03  0.7546771E-02  0.1308581E+00
          1   -1    0    0  501    0 -0.00000000000E+00  0.00000000000E+00  0.42423925283E+03  0.42423925283E+03  0.00000000000E+00 0. -1.
          2   -1    0    0  502    0  0.00000000000E+00 -0.00000000000E+00 -0.15795167214E+04  0.15795167214E+04  0.00000000000E+00 0. -1.
         25    1    1    2    0    0 -0.34345730903E+02  0.96762993326E+02 -0.17987128936E+02  0.16276130657E+03  0.12500000000E+03 0.  0.
          2    1    1    2  501    0  0.35041803747E+02 -0.14957114205E+03  0.33458795171E+03  0.36816918933E+03  0.00000000000E+00 0. -1.
          1    1    1    2  502    0 -0.69607284447E+00  0.52808148727E+02 -0.14718782913E+04  0.14728254783E+04  0.00000000000E+00 0. -1.
<mgrwt>
<rscale>  0 0.87675323E+02</rscale>
<asrwt>0</asrwt>
<pdfrwt beam="2">  1        2 0.24300257E+00 0.52812736E+02</pdfrwt>
<pdfrwt beam="1">  1        1 0.65267577E-01 0.14555130E+03</pdfrwt>
<totfact> 0.11053735E+02</totfact>
</mgrwt>
</event>
<event>
 5    1  0.8459321E-003  0.8766610E+02  0.7546771E-02  0.1442212E+00
          2   -1    0    0  502    0  0.00000000000E+00  0.00000000000E+00  0.52872651452E+02  0.52872651452E+02  0.00000000000E+00 0. -1.
          1   -1    0    0  501    0 -0.00000000000E+00 -0.00000000000E+00 -0.98863323544E+03  0.98863323544E+03  0.00000000000E+00 0. -1.
         25    1    1    2    0    0  0.10331501317E+03 -0.45984388183E+02 -0.38906202818E+03  0.42400803964E+03  0.12500000000E+03 0.  0.
          2    1    1    2  501    0 -0.28327631303E+02  0.70360417305E+01 -0.53069455226E+03  0.53149663064E+03  0.00000000000E+00 0. -1.
          1    1    1    2  502    0 -0.74987381866E+02  0.38948346453E+02 -0.16004003544E+02  0.86001216619E+02  0.00000000000E+00 0. -1.
<mgrwt>
<rscale>  0 0.50584878E+02</rscale>
<asrwt>0</asrwt>
<pdfrwt beam="1">  1        2 0.81342543E-02 0.87666096E+02</pdfrwt>
<pdfrwt beam="2">  1        1 0.15209742E+00 0.29188364E+02</pdfrwt>
<totfact> 0.19757720E+03</totfact>
</mgrwt>
</event>
<event>
 5    1  0.8459321E-003  0.4104862E+02  0.7546771E-02  0.1579469E+00
          1   -1    0    0  502    0  0.00000000000E+00  0.00000000000E+00  0.17546084520E+04  0.17546084520E+04  0.00000000000E+00 0. -1.
         -1   -1    0    0    0  501 -0.00000000000E+00 -0.00000000000E+00 -0.12778653989E+03  0.12778653989E+03  0.00000000000E+00 0.  1.
         25    1    1    2    0    0 -0.49725523923E+02  0.19677618157E+02  0.97979908592E+02  0.16758549721E+03  0.12500000000E+03 0.  0.
          2    1    1    2  502    0  0.22223171686E+02  0.10466374306E+02  0.16172512861E+04  0.16174378309E+04  0.00000000000E+00 0. -1.
         -2    1    1    2    0  501  0.27502352237E+02 -0.30143992463E+02 -0.88409282601E+02  0.97371663795E+02  0.00000000000E+00 0.  1.
<mgrwt>
<rscale>  0 0.31754348E+02</rscale>
<asrwt>0</asrwt>
<pdfrwt beam="1">  1        1 0.26993974E+00 0.24564494E+02</pdfrwt>
<pdfrwt beam="2">  1       -1 0.19659469E-01 0.41048622E+02</pdfrwt>
<totfact> 0.12476674E+02</totfact>
</mgrwt>
</event>
<event>
 5    1  0.8459321E-003  0.6080115E+02  0.7546771E-02  0.1466374E+00
          1   -1    0    0  501    0 -0.00000000000E+00  0.00000000000E+00  0.77575328451E+03  0.77575328451E+03  0.00000000000E+00 0. -1.
          2   -1    0    0  502    0  0.00000000000E+00 -0.00000000000E+00 -0.65827211581E+03  0.65827211581E+03  0.00000000000E+00 0. -1.
         25    1    1    2    0    0 -0.88822975604E+02  0.21886375858E+02 -0.25464609652E+03  0.29805732488E+03  0.12500000000E+03 0.  0.
          2    1    1    2  501    0  0.60672641697E+02 -0.65329703769E+00  0.75200928611E+03  0.75445315471E+03  0.00000000000E+00 0. -1.
          1    1    1    2  502    0  0.28150333906E+02 -0.21233078820E+02 -0.37988202090E+03  0.38151492073E+03  0.00000000000E+00 0. -1.
<mgrwt>
<rscale>  0 0.46301874E+02</rscale>
<asrwt>0</asrwt>
<pdfrwt beam="2">  1        2 0.10127263E+00 0.35260246E+02</pdfrwt>
<pdfrwt beam="1">  1        1 0.11934666E+00 0.60801151E+02</pdfrwt>
<totfact> 0.16969602E+02</totfact>
</mgrwt>
</event>
<event>
 5    1  0.8459321E-003  0.4960697E+02  0.7546771E-02  0.1484172E+00
          2   -1    0    0  502    0  0.00000000000E+00  0.00000000000E+00  0.18755533346E+04  0.18755533346E+04  0.00000000000E+00 0. -1.
          1   -1    0    0  501    0 -0.00000000000E+00 -0.00000000000E+00 -0.13967230296E+02  0.13967230296E+02  0.00000000000E+00 0. -1.
         25    1    1    2    0    0 -0.72019413080E+02 -0.29149714345E+02  0.53352110947E+03  0.55344943397E+03  0.12500000000E+03 0.  0.
          2    1    1    2  501    0  0.33989454765E+02  0.27201595506E+02  0.12428375904E+03  0.13168774656E+03  0.00000000000E+00 0. -1.
          1    1    1    2  502    0  0.38029958314E+02  0.19481188396E+01  0.12037812358E+04  0.12043833844E+04  0.00000000000E+00 0. -1.
<mgrwt>
<rscale>  0 0.43462910E+02</rscale>
<asrwt>0</asrwt>
<pdfrwt beam="1">  1        2 0.28854647E+00 0.38079823E+02</pdfrwt>
<pdfrwt beam="2">  1        1 0.21488061E-02 0.49606968E+02</pdfrwt>
<totfact> 0.63423087E+03</totfact>
</mgrwt>
</event>
<event>
 5    1  0.8459321E-003  0.7159602E+02  0.7546771E-02  0.1437799E+00
         -1   -1    0    0    0  501 -0.00000000000E+00  0.00000000000E+00  0.37321825763E+03  0.37321825763E+03  0.00000000000E+00 0.  1.
          1   -1    0    0  502    0  0.00000000000E+00 -0.00000000000E+00 -0.61156511395E+03  0.61156511395E+03  0.00000000000E+00 0. -1.
         25    1    1    2    0    0  0.35341021642E+02 -0.61385877687E+02  0.45573297920E+02  0.15072869426E+03  0.12500000000E+03 0.  0.
          2    1    1    2  502    0  0.89072615987E-01  0.71832847955E+02 -0.55542390815E+03  0.56004971541E+03  0.00000000000E+00 0. -1.
         -2    1    1    2    0  501 -0.35430094258E+02 -0.10446970268E+02  0.27150375391E+03  0.27400496191E+03  0.00000000000E+00 0.  1.
<mgrwt>
<rscale>  0 0.51425950E+02</rscale>
<asrwt>0</asrwt>
<pdfrwt beam="2">  1        1 0.94086940E-01 0.71596022E+02</pdfrwt>
<pdfrwt beam="1">  1       -1 0.57418194E-01 0.36938202E+02</pdfrwt>
<totfact> 0.11755607E+02</totfact>
</mgrwt>
</event>
<event>
 5    1  0.8459321E-003  0.6921124E+02  0.7546771E-02  0.1508831E+00
          2   -1    0    0  502    0  0.00000000000E+00  0.00000000000E+00  0.12302973780E+02  0.12302973780E+02  0.00000000000E+00 0. -1.
          1   -1    0    0  501    0 -0.00000000000E+00 -0.00000000000E+00 -0.22277017821E+04  0.22277017821E+04  0.00000000000E+00 0. -1.
         25    1    1    2    0    0  0.31633189980E+02  0.50637823197E+02 -0.72147443558E+03  0.73465312158E+03  0.12500000000E+03 0.  0.
          2    1    1    2  501    0 -0.12046048191E+02  0.19617312643E+02 -0.12624261438E+04  0.12626360183E+04  0.00000000000E+00 0. -1.
          1    1    1    2  502    0 -0.19587141789E+02 -0.70255135840E+02 -0.23149822894E+03  0.24271561597E+03  0.00000000000E+00 0. -1.
<mgrwt>
<rscale>  0 0.39915931E+02</rscale>
<asrwt>0</asrwt>
<pdfrwt beam="1">  1        2 0.18927662E-02 0.69211239E+02</pdfrwt>
<pdfrwt beam="2">  1        1 0.34272318E+00 0.23020561E+02</pdfrwt>
<totfact> 0.23056923E+03</totfact>
</mgrwt>
</event>
<event>
 5    1  0.8459321E-003  0.9563439E+02  0.7546771E-02  0.1367850E+00
         -2   -1    0    0    0  501 -0.00000000000E+00  0.00000000000E+00  0.39388848024E+03  0.39388848024E+03  0.00000000000E+00 0.  1.
          2   -1    0    0  502    0  0.00000000000E+00 -0.00000000000E+00 -0.91538610646E+02  0.91538610646E+02  0.00000000000E+00 0. -1.
         25    1    1    2    0    0 -0.98646479221E+02  0.60249621163E+02  0.10406121306E+03  0.19953666524E+03  0.12500000000E+03 0.  0.
          3    1    1    2  502    0  0.63298002961E+01 -0.47603214979E+02 -0.17287099088E+02  0.51038967887E+02  0.00000000000E+00 0. -1.
         -1    1    1    2    0  501  0.92316678924E+02 -0.12646406184E+02  0.21557575562E+03  0.23485145776E+03  0.00000000000E+00 0.  1.
<mgrwt>
<rscale>  0 0.67768536E+02</rscale>
<asrwt>0</asrwt>
<pdfrwt beam="2">  1        2 0.14082863E-01 0.48022208E+02</pdfrwt>
<pdfrwt beam="1">  1       -2 0.60598227E-01 0.95634388E+02</pdfrwt>
<totfact> 0.10119648E+03</totfact>
</mgrwt>
</event>
<event>
 5    1  0.8459321E-003  0.1927188E+03  0.7546771E-02  0.1289050E+00
          2   -1    0    0  502    0  0.00000000000E+00  0.00000000000E+00  0.13043874244E+04  0.13043874244E+04  0.00000000000E+00 0. -1.
          1   -1    0    0  501    0 -0.00000000000E+00 -0.00000000000E+00 -0.12486951475E+04  0.12486951475E+04  0.00000000000E+00 0. -1.
         25    1    1    2    0    0 -0.21716669237E+03  0.88325807348E+02  0.74724218003E+03  0.79306916226E+03  0.12500000000E+03 0.  0.
          2    1    1    2  501    0  0.18482840100E+03 -0.53164329825E+02 -0.12171479868E+04  0.12322488407E+04  0.00000000000E+00 0. -1.
          3    1    1    2  502    0  0.32338291369E+02 -0.35161477523E+02  0.52559808367E+03  0.52776456886E+03  0.00000000000E+00 0. -1.
<mgrwt>
<rscale>  0 0.95950116E+02</rscale>
<asrwt>0</asrwt>
<pdfrwt beam="1">  1        2 0.20067499E+00 0.47771274E+02</pdfrwt>
<pdfrwt beam="2">  1        1 0.19210695E+00 0.19271885E+03</pdfrwt>
<totfact> 0.29495911E+01</totfact>
</mgrwt>
</event>
<event>
 5    1  0.8459321E-003  0.1423362E+03  0.7546771E-02  0.1321345E+00
          2   -1    0    0  502    0  0.00000000000E+00  0.00000000000E+00  0.74229095790E+03  0.74229095790E+03  0.00000000000E+00 0. -1.
          1   -1    0    0  501    0 -0.00000000000E+00 -0.00000000000E+00 -0.21194593165E+04  0.21194593165E+04  0.00000000000E+00 0. -1.
         25    1    1    2    0    0  0.14395260981E+03 -0.24839515775E+02 -0.32455745308E+02  0.19498136018E+03  0.12500000000E+03 0.  0.
          2    1    1    2  501    0 -0.19164568075E+02 -0.44163090009E+02 -0.19977573267E+04  0.19983373077E+04  0.00000000000E+00 0. -1.
          1    1    1    2  502    0 -0.12478804174E+03  0.69002605784E+02  0.65304471334E+03  0.66843160652E+03  0.00000000000E+00 0. -1.
<mgrwt>
<rscale>  0 0.82778990E+02</rscale>
<asrwt>0</asrwt>
<pdfrwt beam="1">  1        2 0.11419861E+00 0.14233623E+03</pdfrwt>
<pdfrwt beam="2">  1        1 0.32607065E+00 0.48142073E+02</pdfrwt>
<totfact> 0.19282296E+01</totfact>
</mgrwt>
</event>
<event>
 5    1  0.8459321E-003  0.2451117E+03  0.7546771E-02  0.1295884E+00
          2   -1    0    0  502    0  0.00000000000E+00  0.00000000000E+00  0.31874411545E+04  0.31874411545E+04  0.00000000000E+00 0. -1.
         -2   -1    0    0    0  501 -0.00000000000E+00 -0.00000000000E+00 -0.37785508135E+03  0.37785508135E+03  0.00000000000E+00 0.  1.
         25    1    1    2    0    0 -0.76860273501E+01 -0.26191521197E+03  0.60161521970E+03  0.66800039360E+03  0.12500000000E+03 0.  0.
          1    1    1    2  502    0  0.35179281714E+02  0.23986968422E+03  0.25459588632E+04  0.25574756265E+04  0.00000000000E+00 0. -1.
         -1    1    1    2    0  501 -0.27493254363E+02  0.22045527748E+02 -0.33798800970E+03  0.33982021575E+03  0.00000000000E+00 0.  1.
<mgrwt>
<rscale>  0 0.92939926E+02</rscale>
<asrwt>0</asrwt>
<pdfrwt beam="1">  1        2 0.49037554E+00 0.24511172E+03</pdfrwt>
<pdfrwt beam="2">  1       -2 0.58131553E-01 0.35240379E+02</pdfrwt>
<totfact> 0.47213941E+00</totfact>
</mgrwt>
</event>
<event>
 5    1  0.8459321E-003  0.2242927E+03  0.7546771E-02  0.1250890E+00
          2   -1    0    0  502    0  0.00000000000E+00  0.00000000000E+00  0.17212639488E+04  0.17212639488E+04  0.00000000000E+00 0. -1.
          1   -1    0    0  501    0 -0.00000000000E+00 -0.00000000000E+00 -0.20798470480E+04  0.20798470480E+04  0.00000000000E+00 0. -1.
         25    1    1    2    0    0  0.21319765142E+03  0.24939018904E+02 -0.21487422305E+03  0.32843739885E+03  0.12500000000E+03 0.  0.
          2    1    1    2  501    0  0.90247546446E+01 -0.58680584289E+02 -0.18001114666E+04  0.18010902668E+04  0.00000000000E+00 0. -1.
          1    1    1    2  502    0 -0.22222240606E+03  0.33741565386E+02  0.16564025905E+04  0.16715833311E+04  0.00000000000E+00 0. -1.
<mgrwt>
<rscale>  0 0.11539659E+03</rscale>
<asrwt>0</asrwt>
<pdfrwt beam="1">  1        2 0.26480984E+00 0.22429274E+03</pdfrwt>
<pdfrwt beam="2">  1        1 0.31997647E+00 0.59370508E+02</pdfrwt>
<totfact> 0.52821774E+00</totfact>
</mgrwt>
</event>
<event>
 5    1  0.8459321E-003  0.9147737E+02  0.7546771E-02  0.1388395E+00
          2   -1    0    0  502    0  0.00000000000E+00  0.00000000000E+00  0.13980631594E+04  0.13980631594E+04  0.00000000000E+00 0. -1.
          1   -1    0    0  501    0 -0.00000000000E+00 -0.00000000000E+00 -0.20487026979E+03  0.20487026979E+03  0.00000000000E+00 0. -1.
         25    1    1    2    0    0  0.12891221065E+03 -0.27685125155E+02  0.76386166752E+02  0.19709051393E+03  0.12500000000E+03 0.  0.
          2    1    1    2  501    0 -0.39249091961E+02  0.16143433659E+02 -0.13974306683E+03  0.14604528886E+03  0.00000000000E+00 0. -1.
          1    1    1    2  502    0 -0.89663118688E+02  0.11541691496E+02  0.12565497897E+04  0.12597976264E+04  0.00000000000E+00 0. -1.
<mgrwt>
<rscale>  0 0.62307652E+02</rscale>
<asrwt>0</asrwt>
<pdfrwt beam="1">  1        2 0.21508663E+00 0.91477366E+02</pdfrwt>
<pdfrwt beam="2">  1        1 0.31518504E-01 0.42439388E+02</pdfrwt>
<totfact> 0.31593729E+02</totfact>
</mgrwt>
</event>
<event>
 5    1  0.8459321E-003  0.1514359E+03  0.7546771E-02  0.1335478E+00
          2   -1    0    0  502    0  0.00000000000E+00  0.00000000000E+00  0.21914903641E+04  0.21914903641E+04  0.00000000000E+00 0. -1.
          1   -1    0    0  501    0 -0.00000000000E+00 -0.00000000000E+00 -0.24569762771E+03  0.24569762771E+03  0.00000000000E+00 0. -1.
         25    1    1    2    0    0  0.12047903651E+03  0.57745227633E+02  0.72102846420E+03  0.74387953040E+03  0.12500000000E+03 0.  0.
          2    1    1    2  501    0  0.34202681842E+02 -0.20638302329E+02 -0.22819626112E+03  0.23166634748E+03  0.00000000000E+00 0. -1.
          1    1    1    2  502    0 -0.15468171835E+03 -0.37106925304E+02  0.14529605333E+04  0.14616421140E+04  0.00000000000E+00 0. -1.
<mgrwt>
<rscale>  0 0.77777954E+02</rscale>
<asrwt>0</asrwt>
<pdfrwt beam="1">  1        2 0.33715235E+00 0.15143590E+03</pdfrwt>
<pdfrwt beam="2">  1        1 0.37799637E-01 0.39947002E+02</pdfrwt>
<totfact> 0.95225262E+01</totfact>
</mgrwt>
</event>
<event>
 5    1  0.8459321E-003  0.1253478E+03  0.7546771E-02  0.1277221E+00
          2   -1    0    0  502    0  0.00000000000E+00  0.00000000000E+00  0.31002651222E+04  0.31002651222E+04  0.00000000000E+00 0. -1.
          1   -1    0    0  501    0 -0.00000000000E+00 -0.00000000000E+00 -0.47966524243E+02  0.47966524243E+02  0.00000000000E+00 0. -1.
         25    1    1    2    0    0 -0.10980388732E+03  0.13542974965E+03  0.10857520906E+04  0.11067432914E+04  0.12500000000E+03 0.  0.
          2    1    1    2  501    0  0.33824184760E+01 -0.82082065085E+02  0.11653588925E+02  0.82974166451E+02  0.00000000000E+00 0. -1.
          3    1    1    2  502    0  0.10642146884E+03 -0.53347684569E+02  0.19548929183E+04  0.19585141885E+04  0.00000000000E+00 0. -1.
<mgrwt>
<rscale>  0 0.10147679E+03</rscale>
<asrwt>0</asrwt>
<pdfrwt beam="1">  1        2 0.47696371E+00 0.12534780E+03</pdfrwt>
<pdfrwt beam="2">  1        1 0.73794677E-02 0.82151726E+02</pdfrwt>
<totfact> 0.24829126E+02</totfact>
</mgrwt>
</event>
<event>
 5    1  0.8459321E-003  0.7731743E+02  0.7546771E-02  0.1489330E+00
         -2   -1    0    0    0  501 -0.00000000000E+00  0.00000000000E+00  0.89081347477E+01  0.89081347477E+01  0.00000000000E+00 0.  1.
          2   -1    0    0  502    0  0.00000000000E+00 -0.00000000000E+00 -0.18500790999E+04  0.18500790999E+04  0.00000000000E+00 0. -1.
         25    1    1    2    0    0  0.64464352365E+02  0.13034563818E+02 -0.10626621426E+04  0.10720081072E+04  0.12500000000E+03 0.  0.
          1    1    1    2  502    0  0.10927644968E+02  0.20879147098E+02 -0.33525234506E+03  0.33607958444E+03  0.00000000000E+00 0. -1.
         -1    1    1    2    0  501 -0.75391997334E+02 -0.33913710917E+02 -0.44325647750E+03  0.45089954302E+03  0.00000000000E+00 0.  1.
<mgrwt>
<rscale>  0 0.42685545E+02</rscale>
<asrwt>0</asrwt>
<pdfrwt beam="2">  1        2 0.28462809E+00 0.23565912E+02</pdfrwt>
<pdfrwt beam="1">  1       -2 0.13704797E-02 0.77317430E+02</pdfrwt>
<totfact> 0.13058161E+04</totfact>
</mgrwt>
</event>
<event>
 5    1  0.8459321E-003  0.6889536E+02  0.7546771E-02  0.1404343E+00
          1   -1    0    0  502    0  0.00000000000E+00  0.00000000000E+00  0.23182460334E+04  0.23182460334E+04  0.00000000000E+00 0. -1.
         -1   -1    0    0    0  501 -0.00000000000E+00 -0.00000000000E+00 -0.92615565348E+03  0.92615565348E+03  0.00000000000E+00 0.  1.
         25    1    1    2    0    0  0.50980186016E+02 -0.85631168805E+02  0.10156415653E+04  0.10281461305E+04  0.12500000000E+03 0.  0.
          2    1    1    2  502    0  0.73895338276E+01  0.49078370839E+02  0.12945869731E+04  0.12955380050E+04  0.00000000000E+00 0. -1.
         -2    1    1    2    0  501 -0.58369719843E+02  0.36552797966E+02 -0.91813815849E+03  0.92071755132E+03  0.00000000000E+00 0.  1.
<mgrwt>
<rscale>  0 0.58475499E+02</rscale>
<asrwt>0</asrwt>
<pdfrwt beam="1">  1        1 0.35665323E+00 0.49631559E+02</pdfrwt>
<pdfrwt beam="2">  1       -1 0.14248549E+00 0.68895357E+02</pdfrwt>
<totfact> 0.12670454E+00</totfact>
</mgrwt>
</event>
<event>
 5    1  0.8459321E-003  0.1034035E+03  0.7546771E-02  0.1379749E+00
          1   -1    0    0  501    0 -0.00000000000E+00  0.00000000000E+00  0.14649578171E+04  0.14649578171E+04  0.00000000000E+00 0. -1.
          2   -1    0    0  502    0  0.00000000000E+00 -0.00000000000E+00 -0.12453048169E+03  0.12453048169E+03  0.00000000000E+00 0. -1.
         25    1    1    2    0    0  0.19884592797E+02 -0.70323125822E+02  0.94668103767E+02  0.17299649975E+03  0.12500000000E+03 0.  0.
          2    1    1    2  501    0 -0.25709525044E+01 -0.40188303378E+02  0.12940336594E+04  0.12946601180E+04  0.00000000000E+00 0. -1.
          1    1    1    2  502    0 -0.17313640292E+02  0.11051142920E+03 -0.48274427761E+02  0.12183168102E+03  0.00000000000E+00 0. -1.
<mgrwt>
<rscale>  0 0.64529881E+02</rscale>
<asrwt>0</asrwt>
<pdfrwt beam="2">  1        2 0.19158537E-01 0.10340349E+03</pdfrwt>
<pdfrwt beam="1">  1        1 0.22537811E+00 0.40270455E+02</pdfrwt>
<totfact> 0.34750218E+02</totfact>
</mgrwt>
</event>
<event>
 5    1  0.8459321E-003  0.2614999E+03  0.7546771E-02  0.1264981E+00
          2   -1    0    0  502    0  0.00000000000E+00  0.00000000000E+00  0.81652003430E+03  0.81652003430E+03  0.00000000000E+00 0. -1.
          1   -1    0    0  501    0 -0.00000000000E+00 -0.00000000000E+00 -0.13345118126E+04  0.13345118126E+04  0.00000000000E+00 0. -1.
         25    1    1    2    0    0  0.77327054953E+01  0.27658700210E+03  0.11812391752E+02  0.30384979359E+03  0.12500000000E+03 0.  0.
          2    1    1    2  501    0  0.32653569362E+02 -0.25833948924E+03 -0.11734591000E+04  0.12020032473E+04  0.00000000000E+00 0. -1.
          1    1    1    2  502    0 -0.40386274857E+02 -0.18247512856E+02  0.64365492991E+03  0.64517880600E+03  0.00000000000E+00 0. -1.
<mgrwt>
<rscale>  0 0.10765207E+03</rscale>
<asrwt>0</asrwt>
<pdfrwt beam="1">  1        2 0.12561847E+00 0.44317298E+02</pdfrwt>
<pdfrwt beam="2">  1        1 0.20530951E+00 0.26149987E+03</pdfrwt>
<totfact> 0.47290949E+01</totfact>
</mgrwt>
</event>
<event>
 5    1  0.8459321E-003  0.9447749E+02  0.7546771E-02  0.1376812E+00
         -2   -1    0    0    0  501 -0.00000000000E+00  0.00000000000E+00  0.71248251398E+02  0.71248251398E+02  0.00000000000E+00 0.  1.
          2   -1    0    0  502    0  0.00000000000E+00 -0.00000000000E+00 -0.87882929100E+03  0.87882929100E+03  0.00000000000E+00 0. -1.
         25    1    1    2    0    0 -0.52766191191E+02 -0.35881399880E+02 -0.34210546155E+03  0.36977411025E+03  0.12500000000E+03 0.  0.
          1    1    1    2  502    0  0.78266662902E+02  0.73135853068E+02 -0.50746583875E+03  0.51864834043E+03  0.00000000000E+00 0. -1.
         -1    1    1    2    0  501 -0.25500471712E+02 -0.37254453188E+02  0.41990260708E+02  0.61655091713E+02  0.00000000000E+00 0.  1.
<mgrwt>
<rscale>  0 0.65309172E+02</rscale>
<asrwt>0</asrwt>
<pdfrwt beam="2">  1        2 0.13520451E+00 0.94477487E+02</pdfrwt>
<pdfrwt beam="1">  1       -2 0.10961269E-01 0.45146078E+02</pdfrwt>
<totfact> 0.16793119E+03</totfact>
</mgrwt>
</event>
<event>
 5    1  0.8459321E-003  0.8997375E+02  0.7546771E-02  0.1383840E+00
          1   -1    0    0  501    0 -0.00000000000E+00  0.00000000000E+00  0.20356204543E+04  0.20356204543E+04  0.00000000000E+00 0. -1.
          2   -1    0    0  502    0  0.00000000000E+00 -0.00000000000E+00 -0.49095854929E+02  0.49095854929E+02  0.00000000000E+00 0. -1.
         25    1    1    2    0    0 -0.59774885340E+02  0.11324159589E+03  0.64174132179E+03  0.66622340101E+03  0.12500000000E+03 0.  0.
          2    1    1    2  501    0  0.28782802579E+02 -0.80937619468E+02  0.13661782898E+04  0.13688763521E+04  0.00000000000E+00 0. -1.
          1    1    1    2  502    0  0.30992082761E+02 -0.32303976424E+02 -0.21395012228E+02  0.49616556056E+02  0.00000000000E+00 0. -1.
<mgrwt>
<rscale>  0 0.63465161E+02</rscale>
<asrwt>0</asrwt>
<pdfrwt beam="2">  1        2 0.75532100E-02 0.44766685E+02</pdfrwt>
<pdfrwt beam="1">  1        1 0.31317231E+00 0.89973754E+02</pdfrwt>
<totfact> 0.39741863E+02</totfact>
</mgrwt>
</event>
<event>
 5    1  0.8459321E-003  0.8102399E+02  0.7546771E-02  0.1350132E+00
          2   -1    0    0  502    0  0.00000000000E+00  0.00000000000E+00  0.28692090602E+04  0.28692090602E+04  0.00000000000E+00 0. -1.
          1   -1    0    0  501    0 -0.00000000000E+00 -0.00000000000E+00 -0.36978055896E+03  0.36978055896E+03  0.00000000000E+00 0. -1.
         25    1    1    2    0    0 -0.86354317795E+02  0.10621744632E+03  0.17930869767E+03  0.25790661714E+03  0.12500000000E+03 0.  0.
          2    1    1    2  501    0  0.18656367841E+02 -0.63096653244E+02 -0.32659221530E+03  0.33315420274E+03  0.00000000000E+00 0. -1.
          3    1    1    2  502    0  0.67697949953E+02 -0.43120793078E+02  0.26467120189E+04  0.26479287993E+04  0.00000000000E+00 0. -1.
<mgrwt>
<rscale>  0 0.73014636E+02</rscale>
<asrwt>0</asrwt>
<pdfrwt beam="1">  1        2 0.44141676E+00 0.81023992E+02</pdfrwt>
<pdfrwt beam="2">  1        1 0.56889319E-01 0.65797019E+02</pdfrwt>
<totfact> 0.27704804E+01</totfact>
</mgrwt>
</event>
<event>
 5    1  0.8459321E-003  0.9171441E+02  0.7546771E-02  0.1343343E+00
          2   -1    0    0  502    0  0.00000000000E+00  0.00000000000E+00  0.81641064426E+03  0.81641064426E+03  0.00000000000E+00 0. -1.
          1   -1    0    0  501    0 -0.00000000000E+00 -0.00000000000E+00 -0.10752424185E+04  0.10752424185E+04  0.00000000000E+00 0. -1.
         25    1    1    2    0    0 -0.48167397294E+02 -0.14254464575E+03 -0.69064274928E+01  0.19573393404E+03  0.12500000000E+03 0.  0.
          2    1    1    2  501    0  0.38900888961E+02  0.81634387898E+02 -0.97050206687E+03  0.97470596297E+03  0.00000000000E+00 0. -1.
          1    1    1    2  502    0  0.92665083329E+01  0.60910257853E+02  0.71857672015E+03  0.72121316573E+03  0.00000000000E+00 0. -1.
<mgrwt>
<rscale>  0 0.75170645E+02</rscale>
<asrwt>0</asrwt>
<pdfrwt beam="1">  1        2 0.12560164E+00 0.61611100E+02</pdfrwt>
<pdfrwt beam="2">  1        1 0.16542191E+00 0.91714413E+02</pdfrwt>
<totfact> 0.76058464E+01</totfact>
</mgrwt>
</event>
<event>
 5    1  0.8459321E-003  0.1799662E+03  0.7546771E-02  0.1237097E+00
          1   -1    0    0  501    0 -0.00000000000E+00  0.00000000000E+00  0.26848355883E+03  0.26848355883E+03  0.00000000000E+00 0. -1.
          2   -1    0    0  502    0  0.00000000000E+00 -0.00000000000E+00 -0.43310484611E+03  0.43310484611E+03  0.00000000000E+00 0. -1.
         25    1    1    2    0    0 -0.23681568293E+03  0.60289961287E+02 -0.21619161405E+02  0.27533422463E+03  0.12500000000E+03 0.  0.
          2    1    1    2  501    0  0.15370835118E+03 -0.42258348543E+02  0.86595487907E+02  0.18141335058E+03  0.00000000000E+00 0. -1.
          1    1    1    2  502    0  0.83107331746E+02 -0.18031612745E+02 -0.22959761378E+03  0.24484082973E+03  0.00000000000E+00 0. -1.
<mgrwt>
<rscale>  0 0.12371137E+03</rscale>
<asrwt>0</asrwt>
<pdfrwt beam="2">  1        2 0.66631514E-01 0.85040976E+02</pdfrwt>
<pdfrwt beam="1">  1        1 0.41305163E-01 0.17996621E+03</pdfrwt>
<totfact> 0.10118068E+03</totfact>
</mgrwt>
</event>
<event>
 5    1  0.8459321E-003  0.5868908E+02  0.7546771E-02  0.1428189E+00
          2   -1    0    0  502    0  0.00000000000E+00  0.00000000000E+00  0.42300870040E+02  0.42300870040E+02  0.00000000000E+00 0. -1.
          1   -1    0    0  501    0 -0.00000000000E+00 -0.00000000000E+00 -0.11074451195E+04  0.11074451195E+04  0.00000000000E+00 0. -1.
         25    1    1    2    0    0  0.69669668906E+02 -0.47482308899E+02 -0.26070130201E+03  0.30116208475E+03  0.12500000000E+03 0.  0.
          2    1    1    2  501    0 -0.12846675866E+02  0.46717467326E+02 -0.78791183498E+03  0.78940016376E+03  0.00000000000E+00 0. -1.
          1    1    1    2  502    0 -0.56822993040E+02  0.76484157248E+00 -0.16531112444E+02  0.59183741005E+02  0.00000000000E+00 0. -1.
<mgrwt>
<rscale>  0 0.53325233E+02</rscale>
<asrwt>0</asrwt>
<pdfrwt beam="1">  1        2 0.65078251E-02 0.58689077E+02</pdfrwt>
<pdfrwt beam="2">  1        1 0.17037620E+00 0.48451613E+02</pdfrwt>
<totfact> 0.20190484E+03</totfact>
</mgrwt>
</event>
<event>
 5    1  0.8459321E-003  0.5663684E+02  0.7546771E-02  0.1504709E+00
          2   -1    0    0  502    0  0.00000000000E+00  0.00000000000E+00  0.11890312836E+03  0.11890312836E+03  0.00000000000E+00 0. -1.
          1   -1    0    0  501    0 -0.00000000000E+00 -0.00000000000E+00 -0.51955162256E+03  0.51955162256E+03  0.00000000000E+00 0. -1.
         25    1    1    2    0    0  0.34692980195E+02  0.46581928907E+02 -0.30376030230E+03  0.33356978315E+03  0.12500000000E+03 0.  0.
          2    1    1    2  501    0 -0.27255204698E+02  0.97067458829E+01 -0.19197150008E+03  0.19413944458E+03  0.00000000000E+00 0. -1.
          1    1    1    2  502    0 -0.74377754966E+01 -0.56288674790E+02  0.95083308179E+02  0.11074552320E+03  0.00000000000E+00 0. -1.
<mgrwt>
<rscale>  0 0.40479912E+02</rscale>
<asrwt>0</asrwt>
<pdfrwt beam="1">  1        2 0.18292789E-01 0.56636837E+02</pdfrwt>
<pdfrwt beam="2">  1        1 0.79931019E-01 0.28932112E+02</pdfrwt>
<totfact> 0.17825127E+03</totfact>
</mgrwt>
</event>
<event>
 5    1  0.8459321E-003  0.7364918E+02  0.7546771E-02  0.1477877E+00
          2   -1    0    0  502    0  0.00000000000E+00  0.00000000000E+00  0.96334217038E+03  0.96334217038E+03  0.00000000000E+00 0. -1.
          1   -1    0    0  501    0 -0.00000000000E+00 -0.00000000000E+00 -0.83266534020E+02  0.83266534020E+02  0.00000000000E+00 0. -1.
         25    1    1    2    0    0  0.32881629776E+02 -0.85241115728E+02  0.33344555196E+03  0.36763866161E+03  0.12500000000E+03 0.  0.
          2    1    1    2  501    0 -0.41429251147E+02  0.59826448132E+02 -0.45767090370E+02  0.85966349856E+02  0.00000000000E+00 0. -1.
          1    1    1    2  502    0  0.85476213708E+01  0.25414667597E+02  0.59239717476E+03  0.59300369293E+03  0.00000000000E+00 0. -1.
<mgrwt>
<rscale>  0 0.44438687E+02</rscale>
<asrwt>0</asrwt>
<pdfrwt beam="1">  1        2 0.14820648E+00 0.26813563E+02</pdfrwt>
<pdfrwt beam="2">  1        1 0.12810237E-01 0.73649178E+02</pdfrwt>
<totfact> 0.18138117E+03</totfact>
</mgrwt>
</event>
<event>
 5    1  0.8459321E-003  0.3866853E+02  0.7546771E-02  0.1544110E+00
         -2   -1    0    0    0  501 -0.00000000000E+00  0.00000000000E+00  0.11637074013E+03  0.11637074013E+03  0.00000000000E+00 0.  1.
          2   -1    0    0  502    0  0.00000000000E+00 -0.00000000000E+00 -0.93223206215E+03  0.93223206215E+03  0.00000000000E+00 0. -1.
         25    1    1    2    0    0 -0.40927793334E+02 -0.52481382679E+02 -0.70400223948E+03  0.71810412405E+03  0.12500000000E+03 0.  0.
          1    1    1    2  502    0  0.28404315659E+02  0.16021119162E+02 -0.21652073767E+03  0.21896280792E+03  0.00000000000E+00 0. -1.
         -1    1    1    2    0  501  0.12523477675E+02  0.36460263516E+02  0.10466165514E+03  0.11153587030E+03  0.00000000000E+00 0.  1.
<mgrwt>
<rscale>  0 0.35510871E+02</rscale>
<asrwt>0</asrwt>
<pdfrwt beam="2">  1        2 0.14342032E+00 0.32611063E+02</pdfrwt>
<pdfrwt beam="1">  1       -2 0.17903191E-01 0.38668532E+02</pdfrwt>
<totfact> 0.74903023E+02</totfact>
</mgrwt>
</event>
<event>
 5    1  0.8459321E-003  0.9698802E+02  0.7546771E-02  0.1310698E+00
          2   -1    0    0  502    0  0.00000000000E+00  0.00000000000E+00  0.68038100035E+03  0.68038100035E+03  0.00000000000E+00 0. -1.
          1   -1    0    0  501    0 -0.00000000000E+00 -0.00000000000E+00 -0.37891698357E+03  0.37891698357E+03  0.00000000000E+00 0. -1.
         25    1    1    2    0    0 -0.69634591592E+02  0.14430952223E+03 -0.10721100824E+03  0.22976817630E+03  0.12500000000E+03 0.  0.
          2    1    1    2  501    0  0.18146583443E+02 -0.86053945558E+02 -0.19865060778E+03  0.21724788608E+03  0.00000000000E+00 0. -1.
          1    1    1    2  502    0  0.51488008150E+02 -0.58255576677E+02  0.60732563279E+03  0.61228192154E+03  0.00000000000E+00 0. -1.
<mgrwt>
<rscale>  0 0.86836682E+02</rscale>
<asrwt>0</asrwt>
<pdfrwt beam="1">  1        2 0.10467400E+00 0.77747844E+02</pdfrwt>
<pdfrwt beam="2">  1        1 0.58294921E-01 0.96988020E+02</pdfrwt>
<totfact> 0.40409254E+02</totfact>
</mgrwt>
</event>
<event>
 5    1  0.8459321E-003  0.1157867E+03  0.7546771E-02  0.1396799E+00
          2   -1    0    0  502    0  0.00000000000E+00  0.00000000000E+00  0.20498327807E+04  0.20498327807E+04  0.00000000000E+00 0. -1.
         -2   -1    0    0    0  501 -0.00000000000E+00 -0.00000000000E+00 -0.66812921492E+02  0.66812921492E+02  0.00000000000E+00 0.  1.
         25    1    1    2    0    0 -0.28107710115E+02 -0.11599470835E+03  0.10714577797E+04  0.10853071406E+04  0.12500000000E+03 0.  0.
          1    1    1    2  502    0  0.31347177048E+02  0.23175560423E+00  0.91494405063E+03  0.91548092006E+03  0.00000000000E+00 0. -1.
         -1    1    1    2    0  501 -0.32394669325E+01  0.11576295275E+03 -0.33819711159E+01  0.11585764154E+03  0.00000000000E+00 0.  1.
<mgrwt>
<rscale>  0 0.60246873E+02</rscale>
<asrwt>0</asrwt>
<pdfrwt beam="1">  1        2 0.31535884E+00 0.31348034E+02</pdfrwt>
<pdfrwt beam="2">  1       -2 0.10278913E-01 0.11578671E+03</pdfrwt>
<totfact> 0.54173034E+02</totfact>
</mgrwt>
</event>
<event>
 5    1  0.8459321E-003  0.1200602E+03  0.7546771E-02  0.1274508E+00
         -2   -1    0    0    0  501 -0.00000000000E+00  0.00000000000E+00  0.11451026982E+03  0.11451026982E+03  0.00000000000E+00 0.  1.
          2   -1    0    0  502    0  0.00000000000E+00 -0.00000000000E+00 -0.20015307126E+04  0.20015307126E+04  0.00000000000E+00 0. -1.
         25    1    1    2    0    0  0.10536604267E+03  0.15438628072E+03 -0.42860715995E+03  0.48401056206E+03  0.12500000000E+03 0.  0.
          1    1    1    2  502    0 -0.11727462013E+02 -0.87243180606E+02 -0.15051262912E+04  0.15076982651E+04  0.00000000000E+00 0. -1.
         -1    1    1    2    0  501 -0.93638580655E+02 -0.67143100117E+02  0.46713008421E+02  0.12433215528E+03  0.00000000000E+00 0.  1.
<mgrwt>
<rscale>  0 0.10280393E+03</rscale>
<asrwt>0</asrwt>
<pdfrwt beam="2">  1        2 0.30792780E+00 0.88027870E+02</pdfrwt>
<pdfrwt beam="1">  1       -2 0.17616965E-01 0.12006024E+03</pdfrwt>
<totfact> 0.21270854E+02</totfact>
</mgrwt>
</event>
<event>
 5    1  0.8459321E-003  0.1670228E+03  0.7546771E-02  0.1227306E+00
          2   -1    0    0  502    0  0.00000000000E+00  0.00000000000E+00  0.62447673729E+03  0.62447673729E+03  0.00000000000E+00 0. -1.
          1   -1    0    0  501    0 -0.00000000000E+00 -0.00000000000E+00 -0.46337426454E+03  0.46337426454E+03  0.00000000000E+00 0. -1.
         25    1    1    2    0    0 -0.12263975657E+03 -0.17203556247E+03  0.78174072548E+02  0.25762944370E+03  0.12500000000E+03 0.  0.
          2    1    1    2  501    0  0.10080162863E+03  0.10438795266E+02 -0.35170041508E+03  0.36600972494E+03  0.00000000000E+00 0. -1.
          1    1    1    2  502    0  0.21838127935E+02  0.16159676720E+03  0.43462881528E+03  0.46421183319E+03  0.00000000000E+00 0. -1.
<mgrwt>
<rscale>  0 0.13010075E+03</rscale>
<asrwt>0</asrwt>
<pdfrwt beam="1">  1        2 0.96073344E-01 0.16702280E+03</pdfrwt>
<pdfrwt beam="2">  1        1 0.71288348E-01 0.10134070E+03</pdfrwt>
<totfact> 0.33941884E+02</totfact>
</mgrwt>
</event>
<event>
 5    1  0.8459321E-003  0.9638637E+02  0.7546771E-02  0.1396563E+00
         -1   -1    0    0    0  502 -0.00000000000E+00  0.00000000000E+00  0.25309862357E+03  0.25309862357E+03  0.00000000000E+00 0.  1.
         -2   -1    0    0    0  501  0.00000000000E+00 -0.00000000000E+00 -0.40198022882E+03  0.40198022882E+03  0.00000000000E+00 0.  1.
         25    1    1    2    0    0  0.45013680196E+02 -0.11660116140E+03 -0.31384143035E+02  0.17953280112E+03  0.12500000000E+03 0.  0.
         -2    1    1    2    0  502 -0.28874932211E+02  0.24283047850E+02  0.16949287367E+03  0.17364118851E+03  0.00000000000E+00 0.  1.
         -1    1    1    2    0  501 -0.16138747985E+02  0.92318113546E+02 -0.28699033588E+03  0.30190486277E+03  0.00000000000E+00 0.  1.
<mgrwt>
<rscale>  0 0.60303386E+02</rscale>
<asrwt>0</asrwt>
<pdfrwt beam="2">  1       -2 0.61843112E-01 0.96386370E+02</pdfrwt>
<pdfrwt beam="1">  1       -1 0.38938250E-01 0.37728346E+02</pdfrwt>
<totfact> 0.11968132E+02</totfact>
</mgrwt>
</event>
<event>
 5    1  0.8459321E-003  0.1394256E+03  0.7546771E-02  0.1279083E+00
          1   -1    0    0  502    0  0.00000000000E+00  0.00000000000E+00  0.53399217075E+03  0.53399217075E+03  0.00000000000E+00 0. -1.
         -1   -1    0    0    0  501 -0.00000000000E+00 -0.00000000000E+00 -0.58247919162E+03  0.58247919162E+03  0.00000000000E+00 0.  1.
         25    1    1    2    0    0  0.76825755381E+02 -0.42337724907E+02  0.31390046820E+03  0.34907475357E+03  0.12500000000E+03 0.  0.
          2    1    1    2  502    0  0.63982814334E+02  0.34213855492E+02  0.18679514670E+03  0.20039165469E+03  0.00000000000E+00 0. -1.
         -2    1    1    2    0  501 -0.14080856971E+03  0.81238694149E+01 -0.54918263577E+03  0.56700495411E+03  0.00000000000E+00 0.  1.
<mgrwt>
<rscale>  0 0.10057923E+03</rscale>
<asrwt>0</asrwt>
<pdfrwt beam="1">  1        1 0.82152642E-01 0.72556105E+02</pdfrwt>
<pdfrwt beam="2">  1       -1 0.89612183E-01 0.13942564E+03</pdfrwt>
<totfact> 0.57026156E+01</totfact>
</mgrwt>
</event>
<event>
 5    1  0.8459321E-003  0.1034433E+03  0.7546771E-02  0.1340711E+00
         -2   -1    0    0    0  501 -0.00000000000E+00  0.00000000000E+00  0.19278389753E+03  0.19278389753E+03  0.00000000000E+00 0.  1.
          2   -1    0    0  502    0  0.00000000000E+00 -0.00000000000E+00 -0.50950750272E+03  0.50950750272E+03  0.00000000000E+00 0. -1.
         25    1    1    2    0    0  0.18809701207E+02  0.87220984152E+02 -0.18846171420E+02  0.15473035615E+03  0.12500000000E+03 0.  0.
          1    1    1    2  502    0 -0.73630220677E+02 -0.76383428935E+02 -0.40934512479E+03  0.42287027420E+03  0.00000000000E+00 0. -1.
         -1    1    1    2    0  501  0.54820519470E+02 -0.10837555217E+02  0.11146769102E+03  0.12469076990E+03  0.00000000000E+00 0.  1.
<mgrwt>
<rscale>  0 0.76030025E+02</rscale>
<asrwt>0</asrwt>
<pdfrwt beam="2">  1        2 0.78385769E-01 0.10344327E+03</pdfrwt>
<pdfrwt beam="1">  1       -2 0.29659061E-01 0.55881499E+02</pdfrwt>
<totfact> 0.62847353E+02</totfact>
</mgrwt>
</event>
<event>
 5    1  0.8459321E-003  0.9242002E+02  0.7546771E-02  0.1303712E+00
         -2   -1    0    0    0  501 -0.00000000000E+00  0.00000000000E+00  0.15321277382E+03  0.15321277382E+03  0.00000000000E+00 0.  1.
          2   -1    0    0  502    0  0.00000000000E+00 -0.00000000000E+00 -0.84838499542E+03  0.84838499542E+03  0.00000000000E+00 0. -1.
         25    1    1    2    0    0 -0.38661144265E+02  0.65718407674E+01  0.96357497699E+01  0.13136103243E+03  0.12500000000E+03 0.  0.
          1    1    1    2  502    0 -0.76483672945E+02  0.51881675454E+02 -0.73238453336E+03  0.73819276966E+03  0.00000000000E+00 0. -1.
         -3    1    1    2    0  501  0.11514481721E+03 -0.58453516222E+02  0.27576561997E+02  0.13204396715E+03  0.00000000000E+00 0.  1.
<mgrwt>
<rscale>  0 0.89645482E+02</rscale>
<asrwt>0</asrwt>
<pdfrwt beam="2">  1        2 0.13052077E+00 0.92420022E+02</pdfrwt>
<pdfrwt beam="1">  1       -2 0.23571195E-01 0.86954236E+02</pdfrwt>
<totfact> 0.52810599E+02</totfact>
</mgrwt>
</event>
<event>
 5    1  0.8459321E-003  0.1253245E+03  0.7546771E-02  0.1315348E+00
          1   -1    0    0  501    0 -0.00000000000E+00  0.00000000000E+00  0.65438003916E+03  0.65438003916E+03  0.00000000000E+00 0. -1.
          2   -1    0    0  502    0  0.00000000000E+00 -0.00000000000E+00 -0.99883833409E+03  0.99883833409E+03  0.00000000000E+00 0. -1.
         25    1    1    2    0    0 -0.12210512302E+03 -0.10902601163E+01 -0.97205955193E+02  0.19996211506E+03  0.12500000000E+03 0.  0.
          2    1    1    2  501    0  0.84146386527E+01  0.57077057759E+02  0.59688117006E+03  0.59966301190E+03  0.00000000000E+00 0. -1.
          1    1    1    2  502    0  0.11369048437E+03 -0.55986797643E+02 -0.84413350980E+03  0.85359324629E+03  0.00000000000E+00 0. -1.
<mgrwt>
<rscale>  0 0.85032169E+02</rscale>
<asrwt>0</asrwt>
<pdfrwt beam="2">  1        2 0.15366744E+00 0.12532448E+03</pdfrwt>
<pdfrwt beam="1">  1        1 0.10067385E+00 0.57693992E+02</pdfrwt>
<totfact> 0.12357918E+02</totfact>
</mgrwt>
</event>
<event>
 5    1  0.8459321E-003  0.1192400E+03  0.7546771E-02  0.1356823E+00
          2   -1    0    0  502    0  0.00000000000E+00  0.00000000000E+00  0.85077403263E+02  0.85077403263E+02  0.00000000000E+00 0. -1.
         -2   -1    0    0    0  501 -0.00000000000E+00 -0.00000000000E+00 -0.10912760656E+04  0.10912760656E+04  0.00000000000E+00 0.  1.
         25    1    1    2    0    0 -0.30229065604E+02  0.13542355472E+03 -0.28308647986E+03  0.33914051758E+03  0.12500000000E+03 0.  0.
          1    1    1    2  502    0 -0.26268401739E+02 -0.33079871446E+02  0.44146162404E+02  0.61099840260E+02  0.00000000000E+00 0. -1.
         -1    1    1    2    0  501  0.56497467343E+02 -0.10234368328E+03 -0.76725834488E+03  0.77611311103E+03  0.00000000000E+00 0.  1.
<mgrwt>
<rscale>  0 0.70970581E+02</rscale>
<asrwt>0</asrwt>
<pdfrwt beam="1">  1        2 0.13088831E-01 0.42241056E+02</pdfrwt>
<pdfrwt beam="2">  1       -2 0.16788862E+00 0.11924000E+03</pdfrwt>
<totfact> 0.10305790E+02</totfact>
</mgrwt>
</event>
<event>
 5    1  0.8459321E-003  0.1190976E+03  0.7546771E-02  0.1416207E+00
          1   -1    0    0  501    0 -0.00000000000E+00  0.00000000000E+00  0.12194489370E+03  0.12194489370E+03  0.00000000000E+00 0. -1.
          2   -1    0    0  502    0  0.00000000000E+00 -0.00000000000E+00 -0.12362858234E+04  0.12362858234E+04  0.00000000000E+00 0. -1.
         25    1    1    2    0    0  0.32593458619E+02  0.91068448957E+02 -0.23869152578E+03  0.28627685973E+03  0.12500000000E+03 0.  0.
          2    1    1    2  501    0 -0.46731659110E+02 -0.11309438629E+03  0.59757701854E+02  0.13618065613E+03  0.00000000000E+00 0. -1.
          1    1    1    2  502    0  0.14138200491E+02  0.22025937331E+02 -0.93540710573E+03  0.93577320120E+03  0.00000000000E+00 0. -1.
<mgrwt>
<rscale>  0 0.55831455E+02</rscale>
<asrwt>0</asrwt>
<pdfrwt beam="2">  1        2 0.19019783E+00 0.26173090E+02</pdfrwt>
<pdfrwt beam="1">  1        1 0.18760752E-01 0.11909757E+03</pdfrwt>
<totfact> 0.81958152E+02</totfact>
</mgrwt>
</event>
<event>
 5    1  0.8459321E-003  0.6360032E+02  0.7546771E-02  0.1447152E+00
          1   -1    0    0  501    0 -0.00000000000E+00  0.00000000000E+00  0.11491721707E+04  0.11491721707E+04  0.00000000000E+00 0. -1.
          2   -1    0    0  502    0  0.00000000000E+00 -0.00000000000E+00 -0.28989456988E+04  0.28989456988E+04  0.00000000000E+00 0. -1.
         25    1    1    2    0    0 -0.17840571286E+02  0.28613359241E+02 -0.14977844548E+02  0.13033167742E+03  0.12500000000E+03 0.  0.
          2    1    1    2  501    0  0.56601426048E+02 -0.29968178076E+02  0.10904225436E+04  0.10923017609E+04  0.00000000000E+00 0. -1.
          1    1    1    2  502    0 -0.38760854762E+02  0.13548188345E+01 -0.28252182272E+04  0.28254844311E+04  0.00000000000E+00 0. -1.
<mgrwt>
<rscale>  0 0.49665965E+02</rscale>
<asrwt>0</asrwt>
<pdfrwt beam="2">  1        2 0.44599163E+00 0.38784525E+02</pdfrwt>
<pdfrwt beam="1">  1        1 0.17679572E+00 0.63600317E+02</pdfrwt>
<totfact> 0.61802353E+00</totfact>
</mgrwt>
</event>
<event>
 5    1  0.8459321E-003  0.8761392E+02  0.7546771E-02  0.1311319E+00
          2   -1    0    0  502    0  0.00000000000E+00  0.00000000000E+00  0.23397936332E+03  0.23397936332E+03  0.00000000000E+00 0. -1.
         -2   -1    0    0    0  501 -0.00000000000E+00 -0.00000000000E+00 -0.37613082696E+03  0.37613082696E+03  0.00000000000E+00 0.  1.
         25    1    1    2    0    0 -0.38916637876E+02  0.50071583979E+02  0.64509259632E+01  0.14031494101E+03  0.12500000000E+03 0.  0.
          1    1    1    2  502    0 -0.39427307038E+02 -0.89294350985E+02  0.13860204448E+03  0.16952439468E+03  0.00000000000E+00 0. -1.
         -1    1    1    2    0  501  0.78343944914E+02  0.39222767006E+02 -0.28720443408E+03  0.30027085459E+03  0.00000000000E+00 0.  1.
<mgrwt>
<rscale>  0 0.86592890E+02</rscale>
<asrwt>0</asrwt>
<pdfrwt beam="1">  1        2 0.35996825E-01 0.85583757E+02</pdfrwt>
<pdfrwt beam="2">  1       -2 0.57866281E-01 0.87613921E+02</pdfrwt>
<totfact> 0.40823307E+02</totfact>
</mgrwt>
</event>
<event>
 5    1  0.8459321E-003  0.3864902E+03  0.7546771E-02  0.1265731E+00
          2   -1    0    0  502    0  0.00000000000E+00  0.00000000000E+00  0.20780458076E+04  0.20780458076E+04  0.00000000000E+00 0. -1.
          1   -1    0    0  501    0 -0.00000000000E+00 -0.00000000000E+00 -0.12567569819E+04  0.12567569819E+04  0.00000000000E+00 0. -1.
         25    1    1    2    0    0  0.28279441568E+03 -0.30058404053E+03  0.14358663763E+03  0.45449485087E+03  0.12500000000E+03 0.  0.
          2    1    1    2  501    0 -0.25851727892E+03  0.28335948659E+03 -0.10677744611E+04  0.11345774905E+04  0.00000000000E+00 0. -1.
          1    1    1    2  502    0 -0.24277136759E+02  0.17224553940E+02  0.17454766491E+04  0.17457304481E+04  0.00000000000E+00 0. -1.
<mgrwt>
<rscale>  0 0.10725945E+03</rscale>
<asrwt>0</asrwt>
<pdfrwt beam="1">  1        2 0.31969935E+00 0.29766838E+02</pdfrwt>
<pdfrwt beam="2">  1        1 0.19334723E+00 0.38649016E+03</pdfrwt>
<totfact> 0.12265710E+01</totfact>
</mgrwt>
</event>
<event>
 5    1  0.8459321E-003  0.1037092E+03  0.7546771E-02  0.1428649E+00
          1   -1    0    0  501    0 -0.00000000000E+00  0.00000000000E+00  0.19374248562E+04  0.19374248562E+04  0.00000000000E+00 0. -1.
          2   -1    0    0  502    0  0.00000000000E+00 -0.00000000000E+00 -0.14436072065E+03  0.14436072065E+03  0.00000000000E+00 0. -1.
         25    1    1    2    0    0  0.94362072453E+02 -0.63083233374E+01  0.27792476392E+03  0.31907862677E+03  0.12500000000E+03 0.  0.
          2    1    1    2  501    0  0.83664186912E+01  0.26010704482E+02  0.16166894408E+04  0.16169203140E+04  0.00000000000E+00 0. -1.
          1    1    1    2  502    0 -0.10272849114E+03 -0.19702381144E+02 -0.10155006918E+03  0.14578663610E+03  0.00000000000E+00 0. -1.
<mgrwt>
<rscale>  0 0.53232128E+02</rscale>
<asrwt>0</asrwt>
<pdfrwt beam="2">  1        2 0.22209343E-01 0.10370916E+03</pdfrwt>
<pdfrwt beam="1">  1        1 0.29806534E+00 0.27323135E+02</pdfrwt>
<totfact> 0.16037228E+02</totfact>
</mgrwt>
</event>
<event>
 5    1  0.8459321E-003  0.1006167E+03  0.7546771E-02  0.1295583E+00
          1   -1    0    0  501    0 -0.00000000000E+00  0.00000000000E+00  0.47899940124E+03  0.47899940124E+03  0.00000000000E+00 0. -1.
          2   -1    0    0  502    0  0.00000000000E+00 -0.00000000000E+00 -0.16141903156E+03  0.16141903156E+03  0.00000000000E+00 0. -1.
         25    1    1    2    0    0 -0.67373754910E+02 -0.41179406516E+02  0.15471458979E+03  0.21400133332E+03  0.12500000000E+03 0.  0.
          2    1    1    2  501    0  0.56303863599E+02 -0.65125268239E+02  0.26497007227E+03  0.27860467480E+03  0.00000000000E+00 0. -1.
          1    1    1    2  502    0  0.11069891311E+02  0.10630467475E+03 -0.10210429237E+03  0.14781242468E+03  0.00000000000E+00 0. -1.
<mgrwt>
<rscale>  0 0.93070172E+02</rscale>
<asrwt>0</asrwt>
<pdfrwt beam="2">  1        2 0.24833697E-01 0.10061672E+03</pdfrwt>
<pdfrwt beam="1">  1        1 0.73692215E-01 0.86089637E+02</pdfrwt>
<totfact> 0.14059577E+03</totfact>
</mgrwt>
</event>
<event>
 5    1  0.8459321E-003  0.1274335E+03  0.7546771E-02  0.1331125E+00
          2   -1    0    0  502    0  0.00000000000E+00  0.00000000000E+00  0.23963940355E+04  0.23963940355E+04  0.00000000000E+00 0. -1.
          1   -1    0    0  501    0 -0.00000000000E+00 -0.00000000000E+00 -0.16030223143E+03  0.16030223143E+03  0.00000000000E+00 0. -1.
         25    1    1    2    0    0  0.14524418989E+03  0.63616511272E+02  0.18600590814E+03  0.27452892938E+03  0.12500000000E+03 0.  0.
          2    1    1    2  501    0 -0.46789358658E+02  0.15578204953E+02 -0.10886946121E+03  0.11951771474E+03  0.00000000000E+00 0. -1.
          1    1    1    2  502    0 -0.98454831231E+02 -0.79194716224E+02  0.21589553571E+04  0.21626496228E+04  0.00000000000E+00 0. -1.
<mgrwt>
<rscale>  0 0.79273742E+02</rscale>
<asrwt>0</asrwt>
<pdfrwt beam="1">  1        2 0.36867598E+00 0.12743352E+03</pdfrwt>
<pdfrwt beam="2">  1        1 0.24661883E-01 0.49314547E+02</pdfrwt>
<totfact> 0.12732583E+02</totfact>
</mgrwt>
</event>
