<event>
 3    0  0.1710811E+001  0.1250000E+03  0.7546771E-02  0.1235069E+00
         21   -1    0    0  502  501  0.00000000000E+00  0.00000000000E+00  0.73116081968E+02  0.73116081968E+02  0.00000000000E+00 0.  1.
         21   -1    0    0  501  502 -0.00000000000E+00 -0.00000000000E+00 -0.53425318957E+02  0.53425318957E+02  0.00000000000E+00 0.  1.
         25    1    1    2    0    0  0.00000000000E+00  0.00000000000E+00  0.19690763011E+02  0.12654140092E+03  0.12500000000E+03 0.  0.
<mgrwt>
<rscale>  2 0.12500000E+03</rscale>
<asrwt>0</asrwt>
<pdfrwt beam="1">  1       21 0.11248628E-01 0.12500000E+03</pdfrwt>
<pdfrwt beam="2">  1       21 0.82192799E-02 0.12500000E+03</pdfrwt>
<totfact> 0.73831709E+06</totfact>
</mgrwt>
</event>
<event>
 3    0  0.1596319E+001  0.1250000E+03  0.7546771E-02  0.1235069E+00
         21   -1    0    0  502  501  0.00000000000E+00  0.00000000000E+00  0.14879102175E+02  0.14879102175E+02  0.00000000000E+00 0.  1.
         21   -1    0    0  501  502 -0.00000000000E+00 -0.00000000000E+00 -0.26253264170E+03  0.26253264170E+03  0.00000000000E+00 0.  1.
         25    1    1    2    0    0  0.00000000000E+00  0.00000000000E+00 -0.24765353952E+03  0.27741174387E+03  0.12500000000E+03 0.  0.
<mgrwt>
<rscale>  2 0.12500000E+03</rscale>
<asrwt>0</asrwt>
<pdfrwt beam="1">  1       21 0.22890927E-02 0.12500000E+03</pdfrwt>
<pdfrwt beam="2">  1       21 0.40389636E-01 0.12500000E+03</pdfrwt>
<totfact> 0.57387189E+06</totfact>
</mgrwt>
</event>
<event>
 3    0  0.1712488E+001  0.1250000E+03  0.7546771E-02  0.1235069E+00
         21   -1    0    0  502  501  0.00000000000E+00  0.00000000000E+00  0.64253533645E+02  0.64253533645E+02  0.00000000000E+00 0.  1.
         21   -1    0    0  501  502 -0.00000000000E+00 -0.00000000000E+00 -0.60794321782E+02  0.60794321782E+02  0.00000000000E+00 0.  1.
         25    1    1    2    0    0  0.00000000000E+00  0.00000000000E+00  0.34592118629E+01  0.12504785543E+03  0.12500000000E+03 0.  0.
<mgrwt>
<rscale>  2 0.12500000E+03</rscale>
<asrwt>0</asrwt>
<pdfrwt beam="1">  1       21 0.98851590E-02 0.12500000E+03</pdfrwt>
<pdfrwt beam="2">  1       21 0.93529726E-02 0.12500000E+03</pdfrwt>
<totfact> 0.74037118E+06</totfact>
</mgrwt>
</event>
<event>
 3    0  0.1550927E+001  0.1250000E+03  0.7546771E-02  0.1235069E+00
         21   -1    0    0  502  501  0.00000000000E+00  0.00000000000E+00  0.29655564378E+03  0.29655564378E+03  0.00000000000E+00 0. -1.
         21   -1    0    0  501  502 -0.00000000000E+00 -0.00000000000E+00 -0.13172064272E+02  0.13172064272E+02  0.00000000000E+00 0. -1.
         25    1    1    2    0    0  0.00000000000E+00  0.00000000000E+00  0.28338357950E+03  0.30972770805E+03  0.12500000000E+03 0.  0.
<mgrwt>
<rscale>  2 0.12500000E+03</rscale>
<asrwt>0</asrwt>
<pdfrwt beam="1">  1       21 0.45623940E-01 0.12500000E+03</pdfrwt>
<pdfrwt beam="2">  1       21 0.20264717E-02 0.12500000E+03</pdfrwt>
<totfact> 0.54657331E+06</totfact>
</mgrwt>
</event>
<event>
 3    0  0.1674196E+001  0.1250000E+03  0.7546771E-02  0.1235069E+00
         21   -1    0    0  502  501  0.00000000000E+00  0.00000000000E+00  0.38361540774E+02  0.38361540774E+02  0.00000000000E+00 0. -1.
         21   -1    0    0  501  502 -0.00000000000E+00 -0.00000000000E+00 -0.10182724471E+03  0.10182724471E+03  0.00000000000E+00 0. -1.
         25    1    1    2    0    0  0.00000000000E+00  0.00000000000E+00 -0.63465703938E+02  0.14018878549E+03  0.12500000000E+03 0.  0.
<mgrwt>
<rscale>  2 0.12500000E+03</rscale>
<asrwt>0</asrwt>
<pdfrwt beam="1">  1       21 0.59017755E-02 0.12500000E+03</pdfrwt>
<pdfrwt beam="2">  1       21 0.15665730E-01 0.12500000E+03</pdfrwt>
<totfact> 0.72014672E+06</totfact>
</mgrwt>
</event>
<event>
 3    0  0.1368989E+001  0.1250000E+03  0.7546771E-02  0.1235069E+00
         21   -1    0    0  502  501  0.00000000000E+00  0.00000000000E+00  0.60223680004E+03  0.60223680004E+03  0.00000000000E+00 0. -1.
         21   -1    0    0  501  502 -0.00000000000E+00 -0.00000000000E+00 -0.64862359786E+01  0.64862359786E+01  0.00000000000E+00 0. -1.
         25    1    1    2    0    0  0.00000000000E+00  0.00000000000E+00  0.59575056406E+03  0.60872303601E+03  0.12500000000E+03 0.  0.
<mgrwt>
<rscale>  2 0.12500000E+03</rscale>
<asrwt>0</asrwt>
<pdfrwt beam="1">  1       21 0.92651771E-01 0.12500000E+03</pdfrwt>
<pdfrwt beam="2">  1       21 0.99788293E-03 0.12500000E+03</pdfrwt>
<totfact> 0.36701103E+06</totfact>
</mgrwt>
</event>
<event>
 3    0  0.1368989E+001  0.1250000E+03  0.7546771E-02  0.1235069E+00
         21   -1    0    0  502  501  0.00000000000E+00  0.00000000000E+00  0.42760680518E+01  0.42760680518E+01  0.00000000000E+00 0.  1.
         21   -1    0    0  501  502 -0.00000000000E+00 -0.00000000000E+00 -0.91351446064E+03  0.91351446064E+03  0.00000000000E+00 0.  1.
         25    1    1    2    0    0  0.00000000000E+00  0.00000000000E+00 -0.90923839259E+03  0.91779052869E+03  0.12500000000E+03 0.  0.
<mgrwt>
<rscale>  2 0.12500000E+03</rscale>
<asrwt>0</asrwt>
<pdfrwt beam="1">  1       21 0.65785626E-03 0.12500000E+03</pdfrwt>
<pdfrwt beam="2">  1       21 0.14054076E+00 0.12500000E+03</pdfrwt>
<totfact> 0.25793999E+06</totfact>
</mgrwt>
</event>
<event>
 3    0  0.1678185E+001  0.1250000E+03  0.7546771E-02  0.1235069E+00
         21   -1    0    0  502  501  0.00000000000E+00  0.00000000000E+00  0.13443754872E+03  0.13443754872E+03  0.00000000000E+00 0.  1.
         21   -1    0    0  501  502 -0.00000000000E+00 -0.00000000000E+00 -0.29056242375E+02  0.29056242375E+02  0.00000000000E+00 0.  1.
         25    1    1    2    0    0  0.00000000000E+00  0.00000000000E+00  0.10538130635E+03  0.16349379110E+03  0.12500000000E+03 0.  0.
<mgrwt>
<rscale>  2 0.12500000E+03</rscale>
<asrwt>0</asrwt>
<pdfrwt beam="1">  1       21 0.20682700E-01 0.12500000E+03</pdfrwt>
<pdfrwt beam="2">  1       21 0.44701912E-02 0.12500000E+03</pdfrwt>
<totfact> 0.69095093E+06</totfact>
</mgrwt>
</event>
<event>
 3    0  0.1618496E+001  0.1250000E+03  0.7546771E-02  0.1235069E+00
         21   -1    0    0  502  501  0.00000000000E+00  0.00000000000E+00  0.19123174184E+03  0.19123174184E+03  0.00000000000E+00 0. -1.
         21   -1    0    0  501  502 -0.00000000000E+00 -0.00000000000E+00 -0.20426786696E+02  0.20426786696E+02  0.00000000000E+00 0. -1.
         25    1    1    2    0    0  0.00000000000E+00  0.00000000000E+00  0.17080495514E+03  0.21165852854E+03  0.12500000000E+03 0.  0.
<mgrwt>
<rscale>  2 0.12500000E+03</rscale>
<asrwt>0</asrwt>
<pdfrwt beam="1">  1       21 0.29420267E-01 0.12500000E+03</pdfrwt>
<pdfrwt beam="2">  1       21 0.31425827E-02 0.12500000E+03</pdfrwt>
<totfact> 0.63685462E+06</totfact>
</mgrwt>
</event>
<event>
 3    0  0.1597164E+001  0.1250000E+03  0.7546771E-02  0.1235069E+00
         21   -1    0    0  502  501  0.00000000000E+00  0.00000000000E+00  0.23914231708E+03  0.23914231708E+03  0.00000000000E+00 0. -1.
         21   -1    0    0  501  502 -0.00000000000E+00 -0.00000000000E+00 -0.16334415622E+02  0.16334415622E+02  0.00000000000E+00 0. -1.
         25    1    1    2    0    0  0.00000000000E+00  0.00000000000E+00  0.22280790146E+03  0.25547673270E+03  0.12500000000E+03 0.  0.
<mgrwt>
<rscale>  2 0.12500000E+03</rscale>
<asrwt>0</asrwt>
<pdfrwt beam="1">  1       21 0.36791123E-01 0.12500000E+03</pdfrwt>
<pdfrwt beam="2">  1       21 0.25129872E-02 0.12500000E+03</pdfrwt>
<totfact> 0.59366362E+06</totfact>
</mgrwt>
</event>
<event>
 3    0  0.1698586E+001  0.1250000E+03  0.7546771E-02  0.1235069E+00
         21   -1    0    0  502  501  0.00000000000E+00  0.00000000000E+00  0.37200891475E+02  0.37200891475E+02  0.00000000000E+00 0.  1.
         21   -1    0    0  501  502 -0.00000000000E+00 -0.00000000000E+00 -0.10500420407E+03  0.10500420407E+03  0.00000000000E+00 0.  1.
         25    1    1    2    0    0  0.00000000000E+00  0.00000000000E+00 -0.67803312594E+02  0.14220509554E+03  0.12500000000E+03 0.  0.
<mgrwt>
<rscale>  2 0.12500000E+03</rscale>
<asrwt>0</asrwt>
<pdfrwt beam="1">  1       21 0.57232140E-02 0.12500000E+03</pdfrwt>
<pdfrwt beam="2">  1       21 0.16154493E-01 0.12500000E+03</pdfrwt>
<totfact> 0.71752729E+06</totfact>
</mgrwt>
</event>
<event>
 3    0  0.1415816E+001  0.1250000E+03  0.7546771E-02  0.1235069E+00
         21   -1    0    0  502  501  0.00000000000E+00  0.00000000000E+00  0.62897749443E+01  0.62897749443E+01  0.00000000000E+00 0.  1.
         21   -1    0    0  501  502 -0.00000000000E+00 -0.00000000000E+00 -0.62104765824E+03  0.62104765824E+03  0.00000000000E+00 0.  1.
         25    1    1    2    0    0  0.00000000000E+00  0.00000000000E+00 -0.61475788329E+03  0.62733743318E+03  0.12500000000E+03 0.  0.
<mgrwt>
<rscale>  2 0.12500000E+03</rscale>
<asrwt>0</asrwt>
<pdfrwt beam="1">  1       21 0.96765729E-03 0.12500000E+03</pdfrwt>
<pdfrwt beam="2">  1       21 0.95545832E-01 0.12500000E+03</pdfrwt>
<totfact> 0.35884792E+06</totfact>
</mgrwt>
</event>
<event>
 3    0  0.1603461E+001  0.1250000E+03  0.7546771E-02  0.1235069E+00
         21   -1    0    0  502  501  0.00000000000E+00  0.00000000000E+00  0.21611205993E+03  0.21611205993E+03  0.00000000000E+00 0. -1.
         21   -1    0    0  501  502 -0.00000000000E+00 -0.00000000000E+00 -0.18075113444E+02  0.18075113444E+02  0.00000000000E+00 0. -1.
         25    1    1    2    0    0  0.00000000000E+00  0.00000000000E+00  0.19803694649E+03  0.23418717338E+03  0.12500000000E+03 0.  0.
<mgrwt>
<rscale>  2 0.12500000E+03</rscale>
<asrwt>0</asrwt>
<pdfrwt beam="1">  1       21 0.33248007E-01 0.12500000E+03</pdfrwt>
<pdfrwt beam="2">  1       21 0.27807868E-02 0.12500000E+03</pdfrwt>
<totfact> 0.61399736E+06</totfact>
</mgrwt>
</event>
<event>
 3    0  0.1368989E+001  0.1250000E+03  0.7546771E-02  0.1235069E+00
         21   -1    0    0  502  501  0.00000000000E+00  0.00000000000E+00  0.37948205271E+01  0.37948205271E+01  0.00000000000E+00 0. -1.
         21   -1    0    0  501  502 -0.00000000000E+00 -0.00000000000E+00 -0.10293635686E+04  0.10293635686E+04  0.00000000000E+00 0. -1.
         25    1    1    2    0    0  0.00000000000E+00  0.00000000000E+00 -0.10255687481E+04  0.10331583891E+04  0.12500000000E+03 0.  0.
<mgrwt>
<rscale>  2 0.12500000E+03</rscale>
<asrwt>0</asrwt>
<pdfrwt beam="1">  1       21 0.58381838E-03 0.12500000E+03</pdfrwt>
<pdfrwt beam="2">  1       21 0.15836367E+00 0.12500000E+03</pdfrwt>
<totfact> 0.22802281E+06</totfact>
</mgrwt>
</event>
<event>
 3    0  0.1469851E+001  0.1250000E+03  0.7546771E-02  0.1235069E+00
         21   -1    0    0  502  501  0.00000000000E+00  0.00000000000E+00  0.84191813577E+01  0.84191813577E+01  0.00000000000E+00 0.  1.
         21   -1    0    0  501  502 -0.00000000000E+00 -0.00000000000E+00 -0.46397028809E+03  0.46397028809E+03  0.00000000000E+00 0.  1.
         25    1    1    2    0    0  0.00000000000E+00  0.00000000000E+00 -0.45555110673E+03  0.47238946945E+03  0.12500000000E+03 0.  0.
<mgrwt>
<rscale>  2 0.12500000E+03</rscale>
<asrwt>0</asrwt>
<pdfrwt beam="1">  1       21 0.12952583E-02 0.12500000E+03</pdfrwt>
<pdfrwt beam="2">  1       21 0.71380064E-01 0.12500000E+03</pdfrwt>
<totfact> 0.43582145E+06</totfact>
</mgrwt>
</event>
<event>
 3    0  0.1575983E+001  0.1250000E+03  0.7546771E-02  0.1235069E+00
         21   -1    0    0  502  501  0.00000000000E+00  0.00000000000E+00  0.12466447912E+02  0.12466447912E+02  0.00000000000E+00 0.  1.
         21   -1    0    0  501  502 -0.00000000000E+00 -0.00000000000E+00 -0.31334105976E+03  0.31334105976E+03  0.00000000000E+00 0.  1.
         25    1    1    2    0    0  0.00000000000E+00  0.00000000000E+00 -0.30087461184E+03  0.32580750767E+03  0.12500000000E+03 0.  0.
<mgrwt>
<rscale>  2 0.12500000E+03</rscale>
<asrwt>0</asrwt>
<pdfrwt beam="1">  1       21 0.19179152E-02 0.12500000E+03</pdfrwt>
<pdfrwt beam="2">  1       21 0.48206313E-01 0.12500000E+03</pdfrwt>
<totfact> 0.53376314E+06</totfact>
</mgrwt>
</event>
<event>
 3    0  0.1619105E+001  0.1250000E+03  0.7546771E-02  0.1235069E+00
         21   -1    0    0  502  501  0.00000000000E+00  0.00000000000E+00  0.21265015858E+02  0.21265015858E+02  0.00000000000E+00 0. -1.
         21   -1    0    0  501  502 -0.00000000000E+00 -0.00000000000E+00 -0.18369372617E+03  0.18369372617E+03  0.00000000000E+00 0. -1.
         25    1    1    2    0    0  0.00000000000E+00  0.00000000000E+00 -0.16242871031E+03  0.20495874203E+03  0.12500000000E+03 0.  0.
<mgrwt>
<rscale>  2 0.12500000E+03</rscale>
<asrwt>0</asrwt>
<pdfrwt beam="1">  1       21 0.32715408E-02 0.12500000E+03</pdfrwt>
<pdfrwt beam="2">  1       21 0.28260574E-01 0.12500000E+03</pdfrwt>
<totfact> 0.64393867E+06</totfact>
</mgrwt>
</event>
<event>
 3    0  0.1709966E+001  0.1250000E+03  0.7546771E-02  0.1235069E+00
         21   -1    0    0  502  501  0.00000000000E+00  0.00000000000E+00  0.54779912689E+02  0.54779912689E+02  0.00000000000E+00 0.  1.
         21   -1    0    0  501  502 -0.00000000000E+00 -0.00000000000E+00 -0.71308072763E+02  0.71308072763E+02  0.00000000000E+00 0.  1.
         25    1    1    2    0    0  0.00000000000E+00  0.00000000000E+00 -0.16528160074E+02  0.12608798545E+03  0.12500000000E+03 0.  0.
<mgrwt>
<rscale>  2 0.12500000E+03</rscale>
<asrwt>0</asrwt>
<pdfrwt beam="1">  1       21 0.84276789E-02 0.12500000E+03</pdfrwt>
<pdfrwt beam="2">  1       21 0.10970473E-01 0.12500000E+03</pdfrwt>
<totfact> 0.73893916E+06</totfact>
</mgrwt>
</event>
<event>
 3    0  0.1439539E+001  0.1250000E+03  0.7546771E-02  0.1235069E+00
         21   -1    0    0  502  501  0.00000000000E+00  0.00000000000E+00  0.56902506186E+03  0.56902506186E+03  0.00000000000E+00 0.  1.
         21   -1    0    0  501  502 -0.00000000000E+00 -0.00000000000E+00 -0.68648118718E+01  0.68648118718E+01  0.00000000000E+00 0.  1.
         25    1    1    2    0    0  0.00000000000E+00  0.00000000000E+00  0.56216024999E+03  0.57588987373E+03  0.12500000000E+03 0.  0.
<mgrwt>
<rscale>  2 0.12500000E+03</rscale>
<asrwt>0</asrwt>
<pdfrwt beam="1">  1       21 0.87542280E-01 0.12500000E+03</pdfrwt>
<pdfrwt beam="2">  1       21 0.10561253E-02 0.12500000E+03</pdfrwt>
<totfact> 0.38206196E+06</totfact>
</mgrwt>
</event>
<event>
 3    0  0.1368989E+001  0.1250000E+03  0.7546771E-02  0.1235069E+00
         21   -1    0    0  502  501  0.00000000000E+00  0.00000000000E+00  0.13625377994E+04  0.13625377994E+04  0.00000000000E+00 0.  1.
         21   -1    0    0  501  502 -0.00000000000E+00 -0.00000000000E+00 -0.28668929418E+01  0.28668929418E+01  0.00000000000E+00 0.  1.
         25    1    1    2    0    0  0.00000000000E+00  0.00000000000E+00  0.13596709065E+04  0.13654046924E+04  0.12500000000E+03 0.  0.
<mgrwt>
<rscale>  2 0.12500000E+03</rscale>
<asrwt>0</asrwt>
<pdfrwt beam="1">  1       21 0.20962068E+00 0.12500000E+03</pdfrwt>
<pdfrwt beam="2">  1       21 0.44106154E-03 0.12500000E+03</pdfrwt>
<totfact> 0.16117391E+06</totfact>
</mgrwt>
</event>
<event>
 3    0  0.1368989E+001  0.1250000E+03  0.7546771E-02  0.1235069E+00
         21   -1    0    0  502  501  0.00000000000E+00  0.00000000000E+00  0.66178628598E+03  0.66178628598E+03  0.00000000000E+00 0.  1.
         21   -1    0    0  501  502 -0.00000000000E+00 -0.00000000000E+00 -0.59025852949E+01  0.59025852949E+01  0.00000000000E+00 0.  1.
         25    1    1    2    0    0  0.00000000000E+00  0.00000000000E+00  0.65588370069E+03  0.66768887128E+03  0.12500000000E+03 0.  0.
<mgrwt>
<rscale>  2 0.12500000E+03</rscale>
<asrwt>0</asrwt>
<pdfrwt beam="1">  1       21 0.10181322E+00 0.12500000E+03</pdfrwt>
<pdfrwt beam="2">  1       21 0.90809057E-03 0.12500000E+03</pdfrwt>
<totfact> 0.34193428E+06</totfact>
</mgrwt>
</event>
<event>
 3    0  0.1672346E+001  0.1250000E+03  0.7546771E-02  0.1235069E+00
         21   -1    0    0  502  501  0.00000000000E+00  0.00000000000E+00  0.14909300603E+03  0.14909300603E+03  0.00000000000E+00 0.  1.
         21   -1    0    0  501  502 -0.00000000000E+00 -0.00000000000E+00 -0.26200088817E+02  0.26200088817E+02  0.00000000000E+00 0.  1.
         25    1    1    2    0    0  0.00000000000E+00  0.00000000000E+00  0.12289291721E+03  0.17529309485E+03  0.12500000000E+03 0.  0.
<mgrwt>
<rscale>  2 0.12500000E+03</rscale>
<asrwt>0</asrwt>
<pdfrwt beam="1">  1       21 0.22937385E-01 0.12500000E+03</pdfrwt>
<pdfrwt beam="2">  1       21 0.40307830E-02 0.12500000E+03</pdfrwt>
<totfact> 0.67695643E+06</totfact>
</mgrwt>
</event>
<event>
 3    0  0.1606869E+001  0.1250000E+03  0.7546771E-02  0.1235069E+00
         21   -1    0    0  502  501  0.00000000000E+00  0.00000000000E+00  0.17487529760E+02  0.17487529760E+02  0.00000000000E+00 0. -1.
         21   -1    0    0  501  502 -0.00000000000E+00 -0.00000000000E+00 -0.22337345832E+03  0.22337345832E+03  0.00000000000E+00 0. -1.
         25    1    1    2    0    0  0.00000000000E+00  0.00000000000E+00 -0.20588592856E+03  0.24086098808E+03  0.12500000000E+03 0.  0.
<mgrwt>
<rscale>  2 0.12500000E+03</rscale>
<asrwt>0</asrwt>
<pdfrwt beam="1">  1       21 0.26903892E-02 0.12500000E+03</pdfrwt>
<pdfrwt beam="2">  1       21 0.34365147E-01 0.12500000E+03</pdfrwt>
<totfact> 0.60749446E+06</totfact>
</mgrwt>
</event>
<event>
 3    0  0.1483229E+001  0.1250000E+03  0.7546771E-02  0.1235069E+00
         21   -1    0    0  502  501  0.00000000000E+00  0.00000000000E+00  0.41879984620E+03  0.41879984620E+03  0.00000000000E+00 0. -1.
         21   -1    0    0  501  502 -0.00000000000E+00 -0.00000000000E+00 -0.93272479334E+01  0.93272479334E+01  0.00000000000E+00 0. -1.
         25    1    1    2    0    0  0.00000000000E+00  0.00000000000E+00  0.40947259827E+03  0.42812709414E+03  0.12500000000E+03 0.  0.
<mgrwt>
<rscale>  2 0.12500000E+03</rscale>
<asrwt>0</asrwt>
<pdfrwt beam="1">  1       21 0.64430731E-01 0.12500000E+03</pdfrwt>
<pdfrwt beam="2">  1       21 0.14349615E-02 0.12500000E+03</pdfrwt>
<totfact> 0.46230008E+06</totfact>
</mgrwt>
</event>
<event>
 3    0  0.1698032E+001  0.1250000E+03  0.7546771E-02  0.1235069E+00
         21   -1    0    0  502  501  0.00000000000E+00  0.00000000000E+00  0.34902304563E+02  0.34902304563E+02  0.00000000000E+00 0.  1.
         21   -1    0    0  501  502 -0.00000000000E+00 -0.00000000000E+00 -0.11191954368E+03  0.11191954368E+03  0.00000000000E+00 0.  1.
         25    1    1    2    0    0  0.00000000000E+00  0.00000000000E+00 -0.77017239115E+02  0.14682184824E+03  0.12500000000E+03 0.  0.
<mgrwt>
<rscale>  2 0.12500000E+03</rscale>
<asrwt>0</asrwt>
<pdfrwt beam="1">  1       21 0.53695853E-02 0.12500000E+03</pdfrwt>
<pdfrwt beam="2">  1       21 0.17218391E-01 0.12500000E+03</pdfrwt>
<totfact> 0.71160756E+06</totfact>
</mgrwt>
</event>
<event>
 3    0  0.1680529E+001  0.1250000E+03  0.7546771E-02  0.1235069E+00
         21   -1    0    0  502  501  0.00000000000E+00  0.00000000000E+00  0.43131850060E+02  0.43131850060E+02  0.00000000000E+00 0. -1.
         21   -1    0    0  501  502 -0.00000000000E+00 -0.00000000000E+00 -0.90565324570E+02  0.90565324570E+02  0.00000000000E+00 0. -1.
         25    1    1    2    0    0  0.00000000000E+00  0.00000000000E+00 -0.47433474510E+02  0.13369717463E+03  0.12500000000E+03 0.  0.
<mgrwt>
<rscale>  2 0.12500000E+03</rscale>
<asrwt>0</asrwt>
<pdfrwt beam="1">  1       21 0.66356693E-02 0.12500000E+03</pdfrwt>
<pdfrwt beam="2">  1       21 0.13933127E-01 0.12500000E+03</pdfrwt>
<totfact> 0.72869443E+06</totfact>
</mgrwt>
</event>
<event>
 3    0  0.1503725E+001  0.1250000E+03  0.7546771E-02  0.1235069E+00
         21   -1    0    0  502  501  0.00000000000E+00  0.00000000000E+00  0.10508290570E+02  0.10508290570E+02  0.00000000000E+00 0. -1.
         21   -1    0    0  501  502 -0.00000000000E+00 -0.00000000000E+00 -0.37173029942E+03  0.37173029942E+03  0.00000000000E+00 0. -1.
         25    1    1    2    0    0  0.00000000000E+00  0.00000000000E+00 -0.36122200885E+03  0.38223858999E+03  0.12500000000E+03 0.  0.
<mgrwt>
<rscale>  2 0.12500000E+03</rscale>
<asrwt>0</asrwt>
<pdfrwt beam="1">  1       21 0.16166601E-02 0.12500000E+03</pdfrwt>
<pdfrwt beam="2">  1       21 0.57189276E-01 0.12500000E+03</pdfrwt>
<totfact> 0.49242151E+06</totfact>
</mgrwt>
</event>
<event>
 3    0  0.1399941E+001  0.1250000E+03  0.7546771E-02  0.1235069E+00
         21   -1    0    0  502  501  0.00000000000E+00  0.00000000000E+00  0.76392216614E+01  0.76392216614E+01  0.00000000000E+00 0. -1.
         21   -1    0    0  501  502 -0.00000000000E+00 -0.00000000000E+00 -0.51134136083E+03  0.51134136083E+03  0.00000000000E+00 0. -1.
         25    1    1    2    0    0  0.00000000000E+00  0.00000000000E+00 -0.50370213917E+03  0.51898058249E+03  0.12500000000E+03 0.  0.
<mgrwt>
<rscale>  2 0.12500000E+03</rscale>
<asrwt>0</asrwt>
<pdfrwt beam="1">  1       21 0.11752646E-02 0.12500000E+03</pdfrwt>
<pdfrwt beam="2">  1       21 0.78667923E-01 0.12500000E+03</pdfrwt>
<totfact> 0.41033063E+06</totfact>
</mgrwt>
</event>
<event>
 3    0  0.1664107E+001  0.1250000E+03  0.7546771E-02  0.1235069E+00
         21   -1    0    0  502  501  0.00000000000E+00  0.00000000000E+00  0.33501363460E+02  0.33501363460E+02  0.00000000000E+00 0. -1.
         21   -1    0    0  501  502 -0.00000000000E+00 -0.00000000000E+00 -0.11659973197E+03  0.11659973197E+03  0.00000000000E+00 0. -1.
         25    1    1    2    0    0  0.00000000000E+00  0.00000000000E+00 -0.83098368509E+02  0.15010109543E+03  0.12500000000E+03 0.  0.
<mgrwt>
<rscale>  2 0.12500000E+03</rscale>
<asrwt>0</asrwt>
<pdfrwt beam="1">  1       21 0.51540559E-02 0.12500000E+03</pdfrwt>
<pdfrwt beam="2">  1       21 0.17938420E-01 0.12500000E+03</pdfrwt>
<totfact> 0.70746504E+06</totfact>
</mgrwt>
</event>
<event>
 3    0  0.1704603E+001  0.1250000E+03  0.7546771E-02  0.1235069E+00
         21   -1    0    0  502  501  0.00000000000E+00  0.00000000000E+00  0.40900795292E+02  0.40900795292E+02  0.00000000000E+00 0.  1.
         21   -1    0    0  501  502 -0.00000000000E+00 -0.00000000000E+00 -0.95505477878E+02  0.95505477878E+02  0.00000000000E+00 0.  1.
         25    1    1    2    0    0  0.00000000000E+00  0.00000000000E+00 -0.54604682586E+02  0.13640627317E+03  0.12500000000E+03 0.  0.
<mgrwt>
<rscale>  2 0.12500000E+03</rscale>
<asrwt>0</asrwt>
<pdfrwt beam="1">  1       21 0.62924301E-02 0.12500000E+03</pdfrwt>
<pdfrwt beam="2">  1       21 0.14693150E-01 0.12500000E+03</pdfrwt>
<totfact> 0.72510803E+06</totfact>
</mgrwt>
</event>
<event>
 3    0  0.1626078E+001  0.1250000E+03  0.7546771E-02  0.1235069E+00
         21   -1    0    0  502  501  0.00000000000E+00  0.00000000000E+00  0.20763708217E+02  0.20763708217E+02  0.00000000000E+00 0. -1.
         21   -1    0    0  501  502 -0.00000000000E+00 -0.00000000000E+00 -0.18812872726E+03  0.18812872726E+03  0.00000000000E+00 0. -1.
         25    1    1    2    0    0  0.00000000000E+00  0.00000000000E+00 -0.16736501904E+03  0.20889243547E+03  0.12500000000E+03 0.  0.
<mgrwt>
<rscale>  2 0.12500000E+03</rscale>
<asrwt>0</asrwt>
<pdfrwt beam="1">  1       21 0.31944168E-02 0.12500000E+03</pdfrwt>
<pdfrwt beam="2">  1       21 0.28942880E-01 0.12500000E+03</pdfrwt>
<totfact> 0.63976253E+06</totfact>
</mgrwt>
</event>
<event>
 3    0  0.1712015E+001  0.1250000E+03  0.7546771E-02  0.1235069E+00
         21   -1    0    0  502  501  0.00000000000E+00  0.00000000000E+00  0.75583688464E+02  0.75583688464E+02  0.00000000000E+00 0.  1.
         21   -1    0    0  501  502 -0.00000000000E+00 -0.00000000000E+00 -0.51681124319E+02  0.51681124319E+02  0.00000000000E+00 0.  1.
         25    1    1    2    0    0  0.00000000000E+00  0.00000000000E+00  0.23902564144E+02  0.12726481278E+03  0.12500000000E+03 0.  0.
<mgrwt>
<rscale>  2 0.12500000E+03</rscale>
<asrwt>0</asrwt>
<pdfrwt beam="1">  1       21 0.11628260E-01 0.12500000E+03</pdfrwt>
<pdfrwt beam="2">  1       21 0.79509422E-02 0.12500000E+03</pdfrwt>
<totfact> 0.73733130E+06</totfact>
</mgrwt>
</event>
<event>
 3    0  0.1656775E+001  0.1250000E+03  0.7546771E-02  0.1235069E+00
         21   -1    0    0  502  501  0.00000000000E+00  0.00000000000E+00  0.24176544949E+02  0.24176544949E+02  0.00000000000E+00 0.  1.
         21   -1    0    0  501  502 -0.00000000000E+00 -0.00000000000E+00 -0.16157188747E+03  0.16157188747E+03  0.00000000000E+00 0.  1.
         25    1    1    2    0    0  0.00000000000E+00  0.00000000000E+00 -0.13739534252E+03  0.18574843242E+03  0.12500000000E+03 0.  0.
<mgrwt>
<rscale>  2 0.12500000E+03</rscale>
<asrwt>0</asrwt>
<pdfrwt beam="1">  1       21 0.37194684E-02 0.12500000E+03</pdfrwt>
<pdfrwt beam="2">  1       21 0.24857214E-01 0.12500000E+03</pdfrwt>
<totfact> 0.66498134E+06</totfact>
</mgrwt>
</event>
<event>
 3    0  0.1568148E+001  0.1250000E+03  0.7546771E-02  0.1235069E+00
         21   -1    0    0  502  501  0.00000000000E+00  0.00000000000E+00  0.12326829597E+02  0.12326829597E+02  0.00000000000E+00 0.  1.
         21   -1    0    0  501  502 -0.00000000000E+00 -0.00000000000E+00 -0.31689007861E+03  0.31689007861E+03  0.00000000000E+00 0.  1.
         25    1    1    2    0    0  0.00000000000E+00  0.00000000000E+00 -0.30456324901E+03  0.32921690820E+03  0.12500000000E+03 0.  0.
<mgrwt>
<rscale>  2 0.12500000E+03</rscale>
<asrwt>0</asrwt>
<pdfrwt beam="1">  1       21 0.18964353E-02 0.12500000E+03</pdfrwt>
<pdfrwt beam="2">  1       21 0.48752320E-01 0.12500000E+03</pdfrwt>
<totfact> 0.53110937E+06</totfact>
</mgrwt>
</event>
<event>
 3    0  0.1583015E+001  0.1250000E+03  0.7546771E-02  0.1235069E+00
         21   -1    0    0  502  501  0.00000000000E+00  0.00000000000E+00  0.16721721153E+02  0.16721721153E+02  0.00000000000E+00 0. -1.
         21   -1    0    0  501  502 -0.00000000000E+00 -0.00000000000E+00 -0.23360334526E+03  0.23360334526E+03  0.00000000000E+00 0. -1.
         25    1    1    2    0    0  0.00000000000E+00  0.00000000000E+00 -0.21688162411E+03  0.25032506642E+03  0.12500000000E+03 0.  0.
<mgrwt>
<rscale>  2 0.12500000E+03</rscale>
<asrwt>0</asrwt>
<pdfrwt beam="1">  1       21 0.25725727E-02 0.12500000E+03</pdfrwt>
<pdfrwt beam="2">  1       21 0.35938974E-01 0.12500000E+03</pdfrwt>
<totfact> 0.59847599E+06</totfact>
</mgrwt>
</event>
<event>
 3    0  0.1673820E+001  0.1250000E+03  0.7546771E-02  0.1235069E+00
         21   -1    0    0  502  501  0.00000000000E+00  0.00000000000E+00  0.26243081422E+02  0.26243081422E+02  0.00000000000E+00 0.  1.
         21   -1    0    0  501  502 -0.00000000000E+00 -0.00000000000E+00 -0.14884875511E+03  0.14884875511E+03  0.00000000000E+00 0.  1.
         25    1    1    2    0    0  0.00000000000E+00  0.00000000000E+00 -0.12260567369E+03  0.17509183653E+03  0.12500000000E+03 0.  0.
<mgrwt>
<rscale>  2 0.12500000E+03</rscale>
<asrwt>0</asrwt>
<pdfrwt beam="1">  1       21 0.40373972E-02 0.12500000E+03</pdfrwt>
<pdfrwt beam="2">  1       21 0.22899808E-01 0.12500000E+03</pdfrwt>
<totfact> 0.67719095E+06</totfact>
</mgrwt>
</event>
<event>
 3    0  0.1675444E+001  0.1250000E+03  0.7546771E-02  0.1235069E+00
         21   -1    0    0  502  501  0.00000000000E+00  0.00000000000E+00  0.26882808152E+02  0.26882808152E+02  0.00000000000E+00 0.  1.
         21   -1    0    0  501  502 -0.00000000000E+00 -0.00000000000E+00 -0.14530662042E+03  0.14530662042E+03  0.00000000000E+00 0.  1.
         25    1    1    2    0    0  0.00000000000E+00  0.00000000000E+00 -0.11842381227E+03  0.17218942858E+03  0.12500000000E+03 0.  0.
<mgrwt>
<rscale>  2 0.12500000E+03</rscale>
<asrwt>0</asrwt>
<pdfrwt beam="1">  1       21 0.41358165E-02 0.12500000E+03</pdfrwt>
<pdfrwt beam="2">  1       21 0.22354865E-01 0.12500000E+03</pdfrwt>
<totfact> 0.68059034E+06</totfact>
</mgrwt>
</event>
<event>
 3    0  0.1527542E+001  0.1250000E+03  0.7546771E-02  0.1235069E+00
         21   -1    0    0  502  501  0.00000000000E+00  0.00000000000E+00  0.10071088700E+02  0.10071088700E+02  0.00000000000E+00 0.  1.
         21   -1    0    0  501  502 -0.00000000000E+00 -0.00000000000E+00 -0.38786769896E+03  0.38786769896E+03  0.00000000000E+00 0.  1.
         25    1    1    2    0    0  0.00000000000E+00  0.00000000000E+00 -0.37779661026E+03  0.39793878766E+03  0.12500000000E+03 0.  0.
<mgrwt>
<rscale>  2 0.12500000E+03</rscale>
<asrwt>0</asrwt>
<pdfrwt beam="1">  1       21 0.15493980E-02 0.12500000E+03</pdfrwt>
<pdfrwt beam="2">  1       21 0.59671964E-01 0.12500000E+03</pdfrwt>
<totfact> 0.48178365E+06</totfact>
</mgrwt>
</event>
<event>
 3    0  0.1368989E+001  0.1250000E+03  0.7546771E-02  0.1235069E+00
         21   -1    0    0  502  501  0.00000000000E+00  0.00000000000E+00  0.70486000609E+03  0.70486000609E+03  0.00000000000E+00 0.  1.
         21   -1    0    0  501  502 -0.00000000000E+00 -0.00000000000E+00 -0.55418806092E+01  0.55418806092E+01  0.00000000000E+00 0.  1.
         25    1    1    2    0    0  0.00000000000E+00  0.00000000000E+00  0.69931812549E+03  0.71040188670E+03  0.12500000000E+03 0.  0.
<mgrwt>
<rscale>  2 0.12500000E+03</rscale>
<asrwt>0</asrwt>
<pdfrwt beam="1">  1       21 0.10843993E+00 0.12500000E+03</pdfrwt>
<pdfrwt beam="2">  1       21 0.85259757E-03 0.12500000E+03</pdfrwt>
<totfact> 0.32512969E+06</totfact>
</mgrwt>
</event>
<event>
 3    0  0.1547000E+001  0.1250000E+03  0.7546771E-02  0.1235069E+00
         21   -1    0    0  502  501  0.00000000000E+00  0.00000000000E+00  0.31666056734E+03  0.31666056734E+03  0.00000000000E+00 0. -1.
         21   -1    0    0  501  502 -0.00000000000E+00 -0.00000000000E+00 -0.12335763915E+02  0.12335763915E+02  0.00000000000E+00 0. -1.
         25    1    1    2    0    0  0.00000000000E+00  0.00000000000E+00  0.30432480343E+03  0.32899633126E+03  0.12500000000E+03 0.  0.
<mgrwt>
<rscale>  2 0.12500000E+03</rscale>
<asrwt>0</asrwt>
<pdfrwt beam="1">  1       21 0.48717004E-01 0.12500000E+03</pdfrwt>
<pdfrwt beam="2">  1       21 0.18978101E-02 0.12500000E+03</pdfrwt>
<totfact> 0.53128045E+06</totfact>
</mgrwt>
</event>
<event>
 3    0  0.1368989E+001  0.1250000E+03  0.7546771E-02  0.1235069E+00
         21   -1    0    0  502  501  0.00000000000E+00  0.00000000000E+00  0.70535643974E+03  0.70535643974E+03  0.00000000000E+00 0.  1.
         21   -1    0    0  501  502 -0.00000000000E+00 -0.00000000000E+00 -0.55379802039E+01  0.55379802039E+01  0.00000000000E+00 0.  1.
         25    1    1    2    0    0  0.00000000000E+00  0.00000000000E+00  0.69981845954E+03  0.71089441995E+03  0.12500000000E+03 0.  0.
<mgrwt>
<rscale>  2 0.12500000E+03</rscale>
<asrwt>0</asrwt>
<pdfrwt beam="1">  1       21 0.10851630E+00 0.12500000E+03</pdfrwt>
<pdfrwt beam="2">  1       21 0.85199751E-03 0.12500000E+03</pdfrwt>
<totfact> 0.32494352E+06</totfact>
</mgrwt>
</event>
<event>
 3    0  0.1617191E+001  0.1250000E+03  0.7546771E-02  0.1235069E+00
         21   -1    0    0  502  501  0.00000000000E+00  0.00000000000E+00  0.17072823012E+02  0.17072823012E+02  0.00000000000E+00 0.  1.
         21   -1    0    0  501  502 -0.00000000000E+00 -0.00000000000E+00 -0.22879930269E+03  0.22879930269E+03  0.00000000000E+00 0.  1.
         25    1    1    2    0    0  0.00000000000E+00  0.00000000000E+00 -0.21172647968E+03  0.24587212570E+03  0.12500000000E+03 0.  0.
<mgrwt>
<rscale>  2 0.12500000E+03</rscale>
<asrwt>0</asrwt>
<pdfrwt beam="1">  1       21 0.26265882E-02 0.12500000E+03</pdfrwt>
<pdfrwt beam="2">  1       21 0.35199893E-01 0.12500000E+03</pdfrwt>
<totfact> 0.60269014E+06</totfact>
</mgrwt>
</event>
<event>
 3    0  0.1706887E+001  0.1250000E+03  0.7546771E-02  0.1235069E+00
         21   -1    0    0  502  501  0.00000000000E+00  0.00000000000E+00  0.85413867500E+02  0.85413867500E+02  0.00000000000E+00 0.  1.
         21   -1    0    0  501  502 -0.00000000000E+00 -0.00000000000E+00 -0.45733206028E+02  0.45733206028E+02  0.00000000000E+00 0.  1.
         25    1    1    2    0    0  0.00000000000E+00  0.00000000000E+00  0.39680661472E+02  0.13114707353E+03  0.12500000000E+03 0.  0.
<mgrwt>
<rscale>  2 0.12500000E+03</rscale>
<asrwt>0</asrwt>
<pdfrwt beam="1">  1       21 0.13140595E-01 0.12500000E+03</pdfrwt>
<pdfrwt beam="2">  1       21 0.70358779E-02 0.12500000E+03</pdfrwt>
<totfact> 0.73210859E+06</totfact>
</mgrwt>
</event>
<event>
 3    0  0.1659051E+001  0.1250000E+03  0.7546771E-02  0.1235069E+00
         21   -1    0    0  502  501  0.00000000000E+00  0.00000000000E+00  0.12678169817E+03  0.12678169817E+03  0.00000000000E+00 0. -1.
         21   -1    0    0  501  502 -0.00000000000E+00 -0.00000000000E+00 -0.30810835130E+02  0.30810835130E+02  0.00000000000E+00 0. -1.
         25    1    1    2    0    0  0.00000000000E+00  0.00000000000E+00  0.95970863044E+02  0.15759253330E+03  0.12500000000E+03 0.  0.
<mgrwt>
<rscale>  2 0.12500000E+03</rscale>
<asrwt>0</asrwt>
<pdfrwt beam="1">  1       21 0.19504876E-01 0.12500000E+03</pdfrwt>
<pdfrwt beam="2">  1       21 0.47401286E-02 0.12500000E+03</pdfrwt>
<totfact> 0.69814865E+06</totfact>
</mgrwt>
</event>
<event>
 3    0  0.1610077E+001  0.1250000E+03  0.7546771E-02  0.1235069E+00
         21   -1    0    0  502  501  0.00000000000E+00  0.00000000000E+00  0.20461147587E+03  0.20461147587E+03  0.00000000000E+00 0. -1.
         21   -1    0    0  501  502 -0.00000000000E+00 -0.00000000000E+00 -0.19091060184E+02  0.19091060184E+02  0.00000000000E+00 0. -1.
         25    1    1    2    0    0  0.00000000000E+00  0.00000000000E+00  0.18552041568E+03  0.22370253605E+03  0.12500000000E+03 0.  0.
<mgrwt>
<rscale>  2 0.12500000E+03</rscale>
<asrwt>0</asrwt>
<pdfrwt beam="1">  1       21 0.31478687E-01 0.12500000E+03</pdfrwt>
<pdfrwt beam="2">  1       21 0.29370863E-02 0.12500000E+03</pdfrwt>
<totfact> 0.62446080E+06</totfact>
</mgrwt>
</event>
<event>
 3    0  0.1533702E+001  0.1250000E+03  0.7546771E-02  0.1235069E+00
         21   -1    0    0  502  501  0.00000000000E+00  0.00000000000E+00  0.30444037521E+03  0.30444037521E+03  0.00000000000E+00 0. -1.
         21   -1    0    0  501  502 -0.00000000000E+00 -0.00000000000E+00 -0.12830919675E+02  0.12830919675E+02  0.00000000000E+00 0. -1.
         25    1    1    2    0    0  0.00000000000E+00  0.00000000000E+00  0.29160945553E+03  0.31727129488E+03  0.12500000000E+03 0.  0.
<mgrwt>
<rscale>  2 0.12500000E+03</rscale>
<asrwt>0</asrwt>
<pdfrwt beam="1">  1       21 0.46836975E-01 0.12500000E+03</pdfrwt>
<pdfrwt beam="2">  1       21 0.19739879E-02 0.12500000E+03</pdfrwt>
<totfact> 0.54050292E+06</totfact>
</mgrwt>
</event>
<event>
 3    0  0.1424646E+001  0.1250000E+03  0.7546771E-02  0.1235069E+00
         21   -1    0    0  502  501  0.00000000000E+00  0.00000000000E+00  0.78523166174E+01  0.78523166174E+01  0.00000000000E+00 0. -1.
         21   -1    0    0  501  502 -0.00000000000E+00 -0.00000000000E+00 -0.49746465792E+03  0.49746465792E+03  0.00000000000E+00 0. -1.
         25    1    1    2    0    0  0.00000000000E+00  0.00000000000E+00 -0.48961234131E+03  0.50531697454E+03  0.12500000000E+03 0.  0.
<mgrwt>
<rscale>  2 0.12500000E+03</rscale>
<asrwt>0</asrwt>
<pdfrwt beam="1">  1       21 0.12080484E-02 0.12500000E+03</pdfrwt>
<pdfrwt beam="2">  1       21 0.76533042E-01 0.12500000E+03</pdfrwt>
<totfact> 0.41757173E+06</totfact>
</mgrwt>
</event>
<event>
 3    0  0.1442969E+001  0.1250000E+03  0.7546771E-02  0.1235069E+00
         21   -1    0    0  502  501  0.00000000000E+00  0.00000000000E+00  0.48915328112E+03  0.48915328112E+03  0.00000000000E+00 0. -1.
         21   -1    0    0  501  502 -0.00000000000E+00 -0.00000000000E+00 -0.79857381127E+01  0.79857381127E+01  0.00000000000E+00 0. -1.
         25    1    1    2    0    0  0.00000000000E+00  0.00000000000E+00  0.48116754301E+03  0.49713901923E+03  0.12500000000E+03 0.  0.
<mgrwt>
<rscale>  2 0.12500000E+03</rscale>
<asrwt>0</asrwt>
<pdfrwt beam="1">  1       21 0.75254328E-01 0.12500000E+03</pdfrwt>
<pdfrwt beam="2">  1       21 0.12285755E-02 0.12500000E+03</pdfrwt>
<totfact> 0.42199662E+06</totfact>
</mgrwt>
</event>
<event>
 3    0  0.1711574E+001  0.1250000E+03  0.7546771E-02  0.1235069E+00
         21   -1    0    0  502  501  0.00000000000E+00  0.00000000000E+00  0.56734595254E+02  0.56734595254E+02  0.00000000000E+00 0.  1.
         21   -1    0    0  501  502 -0.00000000000E+00 -0.00000000000E+00 -0.68851288750E+02  0.68851288750E+02  0.00000000000E+00 0.  1.
         25    1    1    2    0    0  0.00000000000E+00  0.00000000000E+00 -0.12116693496E+02  0.12558588400E+03  0.12500000000E+03 0.  0.
<mgrwt>
<rscale>  2 0.12500000E+03</rscale>
<asrwt>0</asrwt>
<pdfrwt beam="1">  1       21 0.87283993E-02 0.12500000E+03</pdfrwt>
<pdfrwt beam="2">  1       21 0.10592506E-01 0.12500000E+03</pdfrwt>
<totfact> 0.73963409E+06</totfact>
</mgrwt>
</event>
<event>
 3    0  0.1712509E+001  0.1250000E+03  0.7546771E-02  0.1235069E+00
         21   -1    0    0  502  501  0.00000000000E+00  0.00000000000E+00  0.62581048514E+02  0.62581048514E+02  0.00000000000E+00 0.  1.
         21   -1    0    0  501  502 -0.00000000000E+00 -0.00000000000E+00 -0.62419056452E+02  0.62419056452E+02  0.00000000000E+00 0.  1.
         25    1    1    2    0    0  0.00000000000E+00  0.00000000000E+00  0.16199206220E+00  0.12500010497E+03  0.12500000000E+03 0.  0.
<mgrwt>
<rscale>  2 0.12500000E+03</rscale>
<asrwt>0</asrwt>
<pdfrwt beam="1">  1       21 0.96278536E-02 0.12500000E+03</pdfrwt>
<pdfrwt beam="2">  1       21 0.96029318E-02 0.12500000E+03</pdfrwt>
<totfact> 0.74043567E+06</totfact>
</mgrwt>
</event>
<event>
 3    0  0.1615231E+001  0.1250000E+03  0.7546771E-02  0.1235069E+00
         21   -1    0    0  502  501  0.00000000000E+00  0.00000000000E+00  0.17011134906E+02  0.17011134906E+02  0.00000000000E+00 0.  1.
         21   -1    0    0  501  502 -0.00000000000E+00 -0.00000000000E+00 -0.22962900604E+03  0.22962900604E+03  0.00000000000E+00 0.  1.
         25    1    1    2    0    0  0.00000000000E+00  0.00000000000E+00 -0.21261787113E+03  0.24664014094E+03  0.12500000000E+03 0.  0.
<mgrwt>
<rscale>  2 0.12500000E+03</rscale>
<asrwt>0</asrwt>
<pdfrwt beam="1">  1       21 0.26170976E-02 0.12500000E+03</pdfrwt>
<pdfrwt beam="2">  1       21 0.35327540E-01 0.12500000E+03</pdfrwt>
<totfact> 0.60195964E+06</totfact>
</mgrwt>
</event>
<event>
 3    0  0.1709928E+001  0.1250000E+03  0.7546771E-02  0.1235069E+00
         21   -1    0    0  502  501  0.00000000000E+00  0.00000000000E+00  0.74114944000E+02  0.74114944000E+02  0.00000000000E+00 0.  1.
         21   -1    0    0  501  502 -0.00000000000E+00 -0.00000000000E+00 -0.52705295169E+02  0.52705295169E+02  0.00000000000E+00 0.  1.
         25    1    1    2    0    0  0.00000000000E+00  0.00000000000E+00  0.21409648831E+02  0.12682023917E+03  0.12500000000E+03 0.  0.
<mgrwt>
<rscale>  2 0.12500000E+03</rscale>
<asrwt>0</asrwt>
<pdfrwt beam="1">  1       21 0.11402299E-01 0.12500000E+03</pdfrwt>
<pdfrwt beam="2">  1       21 0.81085069E-02 0.12500000E+03</pdfrwt>
<totfact> 0.73793628E+06</totfact>
</mgrwt>
</event>
<event>
 3    0  0.1410476E+001  0.1250000E+03  0.7546771E-02  0.1235069E+00
         21   -1    0    0  502  501  0.00000000000E+00  0.00000000000E+00  0.58581450901E+03  0.58581450901E+03  0.00000000000E+00 0.  1.
         21   -1    0    0  501  502 -0.00000000000E+00 -0.00000000000E+00 -0.66680663246E+01  0.66680663246E+01  0.00000000000E+00 0.  1.
         25    1    1    2    0    0  0.00000000000E+00  0.00000000000E+00  0.57914644268E+03  0.59248257533E+03  0.12500000000E+03 0.  0.
<mgrwt>
<rscale>  2 0.12500000E+03</rscale>
<asrwt>0</asrwt>
<pdfrwt beam="1">  1       21 0.90125269E-01 0.12500000E+03</pdfrwt>
<pdfrwt beam="2">  1       21 0.10258568E-02 0.12500000E+03</pdfrwt>
<totfact> 0.37434830E+06</totfact>
</mgrwt>
</event>
<event>
 3    0  0.1686322E+001  0.1250000E+03  0.7546771E-02  0.1235069E+00
         21   -1    0    0  502  501  0.00000000000E+00  0.00000000000E+00  0.76874131809E+02  0.76874131809E+02  0.00000000000E+00 0. -1.
         21   -1    0    0  501  502 -0.00000000000E+00 -0.00000000000E+00 -0.50813581995E+02  0.50813581995E+02  0.00000000000E+00 0. -1.
         25    1    1    2    0    0  0.00000000000E+00  0.00000000000E+00  0.26060549814E+02  0.12768771380E+03  0.12500000000E+03 0.  0.
<mgrwt>
<rscale>  2 0.12500000E+03</rscale>
<asrwt>0</asrwt>
<pdfrwt beam="1">  1       21 0.11826789E-01 0.12500000E+03</pdfrwt>
<pdfrwt beam="2">  1       21 0.78174742E-02 0.12500000E+03</pdfrwt>
<totfact> 0.73675789E+06</totfact>
</mgrwt>
</event>
<event>
 3    0  0.1509019E+001  0.1250000E+03  0.7546771E-02  0.1235069E+00
         21   -1    0    0  502  501  0.00000000000E+00  0.00000000000E+00  0.41661167443E+03  0.41661167443E+03  0.00000000000E+00 0.  1.
         21   -1    0    0  501  502 -0.00000000000E+00 -0.00000000000E+00 -0.93762374886E+01  0.93762374886E+01  0.00000000000E+00 0.  1.
         25    1    1    2    0    0  0.00000000000E+00  0.00000000000E+00  0.40723543695E+03  0.42598791192E+03  0.12500000000E+03 0.  0.
<mgrwt>
<rscale>  2 0.12500000E+03</rscale>
<asrwt>0</asrwt>
<pdfrwt beam="1">  1       21 0.64094089E-01 0.12500000E+03</pdfrwt>
<pdfrwt beam="2">  1       21 0.14424984E-02 0.12500000E+03</pdfrwt>
<totfact> 0.46364059E+06</totfact>
</mgrwt>
</event>
<event>
 3    0  0.1685250E+001  0.1250000E+03  0.7546771E-02  0.1235069E+00
         21   -1    0    0  502  501  0.00000000000E+00  0.00000000000E+00  0.29715114833E+02  0.29715114833E+02  0.00000000000E+00 0.  1.
         21   -1    0    0  501  502 -0.00000000000E+00 -0.00000000000E+00 -0.13145666850E+03  0.13145666850E+03  0.00000000000E+00 0.  1.
         25    1    1    2    0    0  0.00000000000E+00  0.00000000000E+00 -0.10174155366E+03  0.16117178333E+03  0.12500000000E+03 0.  0.
<mgrwt>
<rscale>  2 0.12500000E+03</rscale>
<asrwt>0</asrwt>
<pdfrwt beam="1">  1       21 0.45715560E-02 0.12500000E+03</pdfrwt>
<pdfrwt beam="2">  1       21 0.20224104E-01 0.12500000E+03</pdfrwt>
<totfact> 0.69376599E+06</totfact>
</mgrwt>
</event>
<event>
 3    0  0.1529033E+001  0.1250000E+03  0.7546771E-02  0.1235069E+00
         21   -1    0    0  502  501  0.00000000000E+00  0.00000000000E+00  0.10866793764E+02  0.10866793764E+02  0.00000000000E+00 0. -1.
         21   -1    0    0  501  502 -0.00000000000E+00 -0.00000000000E+00 -0.35946665454E+03  0.35946665454E+03  0.00000000000E+00 0. -1.
         25    1    1    2    0    0  0.00000000000E+00  0.00000000000E+00 -0.34859986077E+03  0.37033344830E+03  0.12500000000E+03 0.  0.
<mgrwt>
<rscale>  2 0.12500000E+03</rscale>
<asrwt>0</asrwt>
<pdfrwt beam="1">  1       21 0.16718146E-02 0.12500000E+03</pdfrwt>
<pdfrwt beam="2">  1       21 0.55302556E-01 0.12500000E+03</pdfrwt>
<totfact> 0.50070923E+06</totfact>
</mgrwt>
</event>
<event>
 3    0  0.1543034E+001  0.1250000E+03  0.7546771E-02  0.1235069E+00
         21   -1    0    0  502  501  0.00000000000E+00  0.00000000000E+00  0.11071878792E+02  0.11071878792E+02  0.00000000000E+00 0. -1.
         21   -1    0    0  501  502 -0.00000000000E+00 -0.00000000000E+00 -0.35280823368E+03  0.35280823368E+03  0.00000000000E+00 0. -1.
         25    1    1    2    0    0  0.00000000000E+00  0.00000000000E+00 -0.34173635489E+03  0.36388011248E+03  0.12500000000E+03 0.  0.
<mgrwt>
<rscale>  2 0.12500000E+03</rscale>
<asrwt>0</asrwt>
<pdfrwt beam="1">  1       21 0.17033660E-02 0.12500000E+03</pdfrwt>
<pdfrwt beam="2">  1       21 0.54278189E-01 0.12500000E+03</pdfrwt>
<totfact> 0.50529400E+06</totfact>
</mgrwt>
</event>
<event>
 3    0  0.1606618E+001  0.1250000E+03  0.7546771E-02  0.1235069E+00
         21   -1    0    0  502  501  0.00000000000E+00  0.00000000000E+00  0.15135281364E+02  0.15135281364E+02  0.00000000000E+00 0.  1.
         21   -1    0    0  501  502 -0.00000000000E+00 -0.00000000000E+00 -0.25808902432E+03  0.25808902432E+03  0.00000000000E+00 0.  1.
         25    1    1    2    0    0  0.00000000000E+00  0.00000000000E+00 -0.24295374295E+03  0.27322430568E+03  0.12500000000E+03 0.  0.
<mgrwt>
<rscale>  2 0.12500000E+03</rscale>
<asrwt>0</asrwt>
<pdfrwt beam="1">  1       21 0.23285051E-02 0.12500000E+03</pdfrwt>
<pdfrwt beam="2">  1       21 0.39706000E-01 0.12500000E+03</pdfrwt>
<totfact> 0.57757424E+06</totfact>
</mgrwt>
</event>
<event>
 3    0  0.1653699E+001  0.1250000E+03  0.7546771E-02  0.1235069E+00
         21   -1    0    0  502  501  0.00000000000E+00  0.00000000000E+00  0.12918990004E+03  0.12918990004E+03  0.00000000000E+00 0. -1.
         21   -1    0    0  501  502 -0.00000000000E+00 -0.00000000000E+00 -0.30236496807E+02  0.30236496807E+02  0.00000000000E+00 0. -1.
         25    1    1    2    0    0  0.00000000000E+00  0.00000000000E+00  0.98953403232E+02  0.15942639685E+03  0.12500000000E+03 0.  0.
<mgrwt>
<rscale>  2 0.12500000E+03</rscale>
<asrwt>0</asrwt>
<pdfrwt beam="1">  1       21 0.19875369E-01 0.12500000E+03</pdfrwt>
<pdfrwt beam="2">  1       21 0.46517688E-02 0.12500000E+03</pdfrwt>
<totfact> 0.69589652E+06</totfact>
</mgrwt>
</event>
<event>
 3    0  0.1707730E+001  0.1250000E+03  0.7546771E-02  0.1235069E+00
         21   -1    0    0  502  501  0.00000000000E+00  0.00000000000E+00  0.46288151786E+02  0.46288151786E+02  0.00000000000E+00 0.  1.
         21   -1    0    0  501  502 -0.00000000000E+00 -0.00000000000E+00 -0.84389845982E+02  0.84389845982E+02  0.00000000000E+00 0.  1.
         25    1    1    2    0    0  0.00000000000E+00  0.00000000000E+00 -0.38101694196E+02  0.13067799777E+03  0.12500000000E+03 0.  0.
<mgrwt>
<rscale>  2 0.12500000E+03</rscale>
<asrwt>0</asrwt>
<pdfrwt beam="1">  1       21 0.71212543E-02 0.12500000E+03</pdfrwt>
<pdfrwt beam="2">  1       21 0.12983053E-01 0.12500000E+03</pdfrwt>
<totfact> 0.73274097E+06</totfact>
</mgrwt>
</event>
<event>
 3    0  0.1678093E+001  0.1250000E+03  0.7546771E-02  0.1235069E+00
         21   -1    0    0  502  501  0.00000000000E+00  0.00000000000E+00  0.99912333602E+02  0.99912333602E+02  0.00000000000E+00 0. -1.
         21   -1    0    0  501  502 -0.00000000000E+00 -0.00000000000E+00 -0.39096774734E+02  0.39096774734E+02  0.00000000000E+00 0. -1.
         25    1    1    2    0    0  0.00000000000E+00  0.00000000000E+00  0.60815558867E+02  0.13900910834E+03  0.12500000000E+03 0.  0.
<mgrwt>
<rscale>  2 0.12500000E+03</rscale>
<asrwt>0</asrwt>
<pdfrwt beam="1">  1       21 0.15371128E-01 0.12500000E+03</pdfrwt>
<pdfrwt beam="2">  1       21 0.60148884E-02 0.12500000E+03</pdfrwt>
<totfact> 0.72168932E+06</totfact>
</mgrwt>
</event>
<event>
 3    0  0.1699095E+001  0.1250000E+03  0.7546771E-02  0.1235069E+00
         21   -1    0    0  502  501  0.00000000000E+00  0.00000000000E+00  0.10469118530E+03  0.10469118530E+03  0.00000000000E+00 0.  1.
         21   -1    0    0  501  502 -0.00000000000E+00 -0.00000000000E+00 -0.37312119342E+02  0.37312119342E+02  0.00000000000E+00 0.  1.
         25    1    1    2    0    0  0.00000000000E+00  0.00000000000E+00  0.67379065957E+02  0.14200330464E+03  0.12500000000E+03 0.  0.
<mgrwt>
<rscale>  2 0.12500000E+03</rscale>
<asrwt>0</asrwt>
<pdfrwt beam="1">  1       21 0.16106336E-01 0.12500000E+03</pdfrwt>
<pdfrwt beam="2">  1       21 0.57403261E-02 0.12500000E+03</pdfrwt>
<totfact> 0.71778848E+06</totfact>
</mgrwt>
</event>
<event>
 3    0  0.1510133E+001  0.1250000E+03  0.7546771E-02  0.1235069E+00
         21   -1    0    0  502  501  0.00000000000E+00  0.00000000000E+00  0.93841931165E+01  0.93841931165E+01  0.00000000000E+00 0.  1.
         21   -1    0    0  501  502 -0.00000000000E+00 -0.00000000000E+00 -0.41625848398E+03  0.41625848398E+03  0.00000000000E+00 0.  1.
         25    1    1    2    0    0  0.00000000000E+00  0.00000000000E+00 -0.40687429086E+03  0.42564267709E+03  0.12500000000E+03 0.  0.
<mgrwt>
<rscale>  2 0.12500000E+03</rscale>
<asrwt>0</asrwt>
<pdfrwt beam="1">  1       21 0.14437221E-02 0.12500000E+03</pdfrwt>
<pdfrwt beam="2">  1       21 0.64039761E-01 0.12500000E+03</pdfrwt>
<totfact> 0.46385745E+06</totfact>
</mgrwt>
</event>
<event>
 3    0  0.1681000E+001  0.1250000E+03  0.7546771E-02  0.1235069E+00
         21   -1    0    0  502  501  0.00000000000E+00  0.00000000000E+00  0.90708227211E+02  0.90708227211E+02  0.00000000000E+00 0. -1.
         21   -1    0    0  501  502 -0.00000000000E+00 -0.00000000000E+00 -0.43063899716E+02  0.43063899716E+02  0.00000000000E+00 0. -1.
         25    1    1    2    0    0  0.00000000000E+00  0.00000000000E+00  0.47644327495E+02  0.13377212693E+03  0.12500000000E+03 0.  0.
<mgrwt>
<rscale>  2 0.12500000E+03</rscale>
<asrwt>0</asrwt>
<pdfrwt beam="1">  1       21 0.13955112E-01 0.12500000E+03</pdfrwt>
<pdfrwt beam="2">  1       21 0.66252154E-02 0.12500000E+03</pdfrwt>
<totfact> 0.72859466E+06</totfact>
</mgrwt>
</event>
<event>
 3    0  0.1691918E+001  0.1250000E+03  0.7546771E-02  0.1235069E+00
         21   -1    0    0  502  501  0.00000000000E+00  0.00000000000E+00  0.28244223700E+02  0.28244223700E+02  0.00000000000E+00 0.  1.
         21   -1    0    0  501  502 -0.00000000000E+00 -0.00000000000E+00 -0.13830261513E+03  0.13830261513E+03  0.00000000000E+00 0.  1.
         25    1    1    2    0    0  0.00000000000E+00  0.00000000000E+00 -0.11005839143E+03  0.16654683883E+03  0.12500000000E+03 0.  0.
<mgrwt>
<rscale>  2 0.12500000E+03</rscale>
<asrwt>0</asrwt>
<pdfrwt beam="1">  1       21 0.43452652E-02 0.12500000E+03</pdfrwt>
<pdfrwt beam="2">  1       21 0.21277325E-01 0.12500000E+03</pdfrwt>
<totfact> 0.68728260E+06</totfact>
</mgrwt>
</event>
<event>
 3    0  0.1641271E+001  0.1250000E+03  0.7546771E-02  0.1235069E+00
         21   -1    0    0  502  501  0.00000000000E+00  0.00000000000E+00  0.15219732768E+03  0.15219732768E+03  0.00000000000E+00 0. -1.
         21   -1    0    0  501  502 -0.00000000000E+00 -0.00000000000E+00 -0.25665693738E+02  0.25665693738E+02  0.00000000000E+00 0. -1.
         25    1    1    2    0    0  0.00000000000E+00  0.00000000000E+00  0.12653163394E+03  0.17786302142E+03  0.12500000000E+03 0.  0.
<mgrwt>
<rscale>  2 0.12500000E+03</rscale>
<asrwt>0</asrwt>
<pdfrwt beam="1">  1       21 0.23414973E-01 0.12500000E+03</pdfrwt>
<pdfrwt beam="2">  1       21 0.39485684E-02 0.12500000E+03</pdfrwt>
<totfact> 0.67397533E+06</totfact>
</mgrwt>
</event>
<event>
 3    0  0.1711343E+001  0.1250000E+03  0.7546771E-02  0.1235069E+00
         21   -1    0    0  502  501  0.00000000000E+00  0.00000000000E+00  0.51207171027E+02  0.51207171027E+02  0.00000000000E+00 0.  1.
         21   -1    0    0  501  502 -0.00000000000E+00 -0.00000000000E+00 -0.76283261146E+02  0.76283261146E+02  0.00000000000E+00 0.  1.
         25    1    1    2    0    0  0.00000000000E+00  0.00000000000E+00 -0.25076090119E+02  0.12749043217E+03  0.12500000000E+03 0.  0.
<mgrwt>
<rscale>  2 0.12500000E+03</rscale>
<asrwt>0</asrwt>
<pdfrwt beam="1">  1       21 0.78780264E-02 0.12500000E+03</pdfrwt>
<pdfrwt beam="2">  1       21 0.11735886E-01 0.12500000E+03</pdfrwt>
<totfact> 0.73702515E+06</totfact>
</mgrwt>
</event>
<event>
 3    0  0.1507717E+001  0.1250000E+03  0.7546771E-02  0.1235069E+00
         21   -1    0    0  502  501  0.00000000000E+00  0.00000000000E+00  0.87909299398E+01  0.87909299398E+01  0.00000000000E+00 0.  1.
         21   -1    0    0  501  502 -0.00000000000E+00 -0.00000000000E+00 -0.44435003200E+03  0.44435003200E+03  0.00000000000E+00 0.  1.
         25    1    1    2    0    0  0.00000000000E+00  0.00000000000E+00 -0.43555910206E+03  0.45314096194E+03  0.12500000000E+03 0.  0.
<mgrwt>
<rscale>  2 0.12500000E+03</rscale>
<asrwt>0</asrwt>
<pdfrwt beam="1">  1       21 0.13524511E-02 0.12500000E+03</pdfrwt>
<pdfrwt beam="2">  1       21 0.68361527E-01 0.12500000E+03</pdfrwt>
<totfact> 0.44704922E+06</totfact>
</mgrwt>
</event>
<event>
 3    0  0.1685493E+001  0.1250000E+03  0.7546771E-02  0.1235069E+00
         21   -1    0    0  502  501  0.00000000000E+00  0.00000000000E+00  0.52503118346E+02  0.52503118346E+02  0.00000000000E+00 0. -1.
         21   -1    0    0  501  502 -0.00000000000E+00 -0.00000000000E+00 -0.74400342743E+02  0.74400342743E+02  0.00000000000E+00 0. -1.
         25    1    1    2    0    0  0.00000000000E+00  0.00000000000E+00 -0.21897224397E+02  0.12690346109E+03  0.12500000000E+03 0.  0.
<mgrwt>
<rscale>  2 0.12500000E+03</rscale>
<asrwt>0</asrwt>
<pdfrwt beam="1">  1       21 0.80774029E-02 0.12500000E+03</pdfrwt>
<pdfrwt beam="2">  1       21 0.11446207E-01 0.12500000E+03</pdfrwt>
<totfact> 0.73782284E+06</totfact>
</mgrwt>
</event>
<event>
 3    0  0.1451879E+001  0.1250000E+03  0.7546771E-02  0.1235069E+00
         21   -1    0    0  502  501  0.00000000000E+00  0.00000000000E+00  0.43503091222E+03  0.43503091222E+03  0.00000000000E+00 0. -1.
         21   -1    0    0  501  502 -0.00000000000E+00 -0.00000000000E+00 -0.89792469690E+01  0.89792469690E+01  0.00000000000E+00 0. -1.
         25    1    1    2    0    0  0.00000000000E+00  0.00000000000E+00  0.42605166525E+03  0.44401015919E+03  0.12500000000E+03 0.  0.
<mgrwt>
<rscale>  2 0.12500000E+03</rscale>
<asrwt>0</asrwt>
<pdfrwt beam="1">  1       21 0.66927816E-01 0.12500000E+03</pdfrwt>
<pdfrwt beam="2">  1       21 0.13814229E-02 0.12500000E+03</pdfrwt>
<totfact> 0.45252875E+06</totfact>
</mgrwt>
</event>
<event>
 3    0  0.1703064E+001  0.1250000E+03  0.7546771E-02  0.1235069E+00
         21   -1    0    0  502  501  0.00000000000E+00  0.00000000000E+00  0.39315881744E+02  0.39315881744E+02  0.00000000000E+00 0.  1.
         21   -1    0    0  501  502 -0.00000000000E+00 -0.00000000000E+00 -0.99355523181E+02  0.99355523181E+02  0.00000000000E+00 0.  1.
         25    1    1    2    0    0  0.00000000000E+00  0.00000000000E+00 -0.60039641437E+02  0.13867140492E+03  0.12500000000E+03 0.  0.
<mgrwt>
<rscale>  2 0.12500000E+03</rscale>
<asrwt>0</asrwt>
<pdfrwt beam="1">  1       21 0.60485973E-02 0.12500000E+03</pdfrwt>
<pdfrwt beam="2">  1       21 0.15285465E-01 0.12500000E+03</pdfrwt>
<totfact> 0.72213232E+06</totfact>
</mgrwt>
</event>
<event>
 3    0  0.1451091E+001  0.1250000E+03  0.7546771E-02  0.1235069E+00
         21   -1    0    0  502  501  0.00000000000E+00  0.00000000000E+00  0.46358844410E+03  0.46358844410E+03  0.00000000000E+00 0. -1.
         21   -1    0    0  501  502 -0.00000000000E+00 -0.00000000000E+00 -0.84261159866E+01  0.84261159866E+01  0.00000000000E+00 0. -1.
         25    1    1    2    0    0  0.00000000000E+00  0.00000000000E+00  0.45516232811E+03  0.47201456008E+03  0.12500000000E+03 0.  0.
<mgrwt>
<rscale>  2 0.12500000E+03</rscale>
<asrwt>0</asrwt>
<pdfrwt beam="1">  1       21 0.71321279E-01 0.12500000E+03</pdfrwt>
<pdfrwt beam="2">  1       21 0.12963259E-02 0.12500000E+03</pdfrwt>
<totfact> 0.43603620E+06</totfact>
</mgrwt>
</event>
<event>
 3    0  0.1549837E+001  0.1250000E+03  0.7546771E-02  0.1235069E+00
         21   -1    0    0  502  501  0.00000000000E+00  0.00000000000E+00  0.35983678769E+03  0.35983678769E+03  0.00000000000E+00 0.  1.
         21   -1    0    0  501  502 -0.00000000000E+00 -0.00000000000E+00 -0.10855616028E+02  0.10855616028E+02  0.00000000000E+00 0.  1.
         25    1    1    2    0    0  0.00000000000E+00  0.00000000000E+00  0.34898117167E+03  0.37069240372E+03  0.12500000000E+03 0.  0.
<mgrwt>
<rscale>  2 0.12500000E+03</rscale>
<asrwt>0</asrwt>
<pdfrwt beam="1">  1       21 0.55359497E-01 0.12500000E+03</pdfrwt>
<pdfrwt beam="2">  1       21 0.16700950E-02 0.12500000E+03</pdfrwt>
<totfact> 0.50045616E+06</totfact>
</mgrwt>
</event>
<event>
 3    0  0.1368989E+001  0.1250000E+03  0.7546771E-02  0.1235069E+00
         21   -1    0    0  502  501  0.00000000000E+00  0.00000000000E+00  0.41803344335E+01  0.41803344335E+01  0.00000000000E+00 0. -1.
         21   -1    0    0  501  502 -0.00000000000E+00 -0.00000000000E+00 -0.93443480710E+03  0.93443480710E+03  0.00000000000E+00 0. -1.
         25    1    1    2    0    0  0.00000000000E+00  0.00000000000E+00 -0.93025447267E+03  0.93861514153E+03  0.12500000000E+03 0.  0.
<mgrwt>
<rscale>  2 0.12500000E+03</rscale>
<asrwt>0</asrwt>
<pdfrwt beam="1">  1       21 0.64312899E-03 0.12500000E+03</pdfrwt>
<pdfrwt beam="2">  1       21 0.14375906E+00 0.12500000E+03</pdfrwt>
<totfact> 0.25218744E+06</totfact>
</mgrwt>
</event>
<event>
 3    0  0.1368989E+001  0.1250000E+03  0.7546771E-02  0.1235069E+00
         21   -1    0    0  502  501  0.00000000000E+00  0.00000000000E+00  0.41008869967E+01  0.41008869967E+01  0.00000000000E+00 0. -1.
         21   -1    0    0  501  502 -0.00000000000E+00 -0.00000000000E+00 -0.95253782978E+03  0.95253782978E+03  0.00000000000E+00 0. -1.
         25    1    1    2    0    0  0.00000000000E+00  0.00000000000E+00 -0.94843694279E+03  0.95663871678E+03  0.12500000000E+03 0.  0.
<mgrwt>
<rscale>  2 0.12500000E+03</rscale>
<asrwt>0</asrwt>
<pdfrwt beam="1">  1       21 0.63090630E-03 0.12500000E+03</pdfrwt>
<pdfrwt beam="2">  1       21 0.14654414E+00 0.12500000E+03</pdfrwt>
<totfact> 0.24734523E+06</totfact>
</mgrwt>
</event>
<event>
 3    0  0.1602545E+001  0.1250000E+03  0.7546771E-02  0.1235069E+00
         21   -1    0    0  502  501  0.00000000000E+00  0.00000000000E+00  0.15033178158E+02  0.15033178158E+02  0.00000000000E+00 0.  1.
         21   -1    0    0  501  502 -0.00000000000E+00 -0.00000000000E+00 -0.25984192823E+03  0.25984192823E+03  0.00000000000E+00 0.  1.
         25    1    1    2    0    0  0.00000000000E+00  0.00000000000E+00 -0.24480875007E+03  0.27487510639E+03  0.12500000000E+03 0.  0.
<mgrwt>
<rscale>  2 0.12500000E+03</rscale>
<asrwt>0</asrwt>
<pdfrwt beam="1">  1       21 0.23127966E-02 0.12500000E+03</pdfrwt>
<pdfrwt beam="2">  1       21 0.39975681E-01 0.12500000E+03</pdfrwt>
<totfact> 0.57610992E+06</totfact>
</mgrwt>
</event>
<event>
 3    0  0.1514788E+001  0.1250000E+03  0.7546771E-02  0.1235069E+00
         21   -1    0    0  502  501  0.00000000000E+00  0.00000000000E+00  0.36609522254E+03  0.36609522254E+03  0.00000000000E+00 0. -1.
         21   -1    0    0  501  502 -0.00000000000E+00 -0.00000000000E+00 -0.10670038174E+02  0.10670038174E+02  0.00000000000E+00 0. -1.
         25    1    1    2    0    0  0.00000000000E+00  0.00000000000E+00  0.35542518437E+03  0.37676526072E+03  0.12500000000E+03 0.  0.
<mgrwt>
<rscale>  2 0.12500000E+03</rscale>
<asrwt>0</asrwt>
<pdfrwt beam="1">  1       21 0.56322332E-01 0.12500000E+03</pdfrwt>
<pdfrwt beam="2">  1       21 0.16415446E-02 0.12500000E+03</pdfrwt>
<totfact> 0.49620479E+06</totfact>
</mgrwt>
</event>
<event>
 3    0  0.1510270E+001  0.1250000E+03  0.7546771E-02  0.1235069E+00
         21   -1    0    0  502  501  0.00000000000E+00  0.00000000000E+00  0.11350451487E+02  0.11350451487E+02  0.00000000000E+00 0. -1.
         21   -1    0    0  501  502 -0.00000000000E+00 -0.00000000000E+00 -0.34414930581E+03  0.34414930581E+03  0.00000000000E+00 0. -1.
         25    1    1    2    0    0  0.00000000000E+00  0.00000000000E+00 -0.33279885432E+03  0.35549975730E+03  0.12500000000E+03 0.  0.
<mgrwt>
<rscale>  2 0.12500000E+03</rscale>
<asrwt>0</asrwt>
<pdfrwt beam="1">  1       21 0.17462231E-02 0.12500000E+03</pdfrwt>
<pdfrwt beam="2">  1       21 0.52946053E-01 0.12500000E+03</pdfrwt>
<totfact> 0.51134804E+06</totfact>
</mgrwt>
</event>
<event>
 3    0  0.1578168E+001  0.1250000E+03  0.7546771E-02  0.1235069E+00
         21   -1    0    0  502  501  0.00000000000E+00  0.00000000000E+00  0.29439383134E+03  0.29439383134E+03  0.00000000000E+00 0.  1.
         21   -1    0    0  501  502 -0.00000000000E+00 -0.00000000000E+00 -0.13268790253E+02  0.13268790253E+02  0.00000000000E+00 0.  1.
         25    1    1    2    0    0  0.00000000000E+00  0.00000000000E+00  0.28112504109E+03  0.30766262160E+03  0.12500000000E+03 0.  0.
<mgrwt>
<rscale>  2 0.12500000E+03</rscale>
<asrwt>0</asrwt>
<pdfrwt beam="1">  1       21 0.45291354E-01 0.12500000E+03</pdfrwt>
<pdfrwt beam="2">  1       21 0.20413526E-02 0.12500000E+03</pdfrwt>
<totfact> 0.54825334E+06</totfact>
</mgrwt>
</event>
<event>
 3    0  0.1447615E+001  0.1250000E+03  0.7546771E-02  0.1235069E+00
         21   -1    0    0  502  501  0.00000000000E+00  0.00000000000E+00  0.78729517133E+01  0.78729517133E+01  0.00000000000E+00 0.  1.
         21   -1    0    0  501  502 -0.00000000000E+00 -0.00000000000E+00 -0.49616079740E+03  0.49616079740E+03  0.00000000000E+00 0.  1.
         25    1    1    2    0    0  0.00000000000E+00  0.00000000000E+00 -0.48828784569E+03  0.50403374912E+03  0.12500000000E+03 0.  0.
<mgrwt>
<rscale>  2 0.12500000E+03</rscale>
<asrwt>0</asrwt>
<pdfrwt beam="1">  1       21 0.12112235E-02 0.12500000E+03</pdfrwt>
<pdfrwt beam="2">  1       21 0.76332422E-01 0.12500000E+03</pdfrwt>
<totfact> 0.41826155E+06</totfact>
</mgrwt>
</event>
<event>
 3    0  0.1368989E+001  0.1250000E+03  0.7546771E-02  0.1235069E+00
         21   -1    0    0  502  501  0.00000000000E+00  0.00000000000E+00  0.32901497449E+01  0.32901497449E+01  0.00000000000E+00 0. -1.
         21   -1    0    0  501  502 -0.00000000000E+00 -0.00000000000E+00 -0.11872559923E+04  0.11872559923E+04  0.00000000000E+00 0. -1.
         25    1    1    2    0    0  0.00000000000E+00  0.00000000000E+00 -0.11839658425E+04  0.11905461420E+04  0.12500000000E+03 0.  0.
<mgrwt>
<rscale>  2 0.12500000E+03</rscale>
<asrwt>0</asrwt>
<pdfrwt beam="1">  1       21 0.50617684E-03 0.12500000E+03</pdfrwt>
<pdfrwt beam="2">  1       21 0.18265478E+00 0.12500000E+03</pdfrwt>
<totfact> 0.19332788E+06</totfact>
</mgrwt>
</event>
<event>
 3    0  0.1628096E+001  0.1250000E+03  0.7546771E-02  0.1235069E+00
         21   -1    0    0  502  501  0.00000000000E+00  0.00000000000E+00  0.18720337979E+03  0.18720337979E+03  0.00000000000E+00 0. -1.
         21   -1    0    0  501  502 -0.00000000000E+00 -0.00000000000E+00 -0.20866343356E+02  0.20866343356E+02  0.00000000000E+00 0. -1.
         25    1    1    2    0    0  0.00000000000E+00  0.00000000000E+00  0.16633703643E+03  0.20806972314E+03  0.12500000000E+03 0.  0.
<mgrwt>
<rscale>  2 0.12500000E+03</rscale>
<asrwt>0</asrwt>
<pdfrwt beam="1">  1       21 0.28800519E-01 0.12500000E+03</pdfrwt>
<pdfrwt beam="2">  1       21 0.32102068E-02 0.12500000E+03</pdfrwt>
<totfact> 0.64063197E+06</totfact>
</mgrwt>
</event>
<event>
 3    0  0.1708575E+001  0.1250000E+03  0.7546771E-02  0.1235069E+00
         21   -1    0    0  502  501  0.00000000000E+00  0.00000000000E+00  0.81617115696E+02  0.81617115696E+02  0.00000000000E+00 0.  1.
         21   -1    0    0  501  502 -0.00000000000E+00 -0.00000000000E+00 -0.47860671952E+02  0.47860671952E+02  0.00000000000E+00 0.  1.
         25    1    1    2    0    0  0.00000000000E+00  0.00000000000E+00  0.33756443743E+02  0.12947778765E+03  0.12500000000E+03 0.  0.
<mgrwt>
<rscale>  2 0.12500000E+03</rscale>
<asrwt>0</asrwt>
<pdfrwt beam="1">  1       21 0.12556479E-01 0.12500000E+03</pdfrwt>
<pdfrwt beam="2">  1       21 0.73631803E-02 0.12500000E+03</pdfrwt>
<totfact> 0.73434792E+06</totfact>
</mgrwt>
</event>
<event>
 3    0  0.1671570E+001  0.1250000E+03  0.7546771E-02  0.1235069E+00
         21   -1    0    0  502  501  0.00000000000E+00  0.00000000000E+00  0.25140017869E+02  0.25140017869E+02  0.00000000000E+00 0.  1.
         21   -1    0    0  501  502 -0.00000000000E+00 -0.00000000000E+00 -0.15537976227E+03  0.15537976227E+03  0.00000000000E+00 0.  1.
         25    1    1    2    0    0  0.00000000000E+00  0.00000000000E+00 -0.13023974440E+03  0.18051978014E+03  0.12500000000E+03 0.  0.
<mgrwt>
<rscale>  2 0.12500000E+03</rscale>
<asrwt>0</asrwt>
<pdfrwt beam="1">  1       21 0.38676951E-02 0.12500000E+03</pdfrwt>
<pdfrwt beam="2">  1       21 0.23904579E-01 0.12500000E+03</pdfrwt>
<totfact> 0.67091959E+06</totfact>
</mgrwt>
</event>
<event>
 3    0  0.1712561E+001  0.1250000E+03  0.7546771E-02  0.1235069E+00
         21   -1    0    0  502  501  0.00000000000E+00  0.00000000000E+00  0.59895938461E+02  0.59895938461E+02  0.00000000000E+00 0.  1.
         21   -1    0    0  501  502 -0.00000000000E+00 -0.00000000000E+00 -0.65217276837E+02  0.65217276837E+02  0.00000000000E+00 0.  1.
         25    1    1    2    0    0  0.00000000000E+00  0.00000000000E+00 -0.53213383762E+01  0.12511321530E+03  0.12500000000E+03 0.  0.
<mgrwt>
<rscale>  2 0.12500000E+03</rscale>
<asrwt>0</asrwt>
<pdfrwt beam="1">  1       21 0.92147598E-02 0.12500000E+03</pdfrwt>
<pdfrwt beam="2">  1       21 0.10033427E-01 0.12500000E+03</pdfrwt>
<totfact> 0.74028291E+06</totfact>
</mgrwt>
</event>
<event>
 3    0  0.1709820E+001  0.1250000E+03  0.7546771E-02  0.1235069E+00
         21   -1    0    0  502  501  0.00000000000E+00  0.00000000000E+00  0.74233735326E+02  0.74233735326E+02  0.00000000000E+00 0.  1.
         21   -1    0    0  501  502 -0.00000000000E+00 -0.00000000000E+00 -0.52620954379E+02  0.52620954379E+02  0.00000000000E+00 0.  1.
         25    1    1    2    0    0  0.00000000000E+00  0.00000000000E+00  0.21612780947E+02  0.12685468971E+03  0.12500000000E+03 0.  0.
<mgrwt>
<rscale>  2 0.12500000E+03</rscale>
<asrwt>0</asrwt>
<pdfrwt beam="1">  1       21 0.11420575E-01 0.12500000E+03</pdfrwt>
<pdfrwt beam="2">  1       21 0.80955314E-02 0.12500000E+03</pdfrwt>
<totfact> 0.73788931E+06</totfact>
</mgrwt>
</event>
<event>
 3    0  0.1487912E+001  0.1250000E+03  0.7546771E-02  0.1235069E+00
         21   -1    0    0  502  501  0.00000000000E+00  0.00000000000E+00  0.39583892011E+03  0.39583892011E+03  0.00000000000E+00 0. -1.
         21   -1    0    0  501  502 -0.00000000000E+00 -0.00000000000E+00 -0.98682817721E+01  0.98682817721E+01  0.00000000000E+00 0. -1.
         25    1    1    2    0    0  0.00000000000E+00  0.00000000000E+00  0.38597063834E+03  0.40570720188E+03  0.12500000000E+03 0.  0.
<mgrwt>
<rscale>  2 0.12500000E+03</rscale>
<asrwt>0</asrwt>
<pdfrwt beam="1">  1       21 0.60898283E-01 0.12500000E+03</pdfrwt>
<pdfrwt beam="2">  1       21 0.15181975E-02 0.12500000E+03</pdfrwt>
<totfact> 0.47665093E+06</totfact>
</mgrwt>
</event>
<event>
 3    0  0.1688190E+001  0.1250000E+03  0.7546771E-02  0.1235069E+00
         21   -1    0    0  502  501  0.00000000000E+00  0.00000000000E+00  0.59961259924E+02  0.59961259924E+02  0.00000000000E+00 0. -1.
         21   -1    0    0  501  502 -0.00000000000E+00 -0.00000000000E+00 -0.65146229498E+02  0.65146229498E+02  0.00000000000E+00 0. -1.
         25    1    1    2    0    0  0.00000000000E+00  0.00000000000E+00 -0.51849695746E+01  0.12510748942E+03  0.12500000000E+03 0.  0.
<mgrwt>
<rscale>  2 0.12500000E+03</rscale>
<asrwt>0</asrwt>
<pdfrwt beam="1">  1       21 0.92248092E-02 0.12500000E+03</pdfrwt>
<pdfrwt beam="2">  1       21 0.10022497E-01 0.12500000E+03</pdfrwt>
<totfact> 0.74029064E+06</totfact>
</mgrwt>
</event>
<event>
 3    0  0.1647987E+001  0.1250000E+03  0.7546771E-02  0.1235069E+00
         21   -1    0    0  502  501  0.00000000000E+00  0.00000000000E+00  0.18870219052E+03  0.18870219052E+03  0.00000000000E+00 0.  1.
         21   -1    0    0  501  502 -0.00000000000E+00 -0.00000000000E+00 -0.20700607604E+02  0.20700607604E+02  0.00000000000E+00 0.  1.
         25    1    1    2    0    0  0.00000000000E+00  0.00000000000E+00  0.16800158292E+03  0.20940279813E+03  0.12500000000E+03 0.  0.
<mgrwt>
<rscale>  2 0.12500000E+03</rscale>
<asrwt>0</asrwt>
<pdfrwt beam="1">  1       21 0.29031105E-01 0.12500000E+03</pdfrwt>
<pdfrwt beam="2">  1       21 0.31847090E-02 0.12500000E+03</pdfrwt>
<totfact> 0.63922423E+06</totfact>
</mgrwt>
</event>
<event>
 3    0  0.1712047E+001  0.1250000E+03  0.7546771E-02  0.1235069E+00
         21   -1    0    0  502  501  0.00000000000E+00  0.00000000000E+00  0.58470321280E+02  0.58470321280E+02  0.00000000000E+00 0.  1.
         21   -1    0    0  501  502 -0.00000000000E+00 -0.00000000000E+00 -0.66807397573E+02  0.66807397573E+02  0.00000000000E+00 0.  1.
         25    1    1    2    0    0  0.00000000000E+00  0.00000000000E+00 -0.83370762930E+01  0.12527771885E+03  0.12500000000E+03 0.  0.
<mgrwt>
<rscale>  2 0.12500000E+03</rscale>
<asrwt>0</asrwt>
<pdfrwt beam="1">  1       21 0.89954341E-02 0.12500000E+03</pdfrwt>
<pdfrwt beam="2">  1       21 0.10278061E-01 0.12500000E+03</pdfrwt>
<totfact> 0.74006079E+06</totfact>
</mgrwt>
</event>
<event>
 3    0  0.1710370E+001  0.1250000E+03  0.7546771E-02  0.1235069E+00
         21   -1    0    0  502  501  0.00000000000E+00  0.00000000000E+00  0.80191381132E+02  0.80191381132E+02  0.00000000000E+00 0.  1.
         21   -1    0    0  501  502 -0.00000000000E+00 -0.00000000000E+00 -0.48711594000E+02  0.48711594000E+02  0.00000000000E+00 0.  1.
         25    1    1    2    0    0  0.00000000000E+00  0.00000000000E+00  0.31479787132E+02  0.12890297513E+03  0.12500000000E+03 0.  0.
<mgrwt>
<rscale>  2 0.12500000E+03</rscale>
<asrwt>0</asrwt>
<pdfrwt beam="1">  1       21 0.12337136E-01 0.12500000E+03</pdfrwt>
<pdfrwt beam="2">  1       21 0.74940914E-02 0.12500000E+03</pdfrwt>
<totfact> 0.73511914E+06</totfact>
</mgrwt>
</event>
<event>
 3    0  0.1422552E+001  0.1250000E+03  0.7546771E-02  0.1235069E+00
         21   -1    0    0  502  501  0.00000000000E+00  0.00000000000E+00  0.71412260952E+01  0.71412260952E+01  0.00000000000E+00 0.  1.
         21   -1    0    0  501  502 -0.00000000000E+00 -0.00000000000E+00 -0.54699990561E+03  0.54699990561E+03  0.00000000000E+00 0.  1.
         25    1    1    2    0    0  0.00000000000E+00  0.00000000000E+00 -0.53985867951E+03  0.55414113170E+03  0.12500000000E+03 0.  0.
<mgrwt>
<rscale>  2 0.12500000E+03</rscale>
<asrwt>0</asrwt>
<pdfrwt beam="1">  1       21 0.10986503E-02 0.12500000E+03</pdfrwt>
<pdfrwt beam="2">  1       21 0.84153818E-01 0.12500000E+03</pdfrwt>
<totfact> 0.39252227E+06</totfact>
</mgrwt>
</event>
<event>
 3    0  0.1368989E+001  0.1250000E+03  0.7546771E-02  0.1235069E+00
         21   -1    0    0  502  501  0.00000000000E+00  0.00000000000E+00  0.99572682717E+03  0.99572682717E+03  0.00000000000E+00 0.  1.
         21   -1    0    0  501  502 -0.00000000000E+00 -0.00000000000E+00 -0.39230137156E+01  0.39230137156E+01  0.00000000000E+00 0.  1.
         25    1    1    2    0    0  0.00000000000E+00  0.00000000000E+00  0.99180381346E+03  0.99964984089E+03  0.12500000000E+03 0.  0.
<mgrwt>
<rscale>  2 0.12500000E+03</rscale>
<asrwt>0</asrwt>
<pdfrwt beam="1">  1       21 0.15318854E+00 0.12500000E+03</pdfrwt>
<pdfrwt beam="2">  1       21 0.60354137E-03 0.12500000E+03</pdfrwt>
<totfact> 0.23627472E+06</totfact>
</mgrwt>
</event>
<event>
 3    0  0.1686980E+001  0.1250000E+03  0.7546771E-02  0.1235069E+00
         21   -1    0    0  502  501  0.00000000000E+00  0.00000000000E+00  0.72468591930E+02  0.72468591930E+02  0.00000000000E+00 0. -1.
         21   -1    0    0  501  502 -0.00000000000E+00 -0.00000000000E+00 -0.53902661774E+02  0.53902661774E+02  0.00000000000E+00 0. -1.
         25    1    1    2    0    0  0.00000000000E+00  0.00000000000E+00  0.18565930156E+02  0.12637125370E+03  0.12500000000E+03 0.  0.
<mgrwt>
<rscale>  2 0.12500000E+03</rscale>
<asrwt>0</asrwt>
<pdfrwt beam="1">  1       21 0.11149014E-01 0.12500000E+03</pdfrwt>
<pdfrwt beam="2">  1       21 0.82927172E-02 0.12500000E+03</pdfrwt>
<totfact> 0.73855007E+06</totfact>
</mgrwt>
</event>
<event>
 3    0  0.1368989E+001  0.1250000E+03  0.7546771E-02  0.1235069E+00
         21   -1    0    0  502  501  0.00000000000E+00  0.00000000000E+00  0.63790077924E+03  0.63790077924E+03  0.00000000000E+00 0. -1.
         21   -1    0    0  501  502 -0.00000000000E+00 -0.00000000000E+00 -0.61236012357E+01  0.61236012357E+01  0.00000000000E+00 0. -1.
         25    1    1    2    0    0  0.00000000000E+00  0.00000000000E+00  0.63177717800E+03  0.64402438047E+03  0.12500000000E+03 0.  0.
<mgrwt>
<rscale>  2 0.12500000E+03</rscale>
<asrwt>0</asrwt>
<pdfrwt beam="1">  1       21 0.98138529E-01 0.12500000E+03</pdfrwt>
<pdfrwt beam="2">  1       21 0.94209300E-03 0.12500000E+03</pdfrwt>
<totfact> 0.35174296E+06</totfact>
</mgrwt>
</event>
<event>
 3    0  0.1658078E+001  0.1250000E+03  0.7546771E-02  0.1235069E+00
         21   -1    0    0  502  501  0.00000000000E+00  0.00000000000E+00  0.29400967464E+02  0.29400967464E+02  0.00000000000E+00 0. -1.
         21   -1    0    0  501  502 -0.00000000000E+00 -0.00000000000E+00 -0.13286127420E+03  0.13286127420E+03  0.00000000000E+00 0. -1.
         25    1    1    2    0    0  0.00000000000E+00  0.00000000000E+00 -0.10346030674E+03  0.16226224167E+03  0.12500000000E+03 0.  0.
<mgrwt>
<rscale>  2 0.12500000E+03</rscale>
<asrwt>0</asrwt>
<pdfrwt beam="1">  1       21 0.45232258E-02 0.12500000E+03</pdfrwt>
<pdfrwt beam="2">  1       21 0.20440196E-01 0.12500000E+03</pdfrwt>
<totfact> 0.69244125E+06</totfact>
</mgrwt>
</event>
<event>
 3    0  0.1685600E+001  0.1250000E+03  0.7546771E-02  0.1235069E+00
         21   -1    0    0  502  501  0.00000000000E+00  0.00000000000E+00  0.54763936446E+02  0.54763936446E+02  0.00000000000E+00 0. -1.
         21   -1    0    0  501  502 -0.00000000000E+00 -0.00000000000E+00 -0.71328875415E+02  0.71328875415E+02  0.00000000000E+00 0. -1.
         25    1    1    2    0    0  0.00000000000E+00  0.00000000000E+00 -0.16564938968E+02  0.12609281186E+03  0.12500000000E+03 0.  0.
<mgrwt>
<rscale>  2 0.12500000E+03</rscale>
<asrwt>0</asrwt>
<pdfrwt beam="1">  1       21 0.84252210E-02 0.12500000E+03</pdfrwt>
<pdfrwt beam="2">  1       21 0.10973673E-01 0.12500000E+03</pdfrwt>
<totfact> 0.73893252E+06</totfact>
</mgrwt>
</event>
<event>
 3    0  0.1682459E+001  0.1250000E+03  0.7546771E-02  0.1235069E+00
         21   -1    0    0  502  501  0.00000000000E+00  0.00000000000E+00  0.85497910379E+02  0.85497910379E+02  0.00000000000E+00 0. -1.
         21   -1    0    0  501  502 -0.00000000000E+00 -0.00000000000E+00 -0.45688251124E+02  0.45688251124E+02  0.00000000000E+00 0. -1.
         25    1    1    2    0    0  0.00000000000E+00  0.00000000000E+00  0.39809659255E+02  0.13118616150E+03  0.12500000000E+03 0.  0.
<mgrwt>
<rscale>  2 0.12500000E+03</rscale>
<asrwt>0</asrwt>
<pdfrwt beam="1">  1       21 0.13153525E-01 0.12500000E+03</pdfrwt>
<pdfrwt beam="2">  1       21 0.70289618E-02 0.12500000E+03</pdfrwt>
<totfact> 0.73205595E+06</totfact>
</mgrwt>
</event>
<event>
 3    0  0.1707330E+001  0.1250000E+03  0.7546771E-02  0.1235069E+00
         21   -1    0    0  502  501  0.00000000000E+00  0.00000000000E+00  0.47433184681E+02  0.47433184681E+02  0.00000000000E+00 0.  1.
         21   -1    0    0  501  502 -0.00000000000E+00 -0.00000000000E+00 -0.82352682543E+02  0.82352682543E+02  0.00000000000E+00 0.  1.
         25    1    1    2    0    0  0.00000000000E+00  0.00000000000E+00 -0.34919497862E+02  0.12978586722E+03  0.12500000000E+03 0.  0.
<mgrwt>
<rscale>  2 0.12500000E+03</rscale>
<asrwt>0</asrwt>
<pdfrwt beam="1">  1       21 0.72974131E-02 0.12500000E+03</pdfrwt>
<pdfrwt beam="2">  1       21 0.12669643E-01 0.12500000E+03</pdfrwt>
<totfact> 0.73393547E+06</totfact>
</mgrwt>
</event>
<event>
 3    0  0.1638194E+001  0.1250000E+03  0.7546771E-02  0.1235069E+00
         21   -1    0    0  502  501  0.00000000000E+00  0.00000000000E+00  0.15351343216E+03  0.15351343216E+03  0.00000000000E+00 0. -1.
         21   -1    0    0  501  502 -0.00000000000E+00 -0.00000000000E+00 -0.25445656091E+02  0.25445656091E+02  0.00000000000E+00 0. -1.
         25    1    1    2    0    0  0.00000000000E+00  0.00000000000E+00  0.12806777607E+03  0.17895908825E+03  0.12500000000E+03 0.  0.
<mgrwt>
<rscale>  2 0.12500000E+03</rscale>
<asrwt>0</asrwt>
<pdfrwt beam="1">  1       21 0.23617451E-01 0.12500000E+03</pdfrwt>
<pdfrwt beam="2">  1       21 0.39147164E-02 0.12500000E+03</pdfrwt>
<totfact> 0.67271148E+06</totfact>
</mgrwt>
</event>
<event>
 3    0  0.1484244E+001  0.1250000E+03  0.7546771E-02  0.1235069E+00
         21   -1    0    0  502  501  0.00000000000E+00  0.00000000000E+00  0.81972330174E+01  0.81972330174E+01  0.00000000000E+00 0.  1.
         21   -1    0    0  501  502 -0.00000000000E+00 -0.00000000000E+00 -0.47653275095E+03  0.47653275095E+03  0.00000000000E+00 0.  1.
         25    1    1    2    0    0  0.00000000000E+00  0.00000000000E+00 -0.46833551794E+03  0.48472998397E+03  0.12500000000E+03 0.  0.
<mgrwt>
<rscale>  2 0.12500000E+03</rscale>
<asrwt>0</asrwt>
<pdfrwt beam="1">  1       21 0.12611124E-02 0.12500000E+03</pdfrwt>
<pdfrwt beam="2">  1       21 0.73312755E-01 0.12500000E+03</pdfrwt>
<totfact> 0.42884483E+06</totfact>
</mgrwt>
</event>
<event>
 3    0  0.1622198E+001  0.1250000E+03  0.7546771E-02  0.1235069E+00
         21   -1    0    0  502  501  0.00000000000E+00  0.00000000000E+00  0.18967590598E+03  0.18967590598E+03  0.00000000000E+00 0. -1.
         21   -1    0    0  501  502 -0.00000000000E+00 -0.00000000000E+00 -0.20594339486E+02  0.20594339486E+02  0.00000000000E+00 0. -1.
         25    1    1    2    0    0  0.00000000000E+00  0.00000000000E+00  0.16908156649E+03  0.21027024546E+03  0.12500000000E+03 0.  0.
<mgrwt>
<rscale>  2 0.12500000E+03</rscale>
<asrwt>0</asrwt>
<pdfrwt beam="1">  1       21 0.29180907E-01 0.12500000E+03</pdfrwt>
<pdfrwt beam="2">  1       21 0.31683600E-02 0.12500000E+03</pdfrwt>
<totfact> 0.63831114E+06</totfact>
</mgrwt>
</event>
<event>
 3    0  0.1509193E+001  0.1250000E+03  0.7546771E-02  0.1235069E+00
         21   -1    0    0  502  501  0.00000000000E+00  0.00000000000E+00  0.36881688872E+03  0.36881688872E+03  0.00000000000E+00 0. -1.
         21   -1    0    0  501  502 -0.00000000000E+00 -0.00000000000E+00 -0.10591299150E+02  0.10591299150E+02  0.00000000000E+00 0. -1.
         25    1    1    2    0    0  0.00000000000E+00  0.00000000000E+00  0.35822558957E+03  0.37940818787E+03  0.12500000000E+03 0.  0.
<mgrwt>
<rscale>  2 0.12500000E+03</rscale>
<asrwt>0</asrwt>
<pdfrwt beam="1">  1       21 0.56741050E-01 0.12500000E+03</pdfrwt>
<pdfrwt beam="2">  1       21 0.16294309E-02 0.12500000E+03</pdfrwt>
<totfact> 0.49437229E+06</totfact>
</mgrwt>
</event>
<event>
 3    0  0.1659266E+001  0.1250000E+03  0.7546771E-02  0.1235069E+00
         21   -1    0    0  502  501  0.00000000000E+00  0.00000000000E+00  0.22099577591E+02  0.22099577591E+02  0.00000000000E+00 0.  1.
         21   -1    0    0  501  502 -0.00000000000E+00 -0.00000000000E+00 -0.17675677211E+03  0.17675677211E+03  0.00000000000E+00 0.  1.
         25    1    1    2    0    0  0.00000000000E+00  0.00000000000E+00 -0.15465719452E+03  0.19885634970E+03  0.12500000000E+03 0.  0.
<mgrwt>
<rscale>  2 0.12500000E+03</rscale>
<asrwt>0</asrwt>
<pdfrwt beam="1">  1       21 0.33999351E-02 0.12500000E+03</pdfrwt>
<pdfrwt beam="2">  1       21 0.27193349E-01 0.12500000E+03</pdfrwt>
<totfact> 0.65051385E+06</totfact>
</mgrwt>
</event>
<event>
 3    0  0.1646796E+001  0.1250000E+03  0.7546771E-02  0.1235069E+00
         21   -1    0    0  502  501  0.00000000000E+00  0.00000000000E+00  0.23511428640E+02  0.23511428640E+02  0.00000000000E+00 0. -1.
         21   -1    0    0  501  502 -0.00000000000E+00 -0.00000000000E+00 -0.16614260494E+03  0.16614260494E+03  0.00000000000E+00 0. -1.
         25    1    1    2    0    0  0.00000000000E+00  0.00000000000E+00 -0.14263117630E+03  0.18965403358E+03  0.12500000000E+03 0.  0.
<mgrwt>
<rscale>  2 0.12500000E+03</rscale>
<asrwt>0</asrwt>
<pdfrwt beam="1">  1       21 0.36171428E-02 0.12500000E+03</pdfrwt>
<pdfrwt beam="2">  1       21 0.25560401E-01 0.12500000E+03</pdfrwt>
<totfact> 0.66060935E+06</totfact>
</mgrwt>
</event>
<event>
 3    0  0.1368989E+001  0.1250000E+03  0.7546771E-02  0.1235069E+00
         21   -1    0    0  502  501  0.00000000000E+00  0.00000000000E+00  0.38718093780E+01  0.38718093780E+01  0.00000000000E+00 0. -1.
         21   -1    0    0  501  502 -0.00000000000E+00 -0.00000000000E+00 -0.10088952267E+04  0.10088952267E+04  0.00000000000E+00 0. -1.
         25    1    1    2    0    0  0.00000000000E+00  0.00000000000E+00 -0.10050234173E+04  0.10127670360E+04  0.12500000000E+03 0.  0.
<mgrwt>
<rscale>  2 0.12500000E+03</rscale>
<asrwt>0</asrwt>
<pdfrwt beam="1">  1       21 0.59566239E-03 0.12500000E+03</pdfrwt>
<pdfrwt beam="2">  1       21 0.15521481E+00 0.12500000E+03</pdfrwt>
<totfact> 0.23302254E+06</totfact>
</mgrwt>
</event>
<event>
 3    0  0.1638341E+001  0.1250000E+03  0.7546771E-02  0.1235069E+00
         21   -1    0    0  502  501  0.00000000000E+00  0.00000000000E+00  0.15345012631E+03  0.15345012631E+03  0.00000000000E+00 0. -1.
         21   -1    0    0  501  502 -0.00000000000E+00 -0.00000000000E+00 -0.25456153695E+02  0.25456153695E+02  0.00000000000E+00 0. -1.
         25    1    1    2    0    0  0.00000000000E+00  0.00000000000E+00  0.12799397262E+03  0.17890628001E+03  0.12500000000E+03 0.  0.
<mgrwt>
<rscale>  2 0.12500000E+03</rscale>
<asrwt>0</asrwt>
<pdfrwt beam="1">  1       21 0.23607711E-01 0.12500000E+03</pdfrwt>
<pdfrwt beam="2">  1       21 0.39163314E-02 0.12500000E+03</pdfrwt>
<totfact> 0.67277227E+06</totfact>
</mgrwt>
</event>
<event>
 3    0  0.1553630E+001  0.1250000E+03  0.7546771E-02  0.1235069E+00
         21   -1    0    0  502  501  0.00000000000E+00  0.00000000000E+00  0.12792791685E+02  0.12792791685E+02  0.00000000000E+00 0.  1.
         21   -1    0    0  501  502 -0.00000000000E+00 -0.00000000000E+00 -0.30534773771E+03  0.30534773771E+03  0.00000000000E+00 0.  1.
         25    1    1    2    0    0  0.00000000000E+00  0.00000000000E+00 -0.29255494602E+03  0.31814052939E+03  0.12500000000E+03 0.  0.
<mgrwt>
<rscale>  2 0.12500000E+03</rscale>
<asrwt>0</asrwt>
<pdfrwt beam="1">  1       21 0.19681218E-02 0.12500000E+03</pdfrwt>
<pdfrwt beam="2">  1       21 0.46976575E-01 0.12500000E+03</pdfrwt>
<totfact> 0.53981026E+06</totfact>
</mgrwt>
</event>
<event>
 3    0  0.1504174E+001  0.1250000E+03  0.7546771E-02  0.1235069E+00
         21   -1    0    0  502  501  0.00000000000E+00  0.00000000000E+00  0.10050442576E+02  0.10050442576E+02  0.00000000000E+00 0. -1.
         21   -1    0    0  501  502 -0.00000000000E+00 -0.00000000000E+00 -0.38866447626E+03  0.38866447626E+03  0.00000000000E+00 0. -1.
         25    1    1    2    0    0  0.00000000000E+00  0.00000000000E+00 -0.37861403369E+03  0.39871491884E+03  0.12500000000E+03 0.  0.
<mgrwt>
<rscale>  2 0.12500000E+03</rscale>
<asrwt>0</asrwt>
<pdfrwt beam="1">  1       21 0.15462219E-02 0.12500000E+03</pdfrwt>
<pdfrwt beam="2">  1       21 0.59794538E-01 0.12500000E+03</pdfrwt>
<totfact> 0.48126704E+06</totfact>
</mgrwt>
</event>
<event>
 3    0  0.1678880E+001  0.1250000E+03  0.7546771E-02  0.1235069E+00
         21   -1    0    0  502  501  0.00000000000E+00  0.00000000000E+00  0.12861823452E+03  0.12861823452E+03  0.00000000000E+00 0.  1.
         21   -1    0    0  501  502 -0.00000000000E+00 -0.00000000000E+00 -0.30370888035E+02  0.30370888035E+02  0.00000000000E+00 0.  1.
         25    1    1    2    0    0  0.00000000000E+00  0.00000000000E+00  0.98247346489E+02  0.15898912256E+03  0.12500000000E+03 0.  0.
<mgrwt>
<rscale>  2 0.12500000E+03</rscale>
<asrwt>0</asrwt>
<pdfrwt beam="1">  1       21 0.19787420E-01 0.12500000E+03</pdfrwt>
<pdfrwt beam="2">  1       21 0.46724444E-02 0.12500000E+03</pdfrwt>
<totfact> 0.69643226E+06</totfact>
</mgrwt>
</event>
<event>
 3    0  0.1368989E+001  0.1250000E+03  0.7546771E-02  0.1235069E+00
         21   -1    0    0  502  501  0.00000000000E+00  0.00000000000E+00  0.13204747442E+04  0.13204747442E+04  0.00000000000E+00 0. -1.
         21   -1    0    0  501  502 -0.00000000000E+00 -0.00000000000E+00 -0.29582163665E+01  0.29582163665E+01  0.00000000000E+00 0. -1.
         25    1    1    2    0    0  0.00000000000E+00  0.00000000000E+00  0.13175165279E+04  0.13234329606E+04  0.12500000000E+03 0.  0.
<mgrwt>
<rscale>  2 0.12500000E+03</rscale>
<asrwt>0</asrwt>
<pdfrwt beam="1">  1       21 0.20314949E+00 0.12500000E+03</pdfrwt>
<pdfrwt beam="2">  1       21 0.45511126E-03 0.12500000E+03</pdfrwt>
<totfact> 0.16836837E+06</totfact>
</mgrwt>
</event>
<event>
 3    0  0.1572870E+001  0.1250000E+03  0.7546771E-02  0.1235069E+00
         21   -1    0    0  502  501  0.00000000000E+00  0.00000000000E+00  0.28173051162E+03  0.28173051162E+03  0.00000000000E+00 0.  1.
         21   -1    0    0  501  502 -0.00000000000E+00 -0.00000000000E+00 -0.13865200392E+02  0.13865200392E+02  0.00000000000E+00 0.  1.
         25    1    1    2    0    0  0.00000000000E+00  0.00000000000E+00  0.26786531123E+03  0.29559571201E+03  0.12500000000E+03 0.  0.
<mgrwt>
<rscale>  2 0.12500000E+03</rscale>
<asrwt>0</asrwt>
<pdfrwt beam="1">  1       21 0.43343151E-01 0.12500000E+03</pdfrwt>
<pdfrwt beam="2">  1       21 0.21331080E-02 0.12500000E+03</pdfrwt>
<totfact> 0.55824186E+06</totfact>
</mgrwt>
</event>
<event>
 3    0  0.1368989E+001  0.1250000E+03  0.7546771E-02  0.1235069E+00
         21   -1    0    0  502  501  0.00000000000E+00  0.00000000000E+00  0.70365693446E+03  0.70365693446E+03  0.00000000000E+00 0.  1.
         21   -1    0    0  501  502 -0.00000000000E+00 -0.00000000000E+00 -0.55513557938E+01  0.55513557938E+01  0.00000000000E+00 0.  1.
         25    1    1    2    0    0  0.00000000000E+00  0.00000000000E+00  0.69810557867E+03  0.70920829026E+03  0.12500000000E+03 0.  0.
<mgrwt>
<rscale>  2 0.12500000E+03</rscale>
<asrwt>0</asrwt>
<pdfrwt beam="1">  1       21 0.10825484E+00 0.12500000E+03</pdfrwt>
<pdfrwt beam="2">  1       21 0.85405530E-03 0.12500000E+03</pdfrwt>
<totfact> 0.32558158E+06</totfact>
</mgrwt>
</event>
<event>
 3    0  0.1635963E+001  0.1250000E+03  0.7546771E-02  0.1235069E+00
         21   -1    0    0  502  501  0.00000000000E+00  0.00000000000E+00  0.19176479898E+02  0.19176479898E+02  0.00000000000E+00 0.  1.
         21   -1    0    0  501  502 -0.00000000000E+00 -0.00000000000E+00 -0.20370005448E+03  0.20370005448E+03  0.00000000000E+00 0.  1.
         25    1    1    2    0    0  0.00000000000E+00  0.00000000000E+00 -0.18452357458E+03  0.22287653438E+03  0.12500000000E+03 0.  0.
<mgrwt>
<rscale>  2 0.12500000E+03</rscale>
<asrwt>0</asrwt>
<pdfrwt beam="1">  1       21 0.29502277E-02 0.12500000E+03</pdfrwt>
<pdfrwt beam="2">  1       21 0.31338470E-01 0.12500000E+03</pdfrwt>
<totfact> 0.62529719E+06</totfact>
</mgrwt>
</event>
<event>
 3    0  0.1368989E+001  0.1250000E+03  0.7546771E-02  0.1235069E+00
         21   -1    0    0  502  501  0.00000000000E+00  0.00000000000E+00  0.10276544150E+04  0.10276544150E+04  0.00000000000E+00 0.  1.
         21   -1    0    0  501  502 -0.00000000000E+00 -0.00000000000E+00 -0.38011319203E+01  0.38011319203E+01  0.00000000000E+00 0.  1.
         25    1    1    2    0    0  0.00000000000E+00  0.00000000000E+00  0.10238532831E+04  0.10314555470E+04  0.12500000000E+03 0.  0.
<mgrwt>
<rscale>  2 0.12500000E+03</rscale>
<asrwt>0</asrwt>
<pdfrwt beam="1">  1       21 0.15810046E+00 0.12500000E+03</pdfrwt>
<pdfrwt beam="2">  1       21 0.58479035E-03 0.12500000E+03</pdfrwt>
<totfact> 0.22843582E+06</totfact>
</mgrwt>
</event>
<event>
 3    0  0.1636872E+001  0.1250000E+03  0.7546771E-02  0.1235069E+00
         21   -1    0    0  502  501  0.00000000000E+00  0.00000000000E+00  0.19212132720E+02  0.19212132720E+02  0.00000000000E+00 0.  1.
         21   -1    0    0  501  502 -0.00000000000E+00 -0.00000000000E+00 -0.20332203910E+03  0.20332203910E+03  0.00000000000E+00 0.  1.
         25    1    1    2    0    0  0.00000000000E+00  0.00000000000E+00 -0.18410990638E+03  0.22253417182E+03  0.12500000000E+03 0.  0.
<mgrwt>
<rscale>  2 0.12500000E+03</rscale>
<asrwt>0</asrwt>
<pdfrwt beam="1">  1       21 0.29557127E-02 0.12500000E+03</pdfrwt>
<pdfrwt beam="2">  1       21 0.31280314E-01 0.12500000E+03</pdfrwt>
<totfact> 0.62564444E+06</totfact>
</mgrwt>
</event>
<event>
 3    0  0.1697229E+001  0.1250000E+03  0.7546771E-02  0.1235069E+00
         21   -1    0    0  502  501  0.00000000000E+00  0.00000000000E+00  0.11705449070E+03  0.11705449070E+03  0.00000000000E+00 0.  1.
         21   -1    0    0  501  502 -0.00000000000E+00 -0.00000000000E+00 -0.33371210081E+02  0.33371210081E+02  0.00000000000E+00 0.  1.
         25    1    1    2    0    0  0.00000000000E+00  0.00000000000E+00  0.83683280618E+02  0.15042570078E+03  0.12500000000E+03 0.  0.
<mgrwt>
<rscale>  2 0.12500000E+03</rscale>
<asrwt>0</asrwt>
<pdfrwt beam="1">  1       21 0.18008383E-01 0.12500000E+03</pdfrwt>
<pdfrwt beam="2">  1       21 0.51340324E-02 0.12500000E+03</pdfrwt>
<totfact> 0.70705766E+06</totfact>
</mgrwt>
</event>
<event>
 3    0  0.1368989E+001  0.1250000E+03  0.7546771E-02  0.1235069E+00
         21   -1    0    0  502  501  0.00000000000E+00  0.00000000000E+00  0.13263531466E+01  0.13263531466E+01  0.00000000000E+00 0.  1.
         21   -1    0    0  501  502 -0.00000000000E+00 -0.00000000000E+00 -0.29451055399E+04  0.29451055399E+04  0.00000000000E+00 0.  1.
         25    1    1    2    0    0  0.00000000000E+00  0.00000000000E+00 -0.29437791868E+04  0.29464318931E+04  0.12500000000E+03 0.  0.
<mgrwt>
<rscale>  2 0.12500000E+03</rscale>
<asrwt>0</asrwt>
<pdfrwt beam="1">  1       21 0.20405423E-03 0.12500000E+03</pdfrwt>
<pdfrwt beam="2">  1       21 0.45309338E+00 0.12500000E+03</pdfrwt>
<totfact> 0.19154574E+05</totfact>
</mgrwt>
</event>
<event>
 3    0  0.1683643E+001  0.1250000E+03  0.7546771E-02  0.1235069E+00
         21   -1    0    0  502  501  0.00000000000E+00  0.00000000000E+00  0.79288829807E+02  0.79288829807E+02  0.00000000000E+00 0. -1.
         21   -1    0    0  501  502 -0.00000000000E+00 -0.00000000000E+00 -0.49266082114E+02  0.49266082114E+02  0.00000000000E+00 0. -1.
         25    1    1    2    0    0  0.00000000000E+00  0.00000000000E+00  0.30022747692E+02  0.12855491192E+03  0.12500000000E+03 0.  0.
<mgrwt>
<rscale>  2 0.12500000E+03</rscale>
<asrwt>0</asrwt>
<pdfrwt beam="1">  1       21 0.12198281E-01 0.12500000E+03</pdfrwt>
<pdfrwt beam="2">  1       21 0.75793973E-02 0.12500000E+03</pdfrwt>
<totfact> 0.73558728E+06</totfact>
</mgrwt>
</event>
<event>
 3    0  0.1368989E+001  0.1250000E+03  0.7546771E-02  0.1235069E+00
         21   -1    0    0  502  501  0.00000000000E+00  0.00000000000E+00  0.18907899729E+01  0.18907899729E+01  0.00000000000E+00 0. -1.
         21   -1    0    0  501  502 -0.00000000000E+00 -0.00000000000E+00 -0.20659354323E+04  0.20659354323E+04  0.00000000000E+00 0. -1.
         25    1    1    2    0    0  0.00000000000E+00  0.00000000000E+00 -0.20640446423E+04  0.20678262223E+04  0.12500000000E+03 0.  0.
<mgrwt>
<rscale>  2 0.12500000E+03</rscale>
<asrwt>0</asrwt>
<pdfrwt beam="1">  1       21 0.29089160E-03 0.12500000E+03</pdfrwt>
<pdfrwt beam="2">  1       21 0.31783531E+00 0.12500000E+03</pdfrwt>
<totfact> 0.73054824E+05</totfact>
</mgrwt>
</event>
<event>
 3    0  0.1648000E+001  0.1250000E+03  0.7546771E-02  0.1235069E+00
         21   -1    0    0  502  501  0.00000000000E+00  0.00000000000E+00  0.20692425846E+02  0.20692425846E+02  0.00000000000E+00 0.  1.
         21   -1    0    0  501  502 -0.00000000000E+00 -0.00000000000E+00 -0.18877680312E+03  0.18877680312E+03  0.00000000000E+00 0.  1.
         25    1    1    2    0    0  0.00000000000E+00  0.00000000000E+00 -0.16808437727E+03  0.20946922897E+03  0.12500000000E+03 0.  0.
<mgrwt>
<rscale>  2 0.12500000E+03</rscale>
<asrwt>0</asrwt>
<pdfrwt beam="1">  1       21 0.31834502E-02 0.12500000E+03</pdfrwt>
<pdfrwt beam="2">  1       21 0.29042585E-01 0.12500000E+03</pdfrwt>
<totfact> 0.63915422E+06</totfact>
</mgrwt>
</event>
<event>
 3    0  0.1692413E+001  0.1250000E+03  0.7546771E-02  0.1235069E+00
         21   -1    0    0  502  501  0.00000000000E+00  0.00000000000E+00  0.36139047266E+02  0.36139047266E+02  0.00000000000E+00 0.  1.
         21   -1    0    0  501  502 -0.00000000000E+00 -0.00000000000E+00 -0.10808945712E+03  0.10808945712E+03  0.00000000000E+00 0.  1.
         25    1    1    2    0    0  0.00000000000E+00  0.00000000000E+00 -0.71950409858E+02  0.14422850439E+03  0.12500000000E+03 0.  0.
<mgrwt>
<rscale>  2 0.12500000E+03</rscale>
<asrwt>0</asrwt>
<pdfrwt beam="1">  1       21 0.55598534E-02 0.12500000E+03</pdfrwt>
<pdfrwt beam="2">  1       21 0.16629147E-01 0.12500000E+03</pdfrwt>
<totfact> 0.71491978E+06</totfact>
</mgrwt>
</event>
<event>
 3    0  0.1368989E+001  0.1250000E+03  0.7546771E-02  0.1235069E+00
         21   -1    0    0  502  501  0.00000000000E+00  0.00000000000E+00  0.12002178208E+04  0.12002178208E+04  0.00000000000E+00 0.  1.
         21   -1    0    0  501  502 -0.00000000000E+00 -0.00000000000E+00 -0.32546175638E+01  0.32546175638E+01  0.00000000000E+00 0.  1.
         25    1    1    2    0    0  0.00000000000E+00  0.00000000000E+00  0.11969632032E+04  0.12034724384E+04  0.12500000000E+03 0.  0.
<mgrwt>
<rscale>  2 0.12500000E+03</rscale>
<asrwt>0</asrwt>
<pdfrwt beam="1">  1       21 0.18464854E+00 0.12500000E+03</pdfrwt>
<pdfrwt beam="2">  1       21 0.50071135E-03 0.12500000E+03</pdfrwt>
<totfact> 0.19074347E+06</totfact>
</mgrwt>
</event>
<event>
 3    0  0.1688012E+001  0.1250000E+03  0.7546771E-02  0.1235069E+00
         21   -1    0    0  502  501  0.00000000000E+00  0.00000000000E+00  0.64724630637E+02  0.64724630637E+02  0.00000000000E+00 0. -1.
         21   -1    0    0  501  502 -0.00000000000E+00 -0.00000000000E+00 -0.60351831468E+02  0.60351831468E+02  0.00000000000E+00 0. -1.
         25    1    1    2    0    0  0.00000000000E+00  0.00000000000E+00  0.43727991687E+01  0.12507646210E+03  0.12500000000E+03 0.  0.
<mgrwt>
<rscale>  2 0.12500000E+03</rscale>
<asrwt>0</asrwt>
<pdfrwt beam="1">  1       21 0.99576355E-02 0.12500000E+03</pdfrwt>
<pdfrwt beam="2">  1       21 0.92848971E-02 0.12500000E+03</pdfrwt>
<totfact> 0.74033254E+06</totfact>
</mgrwt>
</event>
<event>
 3    0  0.1462377E+001  0.1250000E+03  0.7546771E-02  0.1235069E+00
         21   -1    0    0  502  501  0.00000000000E+00  0.00000000000E+00  0.83479544160E+01  0.83479544160E+01  0.00000000000E+00 0.  1.
         21   -1    0    0  501  502 -0.00000000000E+00 -0.00000000000E+00 -0.46792900456E+03  0.46792900456E+03  0.00000000000E+00 0.  1.
         25    1    1    2    0    0  0.00000000000E+00  0.00000000000E+00 -0.45958105015E+03  0.47627695898E+03  0.12500000000E+03 0.  0.
<mgrwt>
<rscale>  2 0.12500000E+03</rscale>
<asrwt>0</asrwt>
<pdfrwt beam="1">  1       21 0.12843000E-02 0.12500000E+03</pdfrwt>
<pdfrwt beam="2">  1       21 0.71989115E-01 0.12500000E+03</pdfrwt>
<totfact> 0.43360538E+06</totfact>
</mgrwt>
</event>
<event>
 3    0  0.1605411E+001  0.1250000E+03  0.7546771E-02  0.1235069E+00
         21   -1    0    0  502  501  0.00000000000E+00  0.00000000000E+00  0.17439129995E+02  0.17439129995E+02  0.00000000000E+00 0. -1.
         21   -1    0    0  501  502 -0.00000000000E+00 -0.00000000000E+00 -0.22399339882E+03  0.22399339882E+03  0.00000000000E+00 0. -1.
         25    1    1    2    0    0  0.00000000000E+00  0.00000000000E+00 -0.20655426883E+03  0.24143252882E+03  0.12500000000E+03 0.  0.
<mgrwt>
<rscale>  2 0.12500000E+03</rscale>
<asrwt>0</asrwt>
<pdfrwt beam="1">  1       21 0.26829433E-02 0.12500000E+03</pdfrwt>
<pdfrwt beam="2">  1       21 0.34460520E-01 0.12500000E+03</pdfrwt>
<totfact> 0.60694316E+06</totfact>
</mgrwt>
</event>
<event>
 3    0  0.1690460E+001  0.1250000E+03  0.7546771E-02  0.1235069E+00
         21   -1    0    0  502  501  0.00000000000E+00  0.00000000000E+00  0.28117685939E+02  0.28117685939E+02  0.00000000000E+00 0.  1.
         21   -1    0    0  501  502 -0.00000000000E+00 -0.00000000000E+00 -0.13892501710E+03  0.13892501710E+03  0.00000000000E+00 0.  1.
         25    1    1    2    0    0  0.00000000000E+00  0.00000000000E+00 -0.11080733117E+03  0.16704270304E+03  0.12500000000E+03 0.  0.
<mgrwt>
<rscale>  2 0.12500000E+03</rscale>
<asrwt>0</asrwt>
<pdfrwt beam="1">  1       21 0.43257978E-02 0.12500000E+03</pdfrwt>
<pdfrwt beam="2">  1       21 0.21373080E-01 0.12500000E+03</pdfrwt>
<totfact> 0.68669029E+06</totfact>
</mgrwt>
</event>
<event>
 3    0  0.1683128E+001  0.1250000E+03  0.7546771E-02  0.1235069E+00
         21   -1    0    0  502  501  0.00000000000E+00  0.00000000000E+00  0.85030774944E+02  0.85030774944E+02  0.00000000000E+00 0. -1.
         21   -1    0    0  501  502 -0.00000000000E+00 -0.00000000000E+00 -0.45939249673E+02  0.45939249673E+02  0.00000000000E+00 0. -1.
         25    1    1    2    0    0  0.00000000000E+00  0.00000000000E+00  0.39091525271E+02  0.13097002462E+03  0.12500000000E+03 0.  0.
<mgrwt>
<rscale>  2 0.12500000E+03</rscale>
<asrwt>0</asrwt>
<pdfrwt beam="1">  1       21 0.13081658E-01 0.12500000E+03</pdfrwt>
<pdfrwt beam="2">  1       21 0.70675769E-02 0.12500000E+03</pdfrwt>
<totfact> 0.73234711E+06</totfact>
</mgrwt>
</event>
<event>
 3    0  0.1645680E+001  0.1250000E+03  0.7546771E-02  0.1235069E+00
         21   -1    0    0  502  501  0.00000000000E+00  0.00000000000E+00  0.24997638155E+02  0.24997638155E+02  0.00000000000E+00 0. -1.
         21   -1    0    0  501  502 -0.00000000000E+00 -0.00000000000E+00 -0.15626476292E+03  0.15626476292E+03  0.00000000000E+00 0. -1.
         25    1    1    2    0    0  0.00000000000E+00  0.00000000000E+00 -0.13126712477E+03  0.18126240108E+03  0.12500000000E+03 0.  0.
<mgrwt>
<rscale>  2 0.12500000E+03</rscale>
<asrwt>0</asrwt>
<pdfrwt beam="1">  1       21 0.38457904E-02 0.12500000E+03</pdfrwt>
<pdfrwt beam="2">  1       21 0.24040733E-01 0.12500000E+03</pdfrwt>
<totfact> 0.67007012E+06</totfact>
</mgrwt>
</event>
<event>
 3    0  0.1680360E+001  0.1250000E+03  0.7546771E-02  0.1235069E+00
         21   -1    0    0  502  501  0.00000000000E+00  0.00000000000E+00  0.86929407432E+02  0.86929407432E+02  0.00000000000E+00 0. -1.
         21   -1    0    0  501  502 -0.00000000000E+00 -0.00000000000E+00 -0.44935886662E+02  0.44935886662E+02  0.00000000000E+00 0. -1.
         25    1    1    2    0    0  0.00000000000E+00  0.00000000000E+00  0.41993520770E+02  0.13186529409E+03  0.12500000000E+03 0.  0.
<mgrwt>
<rscale>  2 0.12500000E+03</rscale>
<asrwt>0</asrwt>
<pdfrwt beam="1">  1       21 0.13373755E-01 0.12500000E+03</pdfrwt>
<pdfrwt beam="2">  1       21 0.69132133E-02 0.12500000E+03</pdfrwt>
<totfact> 0.73114303E+06</totfact>
</mgrwt>
</event>
<event>
 3    0  0.1711285E+001  0.1250000E+03  0.7546771E-02  0.1235069E+00
         21   -1    0    0  502  501  0.00000000000E+00  0.00000000000E+00  0.51169029543E+02  0.51169029543E+02  0.00000000000E+00 0.  1.
         21   -1    0    0  501  502 -0.00000000000E+00 -0.00000000000E+00 -0.76340122822E+02  0.76340122822E+02  0.00000000000E+00 0.  1.
         25    1    1    2    0    0  0.00000000000E+00  0.00000000000E+00 -0.25171093278E+02  0.12750915236E+03  0.12500000000E+03 0.  0.
<mgrwt>
<rscale>  2 0.12500000E+03</rscale>
<asrwt>0</asrwt>
<pdfrwt beam="1">  1       21 0.78721584E-02 0.12500000E+03</pdfrwt>
<pdfrwt beam="2">  1       21 0.11744634E-01 0.12500000E+03</pdfrwt>
<totfact> 0.73699977E+06</totfact>
</mgrwt>
</event>
<event>
 3    0  0.1368989E+001  0.1250000E+03  0.7546771E-02  0.1235069E+00
         21   -1    0    0  502  501  0.00000000000E+00  0.00000000000E+00  0.13861478080E+04  0.13861478080E+04  0.00000000000E+00 0.  1.
         21   -1    0    0  501  502 -0.00000000000E+00 -0.00000000000E+00 -0.28180616651E+01  0.28180616651E+01  0.00000000000E+00 0.  1.
         25    1    1    2    0    0  0.00000000000E+00  0.00000000000E+00  0.13833297464E+04  0.13889658697E+04  0.12500000000E+03 0.  0.
<mgrwt>
<rscale>  2 0.12500000E+03</rscale>
<asrwt>0</asrwt>
<pdfrwt beam="1">  1       21 0.21325296E+00 0.12500000E+03</pdfrwt>
<pdfrwt beam="2">  1       21 0.43354906E-03 0.12500000E+03</pdfrwt>
<totfact> 0.15725403E+06</totfact>
</mgrwt>
</event>
<event>
 3    0  0.1426369E+001  0.1250000E+03  0.7546771E-02  0.1235069E+00
         21   -1    0    0  502  501  0.00000000000E+00  0.00000000000E+00  0.67874099728E+01  0.67874099728E+01  0.00000000000E+00 0.  1.
         21   -1    0    0  501  502 -0.00000000000E+00 -0.00000000000E+00 -0.57551407910E+03  0.57551407910E+03  0.00000000000E+00 0.  1.
         25    1    1    2    0    0  0.00000000000E+00  0.00000000000E+00 -0.56872666913E+03  0.58230148908E+03  0.12500000000E+03 0.  0.
<mgrwt>
<rscale>  2 0.12500000E+03</rscale>
<asrwt>0</asrwt>
<pdfrwt beam="1">  1       21 0.10442172E-02 0.12500000E+03</pdfrwt>
<pdfrwt beam="2">  1       21 0.88540600E-01 0.12500000E+03</pdfrwt>
<totfact> 0.37905461E+06</totfact>
</mgrwt>
</event>
<event>
 3    0  0.1677149E+001  0.1250000E+03  0.7546771E-02  0.1235069E+00
         21   -1    0    0  502  501  0.00000000000E+00  0.00000000000E+00  0.30233628881E+02  0.30233628881E+02  0.00000000000E+00 0.  1.
         21   -1    0    0  501  502 -0.00000000000E+00 -0.00000000000E+00 -0.12920215484E+03  0.12920215484E+03  0.00000000000E+00 0.  1.
         25    1    1    2    0    0  0.00000000000E+00  0.00000000000E+00 -0.98968525957E+02  0.15943578372E+03  0.12500000000E+03 0.  0.
<mgrwt>
<rscale>  2 0.12500000E+03</rscale>
<asrwt>0</asrwt>
<pdfrwt beam="1">  1       21 0.46513275E-02 0.12500000E+03</pdfrwt>
<pdfrwt beam="2">  1       21 0.19877254E-01 0.12500000E+03</pdfrwt>
<totfact> 0.69588503E+06</totfact>
</mgrwt>
</event>
<event>
 3    0  0.1410647E+001  0.1250000E+03  0.7546771E-02  0.1235069E+00
         21   -1    0    0  502  501  0.00000000000E+00  0.00000000000E+00  0.63818053766E+01  0.63818053766E+01  0.00000000000E+00 0. -1.
         21   -1    0    0  501  502 -0.00000000000E+00 -0.00000000000E+00 -0.61209168401E+03  0.61209168401E+03  0.00000000000E+00 0. -1.
         25    1    1    2    0    0  0.00000000000E+00  0.00000000000E+00 -0.60570987864E+03  0.61847348939E+03  0.12500000000E+03 0.  0.
<mgrwt>
<rscale>  2 0.12500000E+03</rscale>
<asrwt>0</asrwt>
<pdfrwt beam="1">  1       21 0.98181639E-03 0.12500000E+03</pdfrwt>
<pdfrwt beam="2">  1       21 0.94167935E-01 0.12500000E+03</pdfrwt>
<totfact> 0.36270301E+06</totfact>
</mgrwt>
</event>
<event>
 3    0  0.1444178E+001  0.1250000E+03  0.7546771E-02  0.1235069E+00
         21   -1    0    0  502  501  0.00000000000E+00  0.00000000000E+00  0.78432661259E+01  0.78432661259E+01  0.00000000000E+00 0.  1.
         21   -1    0    0  501  502 -0.00000000000E+00 -0.00000000000E+00 -0.49803869170E+03  0.49803869170E+03  0.00000000000E+00 0.  1.
         25    1    1    2    0    0  0.00000000000E+00  0.00000000000E+00 -0.49019542558E+03  0.50588195783E+03  0.12500000000E+03 0.  0.
<mgrwt>
<rscale>  2 0.12500000E+03</rscale>
<asrwt>0</asrwt>
<pdfrwt beam="1">  1       21 0.12066563E-02 0.12500000E+03</pdfrwt>
<pdfrwt beam="2">  1       21 0.76621336E-01 0.12500000E+03</pdfrwt>
<totfact> 0.41726865E+06</totfact>
</mgrwt>
</event>
<event>
 3    0  0.1498730E+001  0.1250000E+03  0.7546771E-02  0.1235069E+00
         21   -1    0    0  502  501  0.00000000000E+00  0.00000000000E+00  0.35013384633E+03  0.35013384633E+03  0.00000000000E+00 0. -1.
         21   -1    0    0  501  502 -0.00000000000E+00 -0.00000000000E+00 -0.11156447858E+02  0.11156447858E+02  0.00000000000E+00 0. -1.
         25    1    1    2    0    0  0.00000000000E+00  0.00000000000E+00  0.33897739847E+03  0.36129029419E+03  0.12500000000E+03 0.  0.
<mgrwt>
<rscale>  2 0.12500000E+03</rscale>
<asrwt>0</asrwt>
<pdfrwt beam="1">  1       21 0.53866737E-01 0.12500000E+03</pdfrwt>
<pdfrwt beam="2">  1       21 0.17163769E-02 0.12500000E+03</pdfrwt>
<totfact> 0.50715272E+06</totfact>
</mgrwt>
</event>
<event>
 3    0  0.1580130E+001  0.1250000E+03  0.7546771E-02  0.1235069E+00
         21   -1    0    0  502  501  0.00000000000E+00  0.00000000000E+00  0.25939416791E+03  0.25939416791E+03  0.00000000000E+00 0. -1.
         21   -1    0    0  501  502 -0.00000000000E+00 -0.00000000000E+00 -0.15059128088E+02  0.15059128088E+02  0.00000000000E+00 0. -1.
         25    1    1    2    0    0  0.00000000000E+00  0.00000000000E+00  0.24433503983E+03  0.27445329600E+03  0.12500000000E+03 0.  0.
<mgrwt>
<rscale>  2 0.12500000E+03</rscale>
<asrwt>0</asrwt>
<pdfrwt beam="1">  1       21 0.39906792E-01 0.12500000E+03</pdfrwt>
<pdfrwt beam="2">  1       21 0.23167891E-02 0.12500000E+03</pdfrwt>
<totfact> 0.57648351E+06</totfact>
</mgrwt>
</event>
<event>
 3    0  0.1368989E+001  0.1250000E+03  0.7546771E-02  0.1235069E+00
         21   -1    0    0  502  501  0.00000000000E+00  0.00000000000E+00  0.23732692325E+01  0.23732692325E+01  0.00000000000E+00 0.  1.
         21   -1    0    0  501  502 -0.00000000000E+00 -0.00000000000E+00 -0.16459363086E+04  0.16459363086E+04  0.00000000000E+00 0.  1.
         25    1    1    2    0    0  0.00000000000E+00  0.00000000000E+00 -0.16435630394E+04  0.16483095779E+04  0.12500000000E+03 0.  0.
<mgrwt>
<rscale>  2 0.12500000E+03</rscale>
<asrwt>0</asrwt>
<pdfrwt beam="1">  1       21 0.36511957E-03 0.12500000E+03</pdfrwt>
<pdfrwt beam="2">  1       21 0.25322012E+00 0.12500000E+03</pdfrwt>
<totfact> 0.11930011E+06</totfact>
</mgrwt>
</event>
<event>
 3    0  0.1408167E+001  0.1250000E+03  0.7546771E-02  0.1235069E+00
         21   -1    0    0  502  501  0.00000000000E+00  0.00000000000E+00  0.62596981116E+03  0.62596981116E+03  0.00000000000E+00 0.  1.
         21   -1    0    0  501  502 -0.00000000000E+00 -0.00000000000E+00 -0.62403169137E+01  0.62403169137E+01  0.00000000000E+00 0.  1.
         25    1    1    2    0    0  0.00000000000E+00  0.00000000000E+00  0.61972949424E+03  0.63221012807E+03  0.12500000000E+03 0.  0.
<mgrwt>
<rscale>  2 0.12500000E+03</rscale>
<asrwt>0</asrwt>
<pdfrwt beam="1">  1       21 0.96302999E-01 0.12500000E+03</pdfrwt>
<pdfrwt beam="2">  1       21 0.96004925E-03 0.12500000E+03</pdfrwt>
<totfact> 0.35675339E+06</totfact>
</mgrwt>
</event>
<event>
 3    0  0.1679934E+001  0.1250000E+03  0.7546771E-02  0.1235069E+00
         21   -1    0    0  502  501  0.00000000000E+00  0.00000000000E+00  0.29200180103E+02  0.29200180103E+02  0.00000000000E+00 0.  1.
         21   -1    0    0  501  502 -0.00000000000E+00 -0.00000000000E+00 -0.13377485982E+03  0.13377485982E+03  0.00000000000E+00 0.  1.
         25    1    1    2    0    0  0.00000000000E+00  0.00000000000E+00 -0.10457467972E+03  0.16297503992E+03  0.12500000000E+03 0.  0.
<mgrwt>
<rscale>  2 0.12500000E+03</rscale>
<asrwt>0</asrwt>
<pdfrwt beam="1">  1       21 0.44923354E-02 0.12500000E+03</pdfrwt>
<pdfrwt beam="2">  1       21 0.20580748E-01 0.12500000E+03</pdfrwt>
<totfact> 0.69157793E+06</totfact>
</mgrwt>
</event>
<event>
 3    0  0.1698420E+001  0.1250000E+03  0.7546771E-02  0.1235069E+00
         21   -1    0    0  502  501  0.00000000000E+00  0.00000000000E+00  0.10197116161E+03  0.10197116161E+03  0.00000000000E+00 0.  1.
         21   -1    0    0  501  502 -0.00000000000E+00 -0.00000000000E+00 -0.38307399250E+02  0.38307399250E+02  0.00000000000E+00 0.  1.
         25    1    1    2    0    0  0.00000000000E+00  0.00000000000E+00  0.63663762364E+02  0.14027856086E+03  0.12500000000E+03 0.  0.
<mgrwt>
<rscale>  2 0.12500000E+03</rscale>
<asrwt>0</asrwt>
<pdfrwt beam="1">  1       21 0.15687871E-01 0.12500000E+03</pdfrwt>
<pdfrwt beam="2">  1       21 0.58934461E-02 0.12500000E+03</pdfrwt>
<totfact> 0.72002964E+06</totfact>
</mgrwt>
</event>
<event>
 3    0  0.1575093E+001  0.1250000E+03  0.7546771E-02  0.1235069E+00
         21   -1    0    0  502  501  0.00000000000E+00  0.00000000000E+00  0.27075311205E+03  0.27075311205E+03  0.00000000000E+00 0. -1.
         21   -1    0    0  501  502 -0.00000000000E+00 -0.00000000000E+00 -0.14427350328E+02  0.14427350328E+02  0.00000000000E+00 0. -1.
         25    1    1    2    0    0  0.00000000000E+00  0.00000000000E+00  0.25632576172E+03  0.28518046238E+03  0.12500000000E+03 0.  0.
<mgrwt>
<rscale>  2 0.12500000E+03</rscale>
<asrwt>0</asrwt>
<pdfrwt beam="1">  1       21 0.41654321E-01 0.12500000E+03</pdfrwt>
<pdfrwt beam="2">  1       21 0.22195925E-02 0.12500000E+03</pdfrwt>
<totfact> 0.56710671E+06</totfact>
</mgrwt>
</event>
<event>
 3    0  0.1492540E+001  0.1250000E+03  0.7546771E-02  0.1235069E+00
         21   -1    0    0  502  501  0.00000000000E+00  0.00000000000E+00  0.41407446435E+03  0.41407446435E+03  0.00000000000E+00 0. -1.
         21   -1    0    0  501  502 -0.00000000000E+00 -0.00000000000E+00 -0.94336896775E+01  0.94336896775E+01  0.00000000000E+00 0. -1.
         25    1    1    2    0    0  0.00000000000E+00  0.00000000000E+00  0.40464077467E+03  0.42350815402E+03  0.12500000000E+03 0.  0.
<mgrwt>
<rscale>  2 0.12500000E+03</rscale>
<asrwt>0</asrwt>
<pdfrwt beam="1">  1       21 0.63703750E-01 0.12500000E+03</pdfrwt>
<pdfrwt beam="2">  1       21 0.14513372E-02 0.12500000E+03</pdfrwt>
<totfact> 0.46520197E+06</totfact>
</mgrwt>
</event>
<event>
 3    0  0.1631011E+001  0.1250000E+03  0.7546771E-02  0.1235069E+00
         21   -1    0    0  502  501  0.00000000000E+00  0.00000000000E+00  0.24039194645E+02  0.24039194645E+02  0.00000000000E+00 0. -1.
         21   -1    0    0  501  502 -0.00000000000E+00 -0.00000000000E+00 -0.16249504435E+03  0.16249504435E+03  0.00000000000E+00 0. -1.
         25    1    1    2    0    0  0.00000000000E+00  0.00000000000E+00 -0.13845584970E+03  0.18653423899E+03  0.12500000000E+03 0.  0.
<mgrwt>
<rscale>  2 0.12500000E+03</rscale>
<asrwt>0</asrwt>
<pdfrwt beam="1">  1       21 0.36983377E-02 0.12500000E+03</pdfrwt>
<pdfrwt beam="2">  1       21 0.24999237E-01 0.12500000E+03</pdfrwt>
<totfact> 0.66409739E+06</totfact>
</mgrwt>
</event>
<event>
 3    0  0.1659864E+001  0.1250000E+03  0.7546771E-02  0.1235069E+00
         21   -1    0    0  502  501  0.00000000000E+00  0.00000000000E+00  0.17628054328E+03  0.17628054328E+03  0.00000000000E+00 0.  1.
         21   -1    0    0  501  502 -0.00000000000E+00 -0.00000000000E+00 -0.22159280471E+02  0.22159280471E+02  0.00000000000E+00 0.  1.
         25    1    1    2    0    0  0.00000000000E+00  0.00000000000E+00  0.15412126280E+03  0.19843982375E+03  0.12500000000E+03 0.  0.
<mgrwt>
<rscale>  2 0.12500000E+03</rscale>
<asrwt>0</asrwt>
<pdfrwt beam="1">  1       21 0.27120083E-01 0.12500000E+03</pdfrwt>
<pdfrwt beam="2">  1       21 0.34091202E-02 0.12500000E+03</pdfrwt>
<totfact> 0.65096497E+06</totfact>
</mgrwt>
</event>
<event>
 3    0  0.1673482E+001  0.1250000E+03  0.7546771E-02  0.1235069E+00
         21   -1    0    0  502  501  0.00000000000E+00  0.00000000000E+00  0.34846496818E+02  0.34846496818E+02  0.00000000000E+00 0. -1.
         21   -1    0    0  501  502 -0.00000000000E+00 -0.00000000000E+00 -0.11209878630E+03  0.11209878630E+03  0.00000000000E+00 0. -1.
         25    1    1    2    0    0  0.00000000000E+00  0.00000000000E+00 -0.77252289480E+02  0.14694528312E+03  0.12500000000E+03 0.  0.
<mgrwt>
<rscale>  2 0.12500000E+03</rscale>
<asrwt>0</asrwt>
<pdfrwt beam="1">  1       21 0.53609996E-02 0.12500000E+03</pdfrwt>
<pdfrwt beam="2">  1       21 0.17245967E-01 0.12500000E+03</pdfrwt>
<totfact> 0.71145072E+06</totfact>
</mgrwt>
</event>
<event>
 3    0  0.1368989E+001  0.1250000E+03  0.7546771E-02  0.1235069E+00
         21   -1    0    0  502  501  0.00000000000E+00  0.00000000000E+00  0.36159867798E+01  0.36159867798E+01  0.00000000000E+00 0. -1.
         21   -1    0    0  501  502 -0.00000000000E+00 -0.00000000000E+00 -0.10802722017E+04  0.10802722017E+04  0.00000000000E+00 0. -1.
         25    1    1    2    0    0  0.00000000000E+00  0.00000000000E+00 -0.10766562149E+04  0.10838881885E+04  0.12500000000E+03 0.  0.
<mgrwt>
<rscale>  2 0.12500000E+03</rscale>
<asrwt>0</asrwt>
<pdfrwt beam="1">  1       21 0.55630602E-03 0.12500000E+03</pdfrwt>
<pdfrwt beam="2">  1       21 0.16619561E+00 0.12500000E+03</pdfrwt>
<totfact> 0.21613348E+06</totfact>
</mgrwt>
</event>
<event>
 3    0  0.1681800E+001  0.1250000E+03  0.7546771E-02  0.1235069E+00
         21   -1    0    0  502  501  0.00000000000E+00  0.00000000000E+00  0.43514260559E+02  0.43514260559E+02  0.00000000000E+00 0. -1.
         21   -1    0    0  501  502 -0.00000000000E+00 -0.00000000000E+00 -0.89769421560E+02  0.89769421560E+02  0.00000000000E+00 0. -1.
         25    1    1    2    0    0  0.00000000000E+00  0.00000000000E+00 -0.46255161000E+02  0.13328368212E+03  0.12500000000E+03 0.  0.
<mgrwt>
<rscale>  2 0.12500000E+03</rscale>
<asrwt>0</asrwt>
<pdfrwt beam="1">  1       21 0.66945017E-02 0.12500000E+03</pdfrwt>
<pdfrwt beam="2">  1       21 0.13810680E-01 0.12500000E+03</pdfrwt>
<totfact> 0.72924541E+06</totfact>
</mgrwt>
</event>
<event>
 3    0  0.1562398E+001  0.1250000E+03  0.7546771E-02  0.1235069E+00
         21   -1    0    0  502  501  0.00000000000E+00  0.00000000000E+00  0.31982727738E+03  0.31982727738E+03  0.00000000000E+00 0.  1.
         21   -1    0    0  501  502 -0.00000000000E+00 -0.00000000000E+00 -0.12213623653E+02  0.12213623653E+02  0.00000000000E+00 0.  1.
         25    1    1    2    0    0  0.00000000000E+00  0.00000000000E+00  0.30761365373E+03  0.33204090104E+03  0.12500000000E+03 0.  0.
<mgrwt>
<rscale>  2 0.12500000E+03</rscale>
<asrwt>0</asrwt>
<pdfrwt beam="1">  1       21 0.49204190E-01 0.12500000E+03</pdfrwt>
<pdfrwt beam="2">  1       21 0.18790193E-02 0.12500000E+03</pdfrwt>
<totfact> 0.52892750E+06</totfact>
</mgrwt>
</event>
<event>
 3    0  0.1685689E+001  0.1250000E+03  0.7546771E-02  0.1235069E+00
         21   -1    0    0  502  501  0.00000000000E+00  0.00000000000E+00  0.52656047262E+02  0.52656047262E+02  0.00000000000E+00 0. -1.
         21   -1    0    0  501  502 -0.00000000000E+00 -0.00000000000E+00 -0.74184261886E+02  0.74184261886E+02  0.00000000000E+00 0. -1.
         25    1    1    2    0    0  0.00000000000E+00  0.00000000000E+00 -0.21528214624E+02  0.12684030915E+03  0.12500000000E+03 0.  0.
<mgrwt>
<rscale>  2 0.12500000E+03</rscale>
<asrwt>0</asrwt>
<pdfrwt beam="1">  1       21 0.81009304E-02 0.12500000E+03</pdfrwt>
<pdfrwt beam="2">  1       21 0.11412963E-01 0.12500000E+03</pdfrwt>
<totfact> 0.73790891E+06</totfact>
</mgrwt>
</event>
<event>
 3    0  0.1613861E+001  0.1250000E+03  0.7546771E-02  0.1235069E+00
         21   -1    0    0  502  501  0.00000000000E+00  0.00000000000E+00  0.16126677910E+02  0.16126677910E+02  0.00000000000E+00 0.  1.
         21   -1    0    0  501  502 -0.00000000000E+00 -0.00000000000E+00 -0.24222285717E+03  0.24222285717E+03  0.00000000000E+00 0.  1.
         25    1    1    2    0    0  0.00000000000E+00  0.00000000000E+00 -0.22609617926E+03  0.25834953508E+03  0.12500000000E+03 0.  0.
<mgrwt>
<rscale>  2 0.12500000E+03</rscale>
<asrwt>0</asrwt>
<pdfrwt beam="1">  1       21 0.24810275E-02 0.12500000E+03</pdfrwt>
<pdfrwt beam="2">  1       21 0.37265053E-01 0.12500000E+03</pdfrwt>
<totfact> 0.59100879E+06</totfact>
</mgrwt>
</event>
<event>
 3    0  0.1629819E+001  0.1250000E+03  0.7546771E-02  0.1235069E+00
         21   -1    0    0  502  501  0.00000000000E+00  0.00000000000E+00  0.17478880912E+02  0.17478880912E+02  0.00000000000E+00 0.  1.
         21   -1    0    0  501  502 -0.00000000000E+00 -0.00000000000E+00 -0.22348398731E+03  0.22348398731E+03  0.00000000000E+00 0.  1.
         25    1    1    2    0    0  0.00000000000E+00  0.00000000000E+00 -0.20600510640E+03  0.24096286822E+03  0.12500000000E+03 0.  0.
<mgrwt>
<rscale>  2 0.12500000E+03</rscale>
<asrwt>0</asrwt>
<pdfrwt beam="1">  1       21 0.26890588E-02 0.12500000E+03</pdfrwt>
<pdfrwt beam="2">  1       21 0.34382149E-01 0.12500000E+03</pdfrwt>
<totfact> 0.60739614E+06</totfact>
</mgrwt>
</event>
<event>
 3    0  0.1481689E+001  0.1250000E+03  0.7546771E-02  0.1235069E+00
         21   -1    0    0  502  501  0.00000000000E+00  0.00000000000E+00  0.87445401962E+01  0.87445401962E+01  0.00000000000E+00 0. -1.
         21   -1    0    0  501  502 -0.00000000000E+00 -0.00000000000E+00 -0.44670730677E+03  0.44670730677E+03  0.00000000000E+00 0. -1.
         25    1    1    2    0    0  0.00000000000E+00  0.00000000000E+00 -0.43796276658E+03  0.45545184697E+03  0.12500000000E+03 0.  0.
<mgrwt>
<rscale>  2 0.12500000E+03</rscale>
<asrwt>0</asrwt>
<pdfrwt beam="1">  1       21 0.13453139E-02 0.12500000E+03</pdfrwt>
<pdfrwt beam="2">  1       21 0.68724198E-01 0.12500000E+03</pdfrwt>
<totfact> 0.44567831E+06</totfact>
</mgrwt>
</event>
<event>
 3    0  0.1707529E+001  0.1250000E+03  0.7546771E-02  0.1235069E+00
         21   -1    0    0  502  501  0.00000000000E+00  0.00000000000E+00  0.47520591274E+02  0.47520591274E+02  0.00000000000E+00 0.  1.
         21   -1    0    0  501  502 -0.00000000000E+00 -0.00000000000E+00 -0.82201207840E+02  0.82201207840E+02  0.00000000000E+00 0.  1.
         25    1    1    2    0    0  0.00000000000E+00  0.00000000000E+00 -0.34680616565E+02  0.12972179911E+03  0.12500000000E+03 0.  0.
<mgrwt>
<rscale>  2 0.12500000E+03</rscale>
<asrwt>0</asrwt>
<pdfrwt beam="1">  1       21 0.73108602E-02 0.12500000E+03</pdfrwt>
<pdfrwt beam="2">  1       21 0.12646340E-01 0.12500000E+03</pdfrwt>
<totfact> 0.73402120E+06</totfact>
</mgrwt>
</event>
<event>
 3    0  0.1667127E+001  0.1250000E+03  0.7546771E-02  0.1235069E+00
         21   -1    0    0  502  501  0.00000000000E+00  0.00000000000E+00  0.23310391475E+02  0.23310391475E+02  0.00000000000E+00 0.  1.
         21   -1    0    0  501  502 -0.00000000000E+00 -0.00000000000E+00 -0.16757547827E+03  0.16757547827E+03  0.00000000000E+00 0.  1.
         25    1    1    2    0    0  0.00000000000E+00  0.00000000000E+00 -0.14426508679E+03  0.19088586974E+03  0.12500000000E+03 0.  0.
<mgrwt>
<rscale>  2 0.12500000E+03</rscale>
<asrwt>0</asrwt>
<pdfrwt beam="1">  1       21 0.35862140E-02 0.12500000E+03</pdfrwt>
<pdfrwt beam="2">  1       21 0.25780843E-01 0.12500000E+03</pdfrwt>
<totfact> 0.65924143E+06</totfact>
</mgrwt>
</event>
<event>
 3    0  0.1663990E+001  0.1250000E+03  0.7546771E-02  0.1235069E+00
         21   -1    0    0  502  501  0.00000000000E+00  0.00000000000E+00  0.12454635227E+03  0.12454635227E+03  0.00000000000E+00 0. -1.
         21   -1    0    0  501  502 -0.00000000000E+00 -0.00000000000E+00 -0.31363825023E+02  0.31363825023E+02  0.00000000000E+00 0. -1.
         25    1    1    2    0    0  0.00000000000E+00  0.00000000000E+00  0.93182527251E+02  0.15591017730E+03  0.12500000000E+03 0.  0.
<mgrwt>
<rscale>  2 0.12500000E+03</rscale>
<asrwt>0</asrwt>
<pdfrwt beam="1">  1       21 0.19160977E-01 0.12500000E+03</pdfrwt>
<pdfrwt beam="2">  1       21 0.48252039E-02 0.12500000E+03</pdfrwt>
<totfact> 0.70022712E+06</totfact>
</mgrwt>
</event>
<event>
 3    0  0.1382803E+001  0.1250000E+03  0.7546771E-02  0.1235069E+00
         21   -1    0    0  502  501  0.00000000000E+00  0.00000000000E+00  0.60225321703E+03  0.60225321703E+03  0.00000000000E+00 0.  1.
         21   -1    0    0  501  502 -0.00000000000E+00 -0.00000000000E+00 -0.64860591683E+01  0.64860591683E+01  0.00000000000E+00 0.  1.
         25    1    1    2    0    0  0.00000000000E+00  0.00000000000E+00  0.59576715787E+03  0.60873927620E+03  0.12500000000E+03 0.  0.
<mgrwt>
<rscale>  2 0.12500000E+03</rscale>
<asrwt>0</asrwt>
<pdfrwt beam="1">  1       21 0.92654297E-01 0.12500000E+03</pdfrwt>
<pdfrwt beam="2">  1       21 0.99785573E-03 0.12500000E+03</pdfrwt>
<totfact> 0.36700380E+06</totfact>
</mgrwt>
</event>
<event>
 3    0  0.1585523E+001  0.1250000E+03  0.7546771E-02  0.1235069E+00
         21   -1    0    0  502  501  0.00000000000E+00  0.00000000000E+00  0.12639368920E+02  0.12639368920E+02  0.00000000000E+00 0.  1.
         21   -1    0    0  501  502 -0.00000000000E+00 -0.00000000000E+00 -0.30905419605E+03  0.30905419605E+03  0.00000000000E+00 0.  1.
         25    1    1    2    0    0  0.00000000000E+00  0.00000000000E+00 -0.29641482713E+03  0.32169356497E+03  0.12500000000E+03 0.  0.
<mgrwt>
<rscale>  2 0.12500000E+03</rscale>
<asrwt>0</asrwt>
<pdfrwt beam="1">  1       21 0.19445182E-02 0.12500000E+03</pdfrwt>
<pdfrwt beam="2">  1       21 0.47546801E-01 0.12500000E+03</pdfrwt>
<totfact> 0.53699408E+06</totfact>
</mgrwt>
</event>
<event>
 3    0  0.1543852E+001  0.1250000E+03  0.7546771E-02  0.1235069E+00
         21   -1    0    0  502  501  0.00000000000E+00  0.00000000000E+00  0.28472327288E+03  0.28472327288E+03  0.00000000000E+00 0. -1.
         21   -1    0    0  501  502 -0.00000000000E+00 -0.00000000000E+00 -0.13719461569E+02  0.13719461569E+02  0.00000000000E+00 0. -1.
         25    1    1    2    0    0  0.00000000000E+00  0.00000000000E+00  0.27100381131E+03  0.29844273445E+03  0.12500000000E+03 0.  0.
<mgrwt>
<rscale>  2 0.12500000E+03</rscale>
<asrwt>0</asrwt>
<pdfrwt beam="1">  1       21 0.43803576E-01 0.12500000E+03</pdfrwt>
<pdfrwt beam="2">  1       21 0.21106866E-02 0.12500000E+03</pdfrwt>
<totfact> 0.55585839E+06</totfact>
</mgrwt>
</event>
<event>
 3    0  0.1368989E+001  0.1250000E+03  0.7546771E-02  0.1235069E+00
         21   -1    0    0  502  501  0.00000000000E+00  0.00000000000E+00  0.48071289885E+01  0.48071289885E+01  0.00000000000E+00 0. -1.
         21   -1    0    0  501  502 -0.00000000000E+00 -0.00000000000E+00 -0.81259521210E+03  0.81259521210E+03  0.00000000000E+00 0. -1.
         25    1    1    2    0    0  0.00000000000E+00  0.00000000000E+00 -0.80778808311E+03  0.81740234109E+03  0.12500000000E+03 0.  0.
<mgrwt>
<rscale>  2 0.12500000E+03</rscale>
<asrwt>0</asrwt>
<pdfrwt beam="1">  1       21 0.73955837E-03 0.12500000E+03</pdfrwt>
<pdfrwt beam="2">  1       21 0.12501464E+00 0.12500000E+03</pdfrwt>
<totfact> 0.28794295E+06</totfact>
</mgrwt>
</event>
<event>
 3    0  0.1525199E+001  0.1250000E+03  0.7546771E-02  0.1235069E+00
         21   -1    0    0  502  501  0.00000000000E+00  0.00000000000E+00  0.33744295501E+03  0.33744295501E+03  0.00000000000E+00 0. -1.
         21   -1    0    0  501  502 -0.00000000000E+00 -0.00000000000E+00 -0.11576030680E+02  0.11576030680E+02  0.00000000000E+00 0. -1.
         25    1    1    2    0    0  0.00000000000E+00  0.00000000000E+00  0.32586692433E+03  0.34901898569E+03  0.12500000000E+03 0.  0.
<mgrwt>
<rscale>  2 0.12500000E+03</rscale>
<asrwt>0</asrwt>
<pdfrwt beam="1">  1       21 0.51914293E-01 0.12500000E+03</pdfrwt>
<pdfrwt beam="2">  1       21 0.17809280E-02 0.12500000E+03</pdfrwt>
<totfact> 0.51610967E+06</totfact>
</mgrwt>
</event>
<event>
 3    0  0.1710440E+001  0.1250000E+03  0.7546771E-02  0.1235069E+00
         21   -1    0    0  502  501  0.00000000000E+00  0.00000000000E+00  0.55293023125E+02  0.55293023125E+02  0.00000000000E+00 0.  1.
         21   -1    0    0  501  502 -0.00000000000E+00 -0.00000000000E+00 -0.70646345220E+02  0.70646345220E+02  0.00000000000E+00 0.  1.
         25    1    1    2    0    0  0.00000000000E+00  0.00000000000E+00 -0.15353322095E+02  0.12593936835E+03  0.12500000000E+03 0.  0.
<mgrwt>
<rscale>  2 0.12500000E+03</rscale>
<asrwt>0</asrwt>
<pdfrwt beam="1">  1       21 0.85066190E-02 0.12500000E+03</pdfrwt>
<pdfrwt beam="2">  1       21 0.10868668E-01 0.12500000E+03</pdfrwt>
<totfact> 0.73914403E+06</totfact>
</mgrwt>
</event>
<event>
 3    0  0.1520139E+001  0.1250000E+03  0.7546771E-02  0.1235069E+00
         21   -1    0    0  502  501  0.00000000000E+00  0.00000000000E+00  0.37992964225E+03  0.37992964225E+03  0.00000000000E+00 0. -1.
         21   -1    0    0  501  502 -0.00000000000E+00 -0.00000000000E+00 -0.10281508905E+02  0.10281508905E+02  0.00000000000E+00 0. -1.
         25    1    1    2    0    0  0.00000000000E+00  0.00000000000E+00  0.36964813335E+03  0.39021115116E+03  0.12500000000E+03 0.  0.
<mgrwt>
<rscale>  2 0.12500000E+03</rscale>
<asrwt>0</asrwt>
<pdfrwt beam="1">  1       21 0.58450703E-01 0.12500000E+03</pdfrwt>
<pdfrwt beam="2">  1       21 0.15817709E-02 0.12500000E+03</pdfrwt>
<totfact> 0.48697489E+06</totfact>
</mgrwt>
</event>
<event>
 3    0  0.1368989E+001  0.1250000E+03  0.7546771E-02  0.1235069E+00
         21   -1    0    0  502  501  0.00000000000E+00  0.00000000000E+00  0.18042972665E+01  0.18042972665E+01  0.00000000000E+00 0.  1.
         21   -1    0    0  501  502 -0.00000000000E+00 -0.00000000000E+00 -0.21649703031E+04  0.21649703031E+04  0.00000000000E+00 0.  1.
         25    1    1    2    0    0  0.00000000000E+00  0.00000000000E+00 -0.21631660059E+04  0.21667746004E+04  0.12500000000E+03 0.  0.
<mgrwt>
<rscale>  2 0.12500000E+03</rscale>
<asrwt>0</asrwt>
<pdfrwt beam="1">  1       21 0.27758506E-03 0.12500000E+03</pdfrwt>
<pdfrwt beam="2">  1       21 0.33307132E+00 0.12500000E+03</pdfrwt>
<totfact> 0.64333021E+05</totfact>
</mgrwt>
</event>
<event>
 3    0  0.1577195E+001  0.1250000E+03  0.7546771E-02  0.1235069E+00
         21   -1    0    0  502  501  0.00000000000E+00  0.00000000000E+00  0.12488237209E+02  0.12488237209E+02  0.00000000000E+00 0.  1.
         21   -1    0    0  501  502 -0.00000000000E+00 -0.00000000000E+00 -0.31279434676E+03  0.31279434676E+03  0.00000000000E+00 0.  1.
         25    1    1    2    0    0  0.00000000000E+00  0.00000000000E+00 -0.30030610955E+03  0.32528258397E+03  0.12500000000E+03 0.  0.
<mgrwt>
<rscale>  2 0.12500000E+03</rscale>
<asrwt>0</asrwt>
<pdfrwt beam="1">  1       21 0.19212672E-02 0.12500000E+03</pdfrwt>
<pdfrwt beam="2">  1       21 0.48122208E-01 0.12500000E+03</pdfrwt>
<totfact> 0.53417361E+06</totfact>
</mgrwt>
</event>
<event>
 3    0  0.1382162E+001  0.1250000E+03  0.7546771E-02  0.1235069E+00
         21   -1    0    0  502  501  0.00000000000E+00  0.00000000000E+00  0.64170532015E+03  0.64170532015E+03  0.00000000000E+00 0.  1.
         21   -1    0    0  501  502 -0.00000000000E+00 -0.00000000000E+00 -0.60872956439E+01  0.60872956439E+01  0.00000000000E+00 0.  1.
         25    1    1    2    0    0  0.00000000000E+00  0.00000000000E+00  0.63561802451E+03  0.64779261580E+03  0.12500000000E+03 0.  0.
<mgrwt>
<rscale>  2 0.12500000E+03</rscale>
<asrwt>0</asrwt>
<pdfrwt beam="1">  1       21 0.98723842E-01 0.12500000E+03</pdfrwt>
<pdfrwt beam="2">  1       21 0.93650753E-03 0.12500000E+03</pdfrwt>
<totfact> 0.35016517E+06</totfact>
</mgrwt>
</event>
<event>
 3    0  0.1658252E+001  0.1250000E+03  0.7546771E-02  0.1235069E+00
         21   -1    0    0  502  501  0.00000000000E+00  0.00000000000E+00  0.30768026408E+02  0.30768026408E+02  0.00000000000E+00 0. -1.
         21   -1    0    0  501  502 -0.00000000000E+00 -0.00000000000E+00 -0.12695809436E+03  0.12695809436E+03  0.00000000000E+00 0. -1.
         25    1    1    2    0    0  0.00000000000E+00  0.00000000000E+00 -0.96190067955E+02  0.15772612077E+03  0.12500000000E+03 0.  0.
<mgrwt>
<rscale>  2 0.12500000E+03</rscale>
<asrwt>0</asrwt>
<pdfrwt beam="1">  1       21 0.47335424E-02 0.12500000E+03</pdfrwt>
<pdfrwt beam="2">  1       21 0.19532015E-01 0.12500000E+03</pdfrwt>
<totfact> 0.69798412E+06</totfact>
</mgrwt>
</event>
<event>
 3    0  0.1662461E+001  0.1250000E+03  0.7546771E-02  0.1235069E+00
         21   -1    0    0  502  501  0.00000000000E+00  0.00000000000E+00  0.17520576207E+03  0.17520576207E+03  0.00000000000E+00 0.  1.
         21   -1    0    0  501  502 -0.00000000000E+00 -0.00000000000E+00 -0.22295214232E+02  0.22295214232E+02  0.00000000000E+00 0.  1.
         25    1    1    2    0    0  0.00000000000E+00  0.00000000000E+00  0.15291054784E+03  0.19750097630E+03  0.12500000000E+03 0.  0.
<mgrwt>
<rscale>  2 0.12500000E+03</rscale>
<asrwt>0</asrwt>
<pdfrwt beam="1">  1       21 0.26954732E-01 0.12500000E+03</pdfrwt>
<pdfrwt beam="2">  1       21 0.34300331E-02 0.12500000E+03</pdfrwt>
<totfact> 0.65198333E+06</totfact>
</mgrwt>
</event>
<event>
 3    0  0.1642451E+001  0.1250000E+03  0.7546771E-02  0.1235069E+00
         21   -1    0    0  502  501  0.00000000000E+00  0.00000000000E+00  0.23255822077E+02  0.23255822077E+02  0.00000000000E+00 0. -1.
         21   -1    0    0  501  502 -0.00000000000E+00 -0.00000000000E+00 -0.16796869133E+03  0.16796869133E+03  0.00000000000E+00 0. -1.
         25    1    1    2    0    0  0.00000000000E+00  0.00000000000E+00 -0.14471286925E+03  0.19122451340E+03  0.12500000000E+03 0.  0.
<mgrwt>
<rscale>  2 0.12500000E+03</rscale>
<asrwt>0</asrwt>
<pdfrwt beam="1">  1       21 0.35778187E-02 0.12500000E+03</pdfrwt>
<pdfrwt beam="2">  1       21 0.25841337E-01 0.12500000E+03</pdfrwt>
<totfact> 0.65886629E+06</totfact>
</mgrwt>
</event>
<event>
 3    0  0.1592595E+001  0.1250000E+03  0.7546771E-02  0.1235069E+00
         21   -1    0    0  502  501  0.00000000000E+00  0.00000000000E+00  0.17022783420E+02  0.17022783420E+02  0.00000000000E+00 0. -1.
         21   -1    0    0  501  502 -0.00000000000E+00 -0.00000000000E+00 -0.22947187329E+03  0.22947187329E+03  0.00000000000E+00 0. -1.
         25    1    1    2    0    0  0.00000000000E+00  0.00000000000E+00 -0.21244908987E+03  0.24649465671E+03  0.12500000000E+03 0.  0.
<mgrwt>
<rscale>  2 0.12500000E+03</rscale>
<asrwt>0</asrwt>
<pdfrwt beam="1">  1       21 0.26188898E-02 0.12500000E+03</pdfrwt>
<pdfrwt beam="2">  1       21 0.35303364E-01 0.12500000E+03</pdfrwt>
<totfact> 0.60209791E+06</totfact>
</mgrwt>
</event>
<event>
 3    0  0.1644474E+001  0.1250000E+03  0.7546771E-02  0.1235069E+00
         21   -1    0    0  502  501  0.00000000000E+00  0.00000000000E+00  0.18683499811E+02  0.18683499811E+02  0.00000000000E+00 0.  1.
         21   -1    0    0  501  502 -0.00000000000E+00 -0.00000000000E+00 -0.20907485426E+03  0.20907485426E+03  0.00000000000E+00 0.  1.
         25    1    1    2    0    0  0.00000000000E+00  0.00000000000E+00 -0.19039135444E+03  0.22775835407E+03  0.12500000000E+03 0.  0.
<mgrwt>
<rscale>  2 0.12500000E+03</rscale>
<asrwt>0</asrwt>
<pdfrwt beam="1">  1       21 0.28743845E-02 0.12500000E+03</pdfrwt>
<pdfrwt beam="2">  1       21 0.32165364E-01 0.12500000E+03</pdfrwt>
<totfact> 0.62037771E+06</totfact>
</mgrwt>
</event>
<event>
 3    0  0.1672150E+001  0.1250000E+03  0.7546771E-02  0.1235069E+00
         21   -1    0    0  502  501  0.00000000000E+00  0.00000000000E+00  0.14613904613E+03  0.14613904613E+03  0.00000000000E+00 0.  1.
         21   -1    0    0  501  502 -0.00000000000E+00 -0.00000000000E+00 -0.26729680420E+02  0.26729680420E+02  0.00000000000E+00 0.  1.
         25    1    1    2    0    0  0.00000000000E+00  0.00000000000E+00  0.11940936571E+03  0.17286872655E+03  0.12500000000E+03 0.  0.
<mgrwt>
<rscale>  2 0.12500000E+03</rscale>
<asrwt>0</asrwt>
<pdfrwt beam="1">  1       21 0.22482930E-01 0.12500000E+03</pdfrwt>
<pdfrwt beam="2">  1       21 0.41122586E-02 0.12500000E+03</pdfrwt>
<totfact> 0.67979181E+06</totfact>
</mgrwt>
</event>
<event>
 3    0  0.1681362E+001  0.1250000E+03  0.7546771E-02  0.1235069E+00
         21   -1    0    0  502  501  0.00000000000E+00  0.00000000000E+00  0.30677121366E+02  0.30677121366E+02  0.00000000000E+00 0.  1.
         21   -1    0    0  501  502 -0.00000000000E+00 -0.00000000000E+00 -0.12733430733E+03  0.12733430733E+03  0.00000000000E+00 0.  1.
         25    1    1    2    0    0  0.00000000000E+00  0.00000000000E+00 -0.96657185965E+02  0.15801142870E+03  0.12500000000E+03 0.  0.
<mgrwt>
<rscale>  2 0.12500000E+03</rscale>
<asrwt>0</asrwt>
<pdfrwt beam="1">  1       21 0.47195571E-02 0.12500000E+03</pdfrwt>
<pdfrwt beam="2">  1       21 0.19589894E-01 0.12500000E+03</pdfrwt>
<totfact> 0.69763298E+06</totfact>
</mgrwt>
</event>
<event>
 3    0  0.1652205E+001  0.1250000E+03  0.7546771E-02  0.1235069E+00
         21   -1    0    0  502  501  0.00000000000E+00  0.00000000000E+00  0.21741140051E+02  0.21741140051E+02  0.00000000000E+00 0.  1.
         21   -1    0    0  501  502 -0.00000000000E+00 -0.00000000000E+00 -0.17967089080E+03  0.17967089080E+03  0.00000000000E+00 0.  1.
         25    1    1    2    0    0  0.00000000000E+00  0.00000000000E+00 -0.15792975075E+03  0.20141203085E+03  0.12500000000E+03 0.  0.
<mgrwt>
<rscale>  2 0.12500000E+03</rscale>
<asrwt>0</asrwt>
<pdfrwt beam="1">  1       21 0.33447907E-02 0.12500000E+03</pdfrwt>
<pdfrwt beam="2">  1       21 0.27641676E-01 0.12500000E+03</pdfrwt>
<totfact> 0.64774569E+06</totfact>
</mgrwt>
</event>
<event>
 3    0  0.1382575E+001  0.1250000E+03  0.7546771E-02  0.1235069E+00
         21   -1    0    0  502  501  0.00000000000E+00  0.00000000000E+00  0.69939604480E+01  0.69939604480E+01  0.00000000000E+00 0. -1.
         21   -1    0    0  501  502 -0.00000000000E+00 -0.00000000000E+00 -0.55851759944E+03  0.55851759944E+03  0.00000000000E+00 0. -1.
         25    1    1    2    0    0  0.00000000000E+00  0.00000000000E+00 -0.55152363899E+03  0.56551155989E+03  0.12500000000E+03 0.  0.
<mgrwt>
<rscale>  2 0.12500000E+03</rscale>
<asrwt>0</asrwt>
<pdfrwt beam="1">  1       21 0.10759938E-02 0.12500000E+03</pdfrwt>
<pdfrwt beam="2">  1       21 0.85925792E-01 0.12500000E+03</pdfrwt>
<totfact> 0.38700268E+06</totfact>
</mgrwt>
</event>
<event>
 3    0  0.1671696E+001  0.1250000E+03  0.7546771E-02  0.1235069E+00
         21   -1    0    0  502  501  0.00000000000E+00  0.00000000000E+00  0.10330334452E+03  0.10330334452E+03  0.00000000000E+00 0. -1.
         21   -1    0    0  501  502 -0.00000000000E+00 -0.00000000000E+00 -0.37813393343E+02  0.37813393343E+02  0.00000000000E+00 0. -1.
         25    1    1    2    0    0  0.00000000000E+00  0.00000000000E+00  0.65489951179E+02  0.14111673786E+03  0.12500000000E+03 0.  0.
<mgrwt>
<rscale>  2 0.12500000E+03</rscale>
<asrwt>0</asrwt>
<pdfrwt beam="1">  1       21 0.15892822E-01 0.12500000E+03</pdfrwt>
<pdfrwt beam="2">  1       21 0.58174452E-02 0.12500000E+03</pdfrwt>
<totfact> 0.71893854E+06</totfact>
</mgrwt>
</event>
<event>
 3    0  0.1442413E+001  0.1250000E+03  0.7546771E-02  0.1235069E+00
         21   -1    0    0  502  501  0.00000000000E+00  0.00000000000E+00  0.80096046714E+01  0.80096046714E+01  0.00000000000E+00 0. -1.
         21   -1    0    0  501  502 -0.00000000000E+00 -0.00000000000E+00 -0.48769573035E+03  0.48769573035E+03  0.00000000000E+00 0. -1.
         25    1    1    2    0    0  0.00000000000E+00  0.00000000000E+00 -0.47968612568E+03  0.49570533502E+03  0.12500000000E+03 0.  0.
<mgrwt>
<rscale>  2 0.12500000E+03</rscale>
<asrwt>0</asrwt>
<pdfrwt beam="1">  1       21 0.12322463E-02 0.12500000E+03</pdfrwt>
<pdfrwt beam="2">  1       21 0.75030150E-01 0.12500000E+03</pdfrwt>
<totfact> 0.42277928E+06</totfact>
</mgrwt>
</event>
<event>
 3    0  0.1710402E+001  0.1250000E+03  0.7546771E-02  0.1235069E+00
         21   -1    0    0  502  501  0.00000000000E+00  0.00000000000E+00  0.48870711010E+02  0.48870711010E+02  0.00000000000E+00 0.  1.
         21   -1    0    0  501  502 -0.00000000000E+00 -0.00000000000E+00 -0.79930287881E+02  0.79930287881E+02  0.00000000000E+00 0.  1.
         25    1    1    2    0    0  0.00000000000E+00  0.00000000000E+00 -0.31059576870E+02  0.12880099889E+03  0.12500000000E+03 0.  0.
<mgrwt>
<rscale>  2 0.12500000E+03</rscale>
<asrwt>0</asrwt>
<pdfrwt beam="1">  1       21 0.75185710E-02 0.12500000E+03</pdfrwt>
<pdfrwt beam="2">  1       21 0.12296967E-01 0.12500000E+03</pdfrwt>
<totfact> 0.73525621E+06</totfact>
</mgrwt>
</event>
<event>
 3    0  0.1368989E+001  0.1250000E+03  0.7546771E-02  0.1235069E+00
         21   -1    0    0  502  501  0.00000000000E+00  0.00000000000E+00  0.33190773844E+01  0.33190773844E+01  0.00000000000E+00 0. -1.
         21   -1    0    0  501  502 -0.00000000000E+00 -0.00000000000E+00 -0.11769083838E+04  0.11769083838E+04  0.00000000000E+00 0. -1.
         25    1    1    2    0    0  0.00000000000E+00  0.00000000000E+00 -0.11735893064E+04  0.11802274611E+04  0.12500000000E+03 0.  0.
<mgrwt>
<rscale>  2 0.12500000E+03</rscale>
<asrwt>0</asrwt>
<pdfrwt beam="1">  1       21 0.51062736E-03 0.12500000E+03</pdfrwt>
<pdfrwt beam="2">  1       21 0.18106280E+00 0.12500000E+03</pdfrwt>
<totfact> 0.19541922E+06</totfact>
</mgrwt>
</event>
<event>
 3    0  0.1673463E+001  0.1250000E+03  0.7546771E-02  0.1235069E+00
         21   -1    0    0  502  501  0.00000000000E+00  0.00000000000E+00  0.23681082169E+02  0.23681082169E+02  0.00000000000E+00 0.  1.
         21   -1    0    0  501  502 -0.00000000000E+00 -0.00000000000E+00 -0.16495234348E+03  0.16495234348E+03  0.00000000000E+00 0.  1.
         25    1    1    2    0    0  0.00000000000E+00  0.00000000000E+00 -0.14127126131E+03  0.18863342565E+03  0.12500000000E+03 0.  0.
<mgrwt>
<rscale>  2 0.12500000E+03</rscale>
<asrwt>0</asrwt>
<pdfrwt beam="1">  1       21 0.36432435E-02 0.12500000E+03</pdfrwt>
<pdfrwt beam="2">  1       21 0.25377283E-01 0.12500000E+03</pdfrwt>
<totfact> 0.66174669E+06</totfact>
</mgrwt>
</event>
<event>
 3    0  0.1368989E+001  0.1250000E+03  0.7546771E-02  0.1235069E+00
         21   -1    0    0  502  501  0.00000000000E+00  0.00000000000E+00  0.64444356800E+03  0.64444356800E+03  0.00000000000E+00 0. -1.
         21   -1    0    0  501  502 -0.00000000000E+00 -0.00000000000E+00 -0.60614306574E+01  0.60614306574E+01  0.00000000000E+00 0. -1.
         25    1    1    2    0    0  0.00000000000E+00  0.00000000000E+00  0.63838213734E+03  0.65050499865E+03  0.12500000000E+03 0.  0.
<mgrwt>
<rscale>  2 0.12500000E+03</rscale>
<asrwt>0</asrwt>
<pdfrwt beam="1">  1       21 0.99145111E-01 0.12500000E+03</pdfrwt>
<pdfrwt beam="2">  1       21 0.93252830E-03 0.12500000E+03</pdfrwt>
<totfact> 0.34903553E+06</totfact>
</mgrwt>
</event>
<event>
 3    0  0.1612964E+001  0.1250000E+03  0.7546771E-02  0.1235069E+00
         21   -1    0    0  502  501  0.00000000000E+00  0.00000000000E+00  0.21208851792E+03  0.21208851792E+03  0.00000000000E+00 0. -1.
         21   -1    0    0  501  502 -0.00000000000E+00 -0.00000000000E+00 -0.18418017337E+02  0.18418017337E+02  0.00000000000E+00 0. -1.
         25    1    1    2    0    0  0.00000000000E+00  0.00000000000E+00  0.19367050058E+03  0.23050653526E+03  0.12500000000E+03 0.  0.
<mgrwt>
<rscale>  2 0.12500000E+03</rscale>
<asrwt>0</asrwt>
<pdfrwt beam="1">  1       21 0.32629001E-01 0.12500000E+03</pdfrwt>
<pdfrwt beam="2">  1       21 0.28335413E-02 0.12500000E+03</pdfrwt>
<totfact> 0.61763607E+06</totfact>
</mgrwt>
</event>
<event>
 3    0  0.1703760E+001  0.1250000E+03  0.7546771E-02  0.1235069E+00
         21   -1    0    0  502  501  0.00000000000E+00  0.00000000000E+00  0.42830145988E+02  0.42830145988E+02  0.00000000000E+00 0.  1.
         21   -1    0    0  501  502 -0.00000000000E+00 -0.00000000000E+00 -0.91203284740E+02  0.91203284740E+02  0.00000000000E+00 0.  1.
         25    1    1    2    0    0  0.00000000000E+00  0.00000000000E+00 -0.48373138752E+02  0.13403343073E+03  0.12500000000E+03 0.  0.
<mgrwt>
<rscale>  2 0.12500000E+03</rscale>
<asrwt>0</asrwt>
<pdfrwt beam="1">  1       21 0.65892533E-02 0.12500000E+03</pdfrwt>
<pdfrwt beam="2">  1       21 0.14031274E-01 0.12500000E+03</pdfrwt>
<totfact> 0.72824709E+06</totfact>
</mgrwt>
</event>
<event>
 3    0  0.1686419E+001  0.1250000E+03  0.7546771E-02  0.1235069E+00
         21   -1    0    0  502  501  0.00000000000E+00  0.00000000000E+00  0.31229871798E+02  0.31229871798E+02  0.00000000000E+00 0.  1.
         21   -1    0    0  501  502 -0.00000000000E+00 -0.00000000000E+00 -0.12508056470E+03  0.12508056470E+03  0.00000000000E+00 0.  1.
         25    1    1    2    0    0  0.00000000000E+00  0.00000000000E+00 -0.93850692904E+02  0.15631043650E+03  0.12500000000E+03 0.  0.
<mgrwt>
<rscale>  2 0.12500000E+03</rscale>
<asrwt>0</asrwt>
<pdfrwt beam="1">  1       21 0.48045957E-02 0.12500000E+03</pdfrwt>
<pdfrwt beam="2">  1       21 0.19243164E-01 0.12500000E+03</pdfrwt>
<totfact> 0.69973154E+06</totfact>
</mgrwt>
</event>
<event>
 3    0  0.1377720E+001  0.1250000E+03  0.7546771E-02  0.1235069E+00
         21   -1    0    0  502  501  0.00000000000E+00  0.00000000000E+00  0.60532216706E+03  0.60532216706E+03  0.00000000000E+00 0.  1.
         21   -1    0    0  501  502 -0.00000000000E+00 -0.00000000000E+00 -0.64531752058E+01  0.64531752058E+01  0.00000000000E+00 0.  1.
         25    1    1    2    0    0  0.00000000000E+00  0.00000000000E+00  0.59886899186E+03  0.61177534227E+03  0.12500000000E+03 0.  0.
<mgrwt>
<rscale>  2 0.12500000E+03</rscale>
<asrwt>0</asrwt>
<pdfrwt beam="1">  1       21 0.93126443E-01 0.12500000E+03</pdfrwt>
<pdfrwt beam="2">  1       21 0.99279666E-03 0.12500000E+03</pdfrwt>
<totfact> 0.36565476E+06</totfact>
</mgrwt>
</event>
<event>
 3    0  0.1652240E+001  0.1250000E+03  0.7546771E-02  0.1235069E+00
         21   -1    0    0  502  501  0.00000000000E+00  0.00000000000E+00  0.14750667007E+03  0.14750667007E+03  0.00000000000E+00 0. -1.
         21   -1    0    0  501  502 -0.00000000000E+00 -0.00000000000E+00 -0.26481853316E+02  0.26481853316E+02  0.00000000000E+00 0. -1.
         25    1    1    2    0    0  0.00000000000E+00  0.00000000000E+00  0.12102481675E+03  0.17398852339E+03  0.12500000000E+03 0.  0.
<mgrwt>
<rscale>  2 0.12500000E+03</rscale>
<asrwt>0</asrwt>
<pdfrwt beam="1">  1       21 0.22693333E-01 0.12500000E+03</pdfrwt>
<pdfrwt beam="2">  1       21 0.40741314E-02 0.12500000E+03</pdfrwt>
<totfact> 0.67847936E+06</totfact>
</mgrwt>
</event>
<event>
 3    0  0.1682885E+001  0.1250000E+03  0.7546771E-02  0.1235069E+00
         21   -1    0    0  502  501  0.00000000000E+00  0.00000000000E+00  0.30841238145E+02  0.30841238145E+02  0.00000000000E+00 0.  1.
         21   -1    0    0  501  502 -0.00000000000E+00 -0.00000000000E+00 -0.12665671792E+03  0.12665671792E+03  0.00000000000E+00 0.  1.
         25    1    1    2    0    0  0.00000000000E+00  0.00000000000E+00 -0.95815479773E+02  0.15749795606E+03  0.12500000000E+03 0.  0.
<mgrwt>
<rscale>  2 0.12500000E+03</rscale>
<asrwt>0</asrwt>
<pdfrwt beam="1">  1       21 0.47448059E-02 0.12500000E+03</pdfrwt>
<pdfrwt beam="2">  1       21 0.19485649E-01 0.12500000E+03</pdfrwt>
<totfact> 0.69826518E+06</totfact>
</mgrwt>
</event>
<event>
 3    0  0.1679192E+001  0.1250000E+03  0.7546771E-02  0.1235069E+00
         21   -1    0    0  502  501  0.00000000000E+00  0.00000000000E+00  0.44747557738E+02  0.44747557738E+02  0.00000000000E+00 0. -1.
         21   -1    0    0  501  502 -0.00000000000E+00 -0.00000000000E+00 -0.87295266992E+02  0.87295266992E+02  0.00000000000E+00 0. -1.
         25    1    1    2    0    0  0.00000000000E+00  0.00000000000E+00 -0.42547709253E+02  0.13204282473E+03  0.12500000000E+03 0.  0.
<mgrwt>
<rscale>  2 0.12500000E+03</rscale>
<asrwt>0</asrwt>
<pdfrwt beam="1">  1       21 0.68842398E-02 0.12500000E+03</pdfrwt>
<pdfrwt beam="2">  1       21 0.13430041E-01 0.12500000E+03</pdfrwt>
<totfact> 0.73090485E+06</totfact>
</mgrwt>
</event>
<event>
 3    0  0.1710989E+001  0.1250000E+03  0.7546771E-02  0.1235069E+00
         21   -1    0    0  502  501  0.00000000000E+00  0.00000000000E+00  0.55945088500E+02  0.55945088500E+02  0.00000000000E+00 0.  1.
         21   -1    0    0  501  502 -0.00000000000E+00 -0.00000000000E+00 -0.69822930032E+02  0.69822930032E+02  0.00000000000E+00 0.  1.
         25    1    1    2    0    0  0.00000000000E+00  0.00000000000E+00 -0.13877841532E+02  0.12576801853E+03  0.12500000000E+03 0.  0.
<mgrwt>
<rscale>  2 0.12500000E+03</rscale>
<asrwt>0</asrwt>
<pdfrwt beam="1">  1       21 0.86069367E-02 0.12500000E+03</pdfrwt>
<pdfrwt beam="2">  1       21 0.10741989E-01 0.12500000E+03</pdfrwt>
<totfact> 0.73938102E+06</totfact>
</mgrwt>
</event>
<event>
 3    0  0.1368989E+001  0.1250000E+03  0.7546771E-02  0.1235069E+00
         21   -1    0    0  502  501  0.00000000000E+00  0.00000000000E+00  0.47774194876E+01  0.47774194876E+01  0.00000000000E+00 0.  1.
         21   -1    0    0  501  502 -0.00000000000E+00 -0.00000000000E+00 -0.81764852555E+03  0.81764852555E+03  0.00000000000E+00 0.  1.
         25    1    1    2    0    0  0.00000000000E+00  0.00000000000E+00 -0.81287110606E+03  0.82242594504E+03  0.12500000000E+03 0.  0.
<mgrwt>
<rscale>  2 0.12500000E+03</rscale>
<asrwt>0</asrwt>
<pdfrwt beam="1">  1       21 0.73498714E-03 0.12500000E+03</pdfrwt>
<pdfrwt beam="2">  1       21 0.12579216E+00 0.12500000E+03</pdfrwt>
<totfact> 0.28633133E+06</totfact>
</mgrwt>
</event>
<event>
 3    0  0.1368989E+001  0.1250000E+03  0.7546771E-02  0.1235069E+00
         21   -1    0    0  502  501  0.00000000000E+00  0.00000000000E+00  0.41019139280E+01  0.41019139280E+01  0.00000000000E+00 0.  1.
         21   -1    0    0  501  502 -0.00000000000E+00 -0.00000000000E+00 -0.95229935794E+03  0.95229935794E+03  0.00000000000E+00 0.  1.
         25    1    1    2    0    0  0.00000000000E+00  0.00000000000E+00 -0.94819744402E+03  0.95640127187E+03  0.12500000000E+03 0.  0.
<mgrwt>
<rscale>  2 0.12500000E+03</rscale>
<asrwt>0</asrwt>
<pdfrwt beam="1">  1       21 0.63106335E-03 0.12500000E+03</pdfrwt>
<pdfrwt beam="2">  1       21 0.14650767E+00 0.12500000E+03</pdfrwt>
<totfact> 0.24740784E+06</totfact>
</mgrwt>
</event>
<event>
 3    0  0.1688101E+001  0.1250000E+03  0.7546771E-02  0.1235069E+00
         21   -1    0    0  502  501  0.00000000000E+00  0.00000000000E+00  0.63160897506E+02  0.63160897506E+02  0.00000000000E+00 0. -1.
         21   -1    0    0  501  502 -0.00000000000E+00 -0.00000000000E+00 -0.61846017936E+02  0.61846017936E+02  0.00000000000E+00 0. -1.
         25    1    1    2    0    0  0.00000000000E+00  0.00000000000E+00  0.13148795706E+01  0.12500691544E+03  0.12500000000E+03 0.  0.
<mgrwt>
<rscale>  2 0.12500000E+03</rscale>
<asrwt>0</asrwt>
<pdfrwt beam="1">  1       21 0.97170612E-02 0.12500000E+03</pdfrwt>
<pdfrwt beam="2">  1       21 0.95147719E-02 0.12500000E+03</pdfrwt>
<totfact> 0.74042647E+06</totfact>
</mgrwt>
</event>
<event>
 3    0  0.1368989E+001  0.1250000E+03  0.7546771E-02  0.1235069E+00
         21   -1    0    0  502  501  0.00000000000E+00  0.00000000000E+00  0.63930604905E+01  0.63930604905E+01  0.00000000000E+00 0.  1.
         21   -1    0    0  501  502 -0.00000000000E+00 -0.00000000000E+00 -0.61101408407E+03  0.61101408407E+03  0.00000000000E+00 0.  1.
         25    1    1    2    0    0  0.00000000000E+00  0.00000000000E+00 -0.60462102358E+03  0.61740714456E+03  0.12500000000E+03 0.  0.
<mgrwt>
<rscale>  2 0.12500000E+03</rscale>
<asrwt>0</asrwt>
<pdfrwt beam="1">  1       21 0.98354745E-03 0.12500000E+03</pdfrwt>
<pdfrwt beam="2">  1       21 0.94002197E-01 0.12500000E+03</pdfrwt>
<totfact> 0.36317054E+06</totfact>
</mgrwt>
</event>
<event>
 3    0  0.1711673E+001  0.1250000E+03  0.7546771E-02  0.1235069E+00
         21   -1    0    0  502  501  0.00000000000E+00  0.00000000000E+00  0.68085408145E+02  0.68085408145E+02  0.00000000000E+00 0.  1.
         21   -1    0    0  501  502 -0.00000000000E+00 -0.00000000000E+00 -0.57372792591E+02  0.57372792591E+02  0.00000000000E+00 0.  1.
         25    1    1    2    0    0  0.00000000000E+00  0.00000000000E+00  0.10712615554E+02  0.12545820074E+03  0.12500000000E+03 0.  0.
<mgrwt>
<rscale>  2 0.12500000E+03</rscale>
<asrwt>0</asrwt>
<pdfrwt beam="1">  1       21 0.10474678E-01 0.12500000E+03</pdfrwt>
<pdfrwt beam="2">  1       21 0.88265835E-02 0.12500000E+03</pdfrwt>
<totfact> 0.73981246E+06</totfact>
</mgrwt>
</event>
<event>
 3    0  0.1529419E+001  0.1250000E+03  0.7546771E-02  0.1235069E+00
         21   -1    0    0  502  501  0.00000000000E+00  0.00000000000E+00  0.12037391102E+02  0.12037391102E+02  0.00000000000E+00 0. -1.
         21   -1    0    0  501  502 -0.00000000000E+00 -0.00000000000E+00 -0.32450968544E+03  0.32450968544E+03  0.00000000000E+00 0. -1.
         25    1    1    2    0    0  0.00000000000E+00  0.00000000000E+00 -0.31247229434E+03  0.33654707654E+03  0.12500000000E+03 0.  0.
<mgrwt>
<rscale>  2 0.12500000E+03</rscale>
<asrwt>0</asrwt>
<pdfrwt beam="1">  1       21 0.18519060E-02 0.12500000E+03</pdfrwt>
<pdfrwt beam="2">  1       21 0.49924576E-01 0.12500000E+03</pdfrwt>
<totfact> 0.52547575E+06</totfact>
</mgrwt>
</event>
<event>
 3    0  0.1659784E+001  0.1250000E+03  0.7546771E-02  0.1235069E+00
         21   -1    0    0  502  501  0.00000000000E+00  0.00000000000E+00  0.16040049230E+03  0.16040049230E+03  0.00000000000E+00 0.  1.
         21   -1    0    0  501  502 -0.00000000000E+00 -0.00000000000E+00 -0.24353104806E+02  0.24353104806E+02  0.00000000000E+00 0.  1.
         25    1    1    2    0    0  0.00000000000E+00  0.00000000000E+00  0.13604738750E+03  0.18475359711E+03  0.12500000000E+03 0.  0.
<mgrwt>
<rscale>  2 0.12500000E+03</rscale>
<asrwt>0</asrwt>
<pdfrwt beam="1">  1       21 0.24676998E-01 0.12500000E+03</pdfrwt>
<pdfrwt beam="2">  1       21 0.37466316E-02 0.12500000E+03</pdfrwt>
<totfact> 0.66610359E+06</totfact>
</mgrwt>
</event>
<event>
 3    0  0.1368989E+001  0.1250000E+03  0.7546771E-02  0.1235069E+00
         21   -1    0    0  502  501  0.00000000000E+00  0.00000000000E+00  0.26719592731E+01  0.26719592731E+01  0.00000000000E+00 0.  1.
         21   -1    0    0  501  502 -0.00000000000E+00 -0.00000000000E+00 -0.14619421933E+04  0.14619421933E+04  0.00000000000E+00 0.  1.
         25    1    1    2    0    0  0.00000000000E+00  0.00000000000E+00 -0.14592702340E+04  0.14646141526E+04  0.12500000000E+03 0.  0.
<mgrwt>
<rscale>  2 0.12500000E+03</rscale>
<asrwt>0</asrwt>
<pdfrwt beam="1">  1       21 0.41107124E-03 0.12500000E+03</pdfrwt>
<pdfrwt beam="2">  1       21 0.22491387E+00 0.12500000E+03</pdfrwt>
<totfact> 0.14525763E+06</totfact>
</mgrwt>
</event>
<event>
 3    0  0.1656402E+001  0.1250000E+03  0.7546771E-02  0.1235069E+00
         21   -1    0    0  502  501  0.00000000000E+00  0.00000000000E+00  0.16181699530E+03  0.16181699530E+03  0.00000000000E+00 0.  1.
         21   -1    0    0  501  502 -0.00000000000E+00 -0.00000000000E+00 -0.24139924195E+02  0.24139924195E+02  0.00000000000E+00 0.  1.
         25    1    1    2    0    0  0.00000000000E+00  0.00000000000E+00  0.13767707110E+03  0.18595691949E+03  0.12500000000E+03 0.  0.
<mgrwt>
<rscale>  2 0.12500000E+03</rscale>
<asrwt>0</asrwt>
<pdfrwt beam="1">  1       21 0.24894922E-01 0.12500000E+03</pdfrwt>
<pdfrwt beam="2">  1       21 0.37138346E-02 0.12500000E+03</pdfrwt>
<totfact> 0.66474660E+06</totfact>
</mgrwt>
</event>
<event>
 3    0  0.1711804E+001  0.1250000E+03  0.7546771E-02  0.1235069E+00
         21   -1    0    0  502  501  0.00000000000E+00  0.00000000000E+00  0.66717723679E+02  0.66717723679E+02  0.00000000000E+00 0.  1.
         21   -1    0    0  501  502 -0.00000000000E+00 -0.00000000000E+00 -0.58548910013E+02  0.58548910013E+02  0.00000000000E+00 0.  1.
         25    1    1    2    0    0  0.00000000000E+00  0.00000000000E+00  0.81688136657E+01  0.12526663369E+03  0.12500000000E+03 0.  0.
<mgrwt>
<rscale>  2 0.12500000E+03</rscale>
<asrwt>0</asrwt>
<pdfrwt beam="1">  1       21 0.10264265E-01 0.12500000E+03</pdfrwt>
<pdfrwt beam="2">  1       21 0.90075247E-02 0.12500000E+03</pdfrwt>
<totfact> 0.74007576E+06</totfact>
</mgrwt>
</event>
<event>
 3    0  0.1368989E+001  0.1250000E+03  0.7546771E-02  0.1235069E+00
         21   -1    0    0  502  501  0.00000000000E+00  0.00000000000E+00  0.78160188612E+03  0.78160188612E+03  0.00000000000E+00 0. -1.
         21   -1    0    0  501  502 -0.00000000000E+00 -0.00000000000E+00 -0.49977489427E+01  0.49977489427E+01  0.00000000000E+00 0. -1.
         25    1    1    2    0    0  0.00000000000E+00  0.00000000000E+00  0.77660413718E+03  0.78659963507E+03  0.12500000000E+03 0.  0.
<mgrwt>
<rscale>  2 0.12500000E+03</rscale>
<asrwt>0</asrwt>
<pdfrwt beam="1">  1       21 0.12024635E+00 0.12500000E+03</pdfrwt>
<pdfrwt beam="2">  1       21 0.76888507E-03 0.12500000E+03</pdfrwt>
<totfact> 0.29811660E+06</totfact>
</mgrwt>
</event>
<event>
 3    0  0.1570110E+001  0.1250000E+03  0.7546771E-02  0.1235069E+00
         21   -1    0    0  502  501  0.00000000000E+00  0.00000000000E+00  0.13572457669E+02  0.13572457669E+02  0.00000000000E+00 0. -1.
         21   -1    0    0  501  502 -0.00000000000E+00 -0.00000000000E+00 -0.28780712345E+03  0.28780712345E+03  0.00000000000E+00 0. -1.
         25    1    1    2    0    0  0.00000000000E+00  0.00000000000E+00 -0.27423466578E+03  0.30137958112E+03  0.12500000000E+03 0.  0.
<mgrwt>
<rscale>  2 0.12500000E+03</rscale>
<asrwt>0</asrwt>
<pdfrwt beam="1">  1       21 0.20880705E-02 0.12500000E+03</pdfrwt>
<pdfrwt beam="2">  1       21 0.44278018E-01 0.12500000E+03</pdfrwt>
<totfact> 0.55341720E+06</totfact>
</mgrwt>
</event>
<event>
 3    0  0.1631132E+001  0.1250000E+03  0.7546771E-02  0.1235069E+00
         21   -1    0    0  502  501  0.00000000000E+00  0.00000000000E+00  0.17260616538E+03  0.17260616538E+03  0.00000000000E+00 0. -1.
         21   -1    0    0  501  502 -0.00000000000E+00 -0.00000000000E+00 -0.22630999254E+02  0.22630999254E+02  0.00000000000E+00 0. -1.
         25    1    1    2    0    0  0.00000000000E+00  0.00000000000E+00  0.14997516613E+03  0.19523716464E+03  0.12500000000E+03 0.  0.
<mgrwt>
<rscale>  2 0.12500000E+03</rscale>
<asrwt>0</asrwt>
<pdfrwt beam="1">  1       21 0.26554794E-01 0.12500000E+03</pdfrwt>
<pdfrwt beam="2">  1       21 0.34816923E-02 0.12500000E+03</pdfrwt>
<totfact> 0.65445075E+06</totfact>
</mgrwt>
</event>
<event>
 3    0  0.1691502E+001  0.1250000E+03  0.7546771E-02  0.1235069E+00
         21   -1    0    0  502  501  0.00000000000E+00  0.00000000000E+00  0.11970089466E+03  0.11970089466E+03  0.00000000000E+00 0.  1.
         21   -1    0    0  501  502 -0.00000000000E+00 -0.00000000000E+00 -0.32633423594E+02  0.32633423594E+02  0.00000000000E+00 0.  1.
         25    1    1    2    0    0  0.00000000000E+00  0.00000000000E+00  0.87067471063E+02  0.15233431825E+03  0.12500000000E+03 0.  0.
<mgrwt>
<rscale>  2 0.12500000E+03</rscale>
<asrwt>0</asrwt>
<pdfrwt beam="1">  1       21 0.18415522E-01 0.12500000E+03</pdfrwt>
<pdfrwt beam="2">  1       21 0.50205268E-02 0.12500000E+03</pdfrwt>
<totfact> 0.70467185E+06</totfact>
</mgrwt>
</event>
<event>
 3    0  0.1499131E+001  0.1250000E+03  0.7546771E-02  0.1235069E+00
         21   -1    0    0  502  501  0.00000000000E+00  0.00000000000E+00  0.10445006491E+02  0.10445006491E+02  0.00000000000E+00 0. -1.
         21   -1    0    0  501  502 -0.00000000000E+00 -0.00000000000E+00 -0.37398253448E+03  0.37398253448E+03  0.00000000000E+00 0. -1.
         25    1    1    2    0    0  0.00000000000E+00  0.00000000000E+00 -0.36353752798E+03  0.38442754097E+03  0.12500000000E+03 0.  0.
<mgrwt>
<rscale>  2 0.12500000E+03</rscale>
<asrwt>0</asrwt>
<pdfrwt beam="1">  1       21 0.16069241E-02 0.12500000E+03</pdfrwt>
<pdfrwt beam="2">  1       21 0.57535774E-01 0.12500000E+03</pdfrwt>
<totfact> 0.49091701E+06</totfact>
</mgrwt>
</event>
<event>
 3    0  0.1664852E+001  0.1250000E+03  0.7546771E-02  0.1235069E+00
         21   -1    0    0  502  501  0.00000000000E+00  0.00000000000E+00  0.11649132608E+03  0.11649132608E+03  0.00000000000E+00 0. -1.
         21   -1    0    0  501  502 -0.00000000000E+00 -0.00000000000E+00 -0.33532539558E+02  0.33532539558E+02  0.00000000000E+00 0. -1.
         25    1    1    2    0    0  0.00000000000E+00  0.00000000000E+00  0.82958786522E+02  0.15002386564E+03  0.12500000000E+03 0.  0.
<mgrwt>
<rscale>  2 0.12500000E+03</rscale>
<asrwt>0</asrwt>
<pdfrwt beam="1">  1       21 0.17921742E-01 0.12500000E+03</pdfrwt>
<pdfrwt beam="2">  1       21 0.51588523E-02 0.12500000E+03</pdfrwt>
<totfact> 0.70756203E+06</totfact>
</mgrwt>
</event>
<event>
 3    0  0.1562814E+001  0.1250000E+03  0.7546771E-02  0.1235069E+00
         21   -1    0    0  502  501  0.00000000000E+00  0.00000000000E+00  0.31963727646E+03  0.31963727646E+03  0.00000000000E+00 0.  1.
         21   -1    0    0  501  502 -0.00000000000E+00 -0.00000000000E+00 -0.12220883757E+02  0.12220883757E+02  0.00000000000E+00 0.  1.
         25    1    1    2    0    0  0.00000000000E+00  0.00000000000E+00  0.30741639271E+03  0.33185816022E+03  0.12500000000E+03 0.  0.
<mgrwt>
<rscale>  2 0.12500000E+03</rscale>
<asrwt>0</asrwt>
<pdfrwt beam="1">  1       21 0.49174959E-01 0.12500000E+03</pdfrwt>
<pdfrwt beam="2">  1       21 0.18801362E-02 0.12500000E+03</pdfrwt>
<totfact> 0.52906825E+06</totfact>
</mgrwt>
</event>
<event>
 3    0  0.1456622E+001  0.1250000E+03  0.7546771E-02  0.1235069E+00
         21   -1    0    0  502  501  0.00000000000E+00  0.00000000000E+00  0.90265845531E+01  0.90265845531E+01  0.00000000000E+00 0. -1.
         21   -1    0    0  501  502 -0.00000000000E+00 -0.00000000000E+00 -0.43274950531E+03  0.43274950531E+03  0.00000000000E+00 0. -1.
         25    1    1    2    0    0  0.00000000000E+00  0.00000000000E+00 -0.42372292076E+03  0.44177608987E+03  0.12500000000E+03 0.  0.
<mgrwt>
<rscale>  2 0.12500000E+03</rscale>
<asrwt>0</asrwt>
<pdfrwt beam="1">  1       21 0.13887058E-02 0.12500000E+03</pdfrwt>
<pdfrwt beam="2">  1       21 0.66576824E-01 0.12500000E+03</pdfrwt>
<totfact> 0.45388449E+06</totfact>
</mgrwt>
</event>
<event>
 3    0  0.1679416E+001  0.1250000E+03  0.7546771E-02  0.1235069E+00
         21   -1    0    0  502  501  0.00000000000E+00  0.00000000000E+00  0.42806698747E+02  0.42806698747E+02  0.00000000000E+00 0. -1.
         21   -1    0    0  501  502 -0.00000000000E+00 -0.00000000000E+00 -0.91253241066E+02  0.91253241066E+02  0.00000000000E+00 0. -1.
         25    1    1    2    0    0  0.00000000000E+00  0.00000000000E+00 -0.48446542318E+02  0.13405993981E+03  0.12500000000E+03 0.  0.
<mgrwt>
<rscale>  2 0.12500000E+03</rscale>
<asrwt>0</asrwt>
<pdfrwt beam="1">  1       21 0.65856459E-02 0.12500000E+03</pdfrwt>
<pdfrwt beam="2">  1       21 0.14038960E-01 0.12500000E+03</pdfrwt>
<totfact> 0.72821185E+06</totfact>
</mgrwt>
</event>
<event>
 3    0  0.1663123E+001  0.1250000E+03  0.7546771E-02  0.1235069E+00
         21   -1    0    0  502  501  0.00000000000E+00  0.00000000000E+00  0.22300917872E+02  0.22300917872E+02  0.00000000000E+00 0.  1.
         21   -1    0    0  501  502 -0.00000000000E+00 -0.00000000000E+00 -0.17516095178E+03  0.17516095178E+03  0.00000000000E+00 0.  1.
         25    1    1    2    0    0  0.00000000000E+00  0.00000000000E+00 -0.15286003390E+03  0.19746186965E+03  0.12500000000E+03 0.  0.
<mgrwt>
<rscale>  2 0.12500000E+03</rscale>
<asrwt>0</asrwt>
<pdfrwt beam="1">  1       21 0.34309104E-02 0.12500000E+03</pdfrwt>
<pdfrwt beam="2">  1       21 0.26947839E-01 0.12500000E+03</pdfrwt>
<totfact> 0.65202580E+06</totfact>
</mgrwt>
</event>
<event>
 3    0  0.1632368E+001  0.1250000E+03  0.7546771E-02  0.1235069E+00
         21   -1    0    0  502  501  0.00000000000E+00  0.00000000000E+00  0.17789676432E+03  0.17789676432E+03  0.00000000000E+00 0. -1.
         21   -1    0    0  501  502 -0.00000000000E+00 -0.00000000000E+00 -0.21957959803E+02  0.21957959803E+02  0.00000000000E+00 0. -1.
         25    1    1    2    0    0  0.00000000000E+00  0.00000000000E+00  0.15593880452E+03  0.19985472412E+03  0.12500000000E+03 0.  0.
<mgrwt>
<rscale>  2 0.12500000E+03</rscale>
<asrwt>0</asrwt>
<pdfrwt beam="1">  1       21 0.27368732E-01 0.12500000E+03</pdfrwt>
<pdfrwt beam="2">  1       21 0.33781478E-02 0.12500000E+03</pdfrwt>
<totfact> 0.64942998E+06</totfact>
</mgrwt>
</event>
<event>
 3    0  0.1368989E+001  0.1250000E+03  0.7546771E-02  0.1235069E+00
         21   -1    0    0  502  501  0.00000000000E+00  0.00000000000E+00  0.14936981913E+01  0.14936981913E+01  0.00000000000E+00 0. -1.
         21   -1    0    0  501  502 -0.00000000000E+00 -0.00000000000E+00 -0.26151534645E+04  0.26151534645E+04  0.00000000000E+00 0. -1.
         25    1    1    2    0    0  0.00000000000E+00  0.00000000000E+00 -0.26136597663E+04  0.26166471627E+04  0.12500000000E+03 0.  0.
<mgrwt>
<rscale>  2 0.12500000E+03</rscale>
<asrwt>0</asrwt>
<pdfrwt beam="1">  1       21 0.22980208E-03 0.12500000E+03</pdfrwt>
<pdfrwt beam="2">  1       21 0.40232717E+00 0.12500000E+03</pdfrwt>
<totfact> 0.33566144E+05</totfact>
</mgrwt>
</event>
<event>
 3    0  0.1566496E+001  0.1250000E+03  0.7546771E-02  0.1235069E+00
         21   -1    0    0  502  501  0.00000000000E+00  0.00000000000E+00  0.13041671637E+02  0.13041671637E+02  0.00000000000E+00 0.  1.
         21   -1    0    0  501  502 -0.00000000000E+00 -0.00000000000E+00 -0.29952065262E+03  0.29952065262E+03  0.00000000000E+00 0.  1.
         25    1    1    2    0    0  0.00000000000E+00  0.00000000000E+00 -0.28647898099E+03  0.31256232426E+03  0.12500000000E+03 0.  0.
<mgrwt>
<rscale>  2 0.12500000E+03</rscale>
<asrwt>0</asrwt>
<pdfrwt beam="1">  1       21 0.20064112E-02 0.12500000E+03</pdfrwt>
<pdfrwt beam="2">  1       21 0.46080096E-01 0.12500000E+03</pdfrwt>
<totfact> 0.54428056E+06</totfact>
</mgrwt>
</event>
<event>
 3    0  0.1465174E+001  0.1250000E+03  0.7546771E-02  0.1235069E+00
         21   -1    0    0  502  501  0.00000000000E+00  0.00000000000E+00  0.47717902091E+03  0.47717902091E+03  0.00000000000E+00 0. -1.
         21   -1    0    0  501  502 -0.00000000000E+00 -0.00000000000E+00 -0.81861310511E+01  0.81861310511E+01  0.00000000000E+00 0. -1.
         25    1    1    2    0    0  0.00000000000E+00  0.00000000000E+00  0.46899288986E+03  0.48536515196E+03  0.12500000000E+03 0.  0.
<mgrwt>
<rscale>  2 0.12500000E+03</rscale>
<asrwt>0</asrwt>
<pdfrwt beam="1">  1       21 0.73412135E-01 0.12500000E+03</pdfrwt>
<pdfrwt beam="2">  1       21 0.12594052E-02 0.12500000E+03</pdfrwt>
<totfact> 0.42849044E+06</totfact>
</mgrwt>
</event>
<event>
 3    0  0.1666571E+001  0.1250000E+03  0.7546771E-02  0.1235069E+00
         21   -1    0    0  502  501  0.00000000000E+00  0.00000000000E+00  0.25715454077E+02  0.25715454077E+02  0.00000000000E+00 0.  1.
         21   -1    0    0  501  502 -0.00000000000E+00 -0.00000000000E+00 -0.15190282031E+03  0.15190282031E+03  0.00000000000E+00 0.  1.
         25    1    1    2    0    0  0.00000000000E+00  0.00000000000E+00 -0.12618736624E+03  0.17761827439E+03  0.12500000000E+03 0.  0.
<mgrwt>
<rscale>  2 0.12500000E+03</rscale>
<asrwt>0</asrwt>
<pdfrwt beam="1">  1       21 0.39562236E-02 0.12500000E+03</pdfrwt>
<pdfrwt beam="2">  1       21 0.23369665E-01 0.12500000E+03</pdfrwt>
<totfact> 0.67425816E+06</totfact>
</mgrwt>
</event>
<event>
 3    0  0.1691327E+001  0.1250000E+03  0.7546771E-02  0.1235069E+00
         21   -1    0    0  502  501  0.00000000000E+00  0.00000000000E+00  0.10857197255E+03  0.10857197255E+03  0.00000000000E+00 0.  1.
         21   -1    0    0  501  502 -0.00000000000E+00 -0.00000000000E+00 -0.35978438157E+02  0.35978438157E+02  0.00000000000E+00 0.  1.
         25    1    1    2    0    0  0.00000000000E+00  0.00000000000E+00  0.72593534394E+02  0.14455041071E+03  0.12500000000E+03 0.  0.
<mgrwt>
<rscale>  2 0.12500000E+03</rscale>
<asrwt>0</asrwt>
<pdfrwt beam="1">  1       21 0.16703380E-01 0.12500000E+03</pdfrwt>
<pdfrwt beam="2">  1       21 0.55351444E-02 0.12500000E+03</pdfrwt>
<totfact> 0.71450685E+06</totfact>
</mgrwt>
</event>
<event>
 3    0  0.1694983E+001  0.1250000E+03  0.7546771E-02  0.1235069E+00
         21   -1    0    0  502  501  0.00000000000E+00  0.00000000000E+00  0.36570838061E+02  0.36570838061E+02  0.00000000000E+00 0.  1.
         21   -1    0    0  501  502 -0.00000000000E+00 -0.00000000000E+00 -0.10681324813E+03  0.10681324813E+03  0.00000000000E+00 0.  1.
         25    1    1    2    0    0  0.00000000000E+00  0.00000000000E+00 -0.70242410064E+02  0.14338408619E+03  0.12500000000E+03 0.  0.
<mgrwt>
<rscale>  2 0.12500000E+03</rscale>
<asrwt>0</asrwt>
<pdfrwt beam="1">  1       21 0.56262828E-02 0.12500000E+03</pdfrwt>
<pdfrwt beam="2">  1       21 0.16432807E-01 0.12500000E+03</pdfrwt>
<totfact> 0.71600543E+06</totfact>
</mgrwt>
</event>
<event>
 3    0  0.1672236E+001  0.1250000E+03  0.7546771E-02  0.1235069E+00
         21   -1    0    0  502  501  0.00000000000E+00  0.00000000000E+00  0.36814014059E+02  0.36814014059E+02  0.00000000000E+00 0. -1.
         21   -1    0    0  501  502 -0.00000000000E+00 -0.00000000000E+00 -0.10610769023E+03  0.10610769023E+03  0.00000000000E+00 0. -1.
         25    1    1    2    0    0  0.00000000000E+00  0.00000000000E+00 -0.69293676176E+02  0.14292170429E+03  0.12500000000E+03 0.  0.
<mgrwt>
<rscale>  2 0.12500000E+03</rscale>
<asrwt>0</asrwt>
<pdfrwt beam="1">  1       21 0.56636945E-02 0.12500000E+03</pdfrwt>
<pdfrwt beam="2">  1       21 0.16324260E-01 0.12500000E+03</pdfrwt>
<totfact> 0.71660143E+06</totfact>
</mgrwt>
</event>
<event>
 3    0  0.1623933E+001  0.1250000E+03  0.7546771E-02  0.1235069E+00
         21   -1    0    0  502  501  0.00000000000E+00  0.00000000000E+00  0.22544429661E+03  0.22544429661E+03  0.00000000000E+00 0.  1.
         21   -1    0    0  501  502 -0.00000000000E+00 -0.00000000000E+00 -0.17326896527E+02  0.17326896527E+02  0.00000000000E+00 0.  1.
         25    1    1    2    0    0  0.00000000000E+00  0.00000000000E+00  0.20811740009E+03  0.24277119314E+03  0.12500000000E+03 0.  0.
<mgrwt>
<rscale>  2 0.12500000E+03</rscale>
<asrwt>0</asrwt>
<pdfrwt beam="1">  1       21 0.34683736E-01 0.12500000E+03</pdfrwt>
<pdfrwt beam="2">  1       21 0.26656765E-02 0.12500000E+03</pdfrwt>
<totfact> 0.60565527E+06</totfact>
</mgrwt>
</event>
<event>
 3    0  0.1467292E+001  0.1250000E+03  0.7546771E-02  0.1235069E+00
         21   -1    0    0  502  501  0.00000000000E+00  0.00000000000E+00  0.91439700451E+01  0.91439700451E+01  0.00000000000E+00 0. -1.
         21   -1    0    0  501  502 -0.00000000000E+00 -0.00000000000E+00 -0.42719409411E+03  0.42719409411E+03  0.00000000000E+00 0. -1.
         25    1    1    2    0    0  0.00000000000E+00  0.00000000000E+00 -0.41805012406E+03  0.43633806415E+03  0.12500000000E+03 0.  0.
<mgrwt>
<rscale>  2 0.12500000E+03</rscale>
<asrwt>0</asrwt>
<pdfrwt beam="1">  1       21 0.14067646E-02 0.12500000E+03</pdfrwt>
<pdfrwt beam="2">  1       21 0.65722169E-01 0.12500000E+03</pdfrwt>
<totfact> 0.45720918E+06</totfact>
</mgrwt>
</event>
<event>
 3    0  0.1368989E+001  0.1250000E+03  0.7546771E-02  0.1235069E+00
         21   -1    0    0  502  501  0.00000000000E+00  0.00000000000E+00  0.64324488499E+01  0.64324488499E+01  0.00000000000E+00 0. -1.
         21   -1    0    0  501  502 -0.00000000000E+00 -0.00000000000E+00 -0.60727260973E+03  0.60727260973E+03  0.00000000000E+00 0. -1.
         25    1    1    2    0    0  0.00000000000E+00  0.00000000000E+00 -0.60084016088E+03  0.61370505858E+03  0.12500000000E+03 0.  0.
<mgrwt>
<rscale>  2 0.12500000E+03</rscale>
<asrwt>0</asrwt>
<pdfrwt beam="1">  1       21 0.98960772E-03 0.12500000E+03</pdfrwt>
<pdfrwt beam="2">  1       21 0.93426536E-01 0.12500000E+03</pdfrwt>
<totfact> 0.36480087E+06</totfact>
</mgrwt>
</event>
<event>
 3    0  0.1368989E+001  0.1250000E+03  0.7546771E-02  0.1235069E+00
         21   -1    0    0  502  501  0.00000000000E+00  0.00000000000E+00  0.74919689182E+03  0.74919689182E+03  0.00000000000E+00 0.  1.
         21   -1    0    0  501  502 -0.00000000000E+00 -0.00000000000E+00 -0.52139164520E+01  0.52139164520E+01  0.00000000000E+00 0.  1.
         25    1    1    2    0    0  0.00000000000E+00  0.00000000000E+00  0.74398297536E+03  0.75441080827E+03  0.12500000000E+03 0.  0.
<mgrwt>
<rscale>  2 0.12500000E+03</rscale>
<asrwt>0</asrwt>
<pdfrwt beam="1">  1       21 0.11526098E+00 0.12500000E+03</pdfrwt>
<pdfrwt beam="2">  1       21 0.80214159E-03 0.12500000E+03</pdfrwt>
<totfact> 0.30914349E+06</totfact>
</mgrwt>
</event>
<event>
 3    0  0.1704838E+001  0.1250000E+03  0.7546771E-02  0.1235069E+00
         21   -1    0    0  502  501  0.00000000000E+00  0.00000000000E+00  0.43141024255E+02  0.43141024255E+02  0.00000000000E+00 0.  1.
         21   -1    0    0  501  502 -0.00000000000E+00 -0.00000000000E+00 -0.90546065317E+02  0.90546065317E+02  0.00000000000E+00 0.  1.
         25    1    1    2    0    0  0.00000000000E+00  0.00000000000E+00 -0.47405041062E+02  0.13368708957E+03  0.12500000000E+03 0.  0.
<mgrwt>
<rscale>  2 0.12500000E+03</rscale>
<asrwt>0</asrwt>
<pdfrwt beam="1">  1       21 0.66370808E-02 0.12500000E+03</pdfrwt>
<pdfrwt beam="2">  1       21 0.13930164E-01 0.12500000E+03</pdfrwt>
<totfact> 0.72870786E+06</totfact>
</mgrwt>
</event>
<event>
 3    0  0.1368989E+001  0.1250000E+03  0.7546771E-02  0.1235069E+00
         21   -1    0    0  502  501  0.00000000000E+00  0.00000000000E+00  0.32887694086E+01  0.32887694086E+01  0.00000000000E+00 0. -1.
         21   -1    0    0  501  502 -0.00000000000E+00 -0.00000000000E+00 -0.11877542979E+04  0.11877542979E+04  0.00000000000E+00 0. -1.
         25    1    1    2    0    0  0.00000000000E+00  0.00000000000E+00 -0.11844655285E+04  0.11910430673E+04  0.12500000000E+03 0.  0.
<mgrwt>
<rscale>  2 0.12500000E+03</rscale>
<asrwt>0</asrwt>
<pdfrwt beam="1">  1       21 0.50596448E-03 0.12500000E+03</pdfrwt>
<pdfrwt beam="2">  1       21 0.18273145E+00 0.12500000E+03</pdfrwt>
<totfact> 0.19322780E+06</totfact>
</mgrwt>
</event>
<event>
 3    0  0.1567702E+001  0.1250000E+03  0.7546771E-02  0.1235069E+00
         21   -1    0    0  502  501  0.00000000000E+00  0.00000000000E+00  0.26485544522E+03  0.26485544522E+03  0.00000000000E+00 0. -1.
         21   -1    0    0  501  502 -0.00000000000E+00 -0.00000000000E+00 -0.14748611254E+02  0.14748611254E+02  0.00000000000E+00 0. -1.
         25    1    1    2    0    0  0.00000000000E+00  0.00000000000E+00  0.25010683397E+03  0.27960405648E+03  0.12500000000E+03 0.  0.
<mgrwt>
<rscale>  2 0.12500000E+03</rscale>
<asrwt>0</asrwt>
<pdfrwt beam="1">  1       21 0.40746988E-01 0.12500000E+03</pdfrwt>
<pdfrwt beam="2">  1       21 0.22690173E-02 0.12500000E+03</pdfrwt>
<totfact> 0.57194927E+06</totfact>
</mgrwt>
</event>
<event>
 3    0  0.1692986E+001  0.1250000E+03  0.7546771E-02  0.1235069E+00
         21   -1    0    0  502  501  0.00000000000E+00  0.00000000000E+00  0.11457043735E+03  0.11457043735E+03  0.00000000000E+00 0.  1.
         21   -1    0    0  501  502 -0.00000000000E+00 -0.00000000000E+00 -0.34094746343E+02  0.34094746343E+02  0.00000000000E+00 0.  1.
         25    1    1    2    0    0  0.00000000000E+00  0.00000000000E+00  0.80475691011E+02  0.14866518370E+03  0.12500000000E+03 0.  0.
<mgrwt>
<rscale>  2 0.12500000E+03</rscale>
<asrwt>0</asrwt>
<pdfrwt beam="1">  1       21 0.17626221E-01 0.12500000E+03</pdfrwt>
<pdfrwt beam="2">  1       21 0.52453456E-02 0.12500000E+03</pdfrwt>
<totfact> 0.70927283E+06</totfact>
</mgrwt>
</event>
<event>
 3    0  0.1705983E+001  0.1250000E+03  0.7546771E-02  0.1235069E+00
         21   -1    0    0  502  501  0.00000000000E+00  0.00000000000E+00  0.90280045570E+02  0.90280045570E+02  0.00000000000E+00 0.  1.
         21   -1    0    0  501  502 -0.00000000000E+00 -0.00000000000E+00 -0.43268143867E+02  0.43268143867E+02  0.00000000000E+00 0.  1.
         25    1    1    2    0    0  0.00000000000E+00  0.00000000000E+00  0.47011901703E+02  0.13354818944E+03  0.12500000000E+03 0.  0.
<mgrwt>
<rscale>  2 0.12500000E+03</rscale>
<asrwt>0</asrwt>
<pdfrwt beam="1">  1       21 0.13889238E-01 0.12500000E+03</pdfrwt>
<pdfrwt beam="2">  1       21 0.66566376E-02 0.12500000E+03</pdfrwt>
<totfact> 0.72889284E+06</totfact>
</mgrwt>
</event>
<event>
 3    0  0.1421123E+001  0.1250000E+03  0.7546771E-02  0.1235069E+00
         21   -1    0    0  502  501  0.00000000000E+00  0.00000000000E+00  0.67518322168E+01  0.67518322168E+01  0.00000000000E+00 0.  1.
         21   -1    0    0  501  502 -0.00000000000E+00 -0.00000000000E+00 -0.57854666327E+03  0.57854666327E+03  0.00000000000E+00 0.  1.
         25    1    1    2    0    0  0.00000000000E+00  0.00000000000E+00 -0.57179483106E+03  0.58529849549E+03  0.12500000000E+03 0.  0.
<mgrwt>
<rscale>  2 0.12500000E+03</rscale>
<asrwt>0</asrwt>
<pdfrwt beam="1">  1       21 0.10387432E-02 0.12500000E+03</pdfrwt>
<pdfrwt beam="2">  1       21 0.89007196E-01 0.12500000E+03</pdfrwt>
<totfact> 0.37766035E+06</totfact>
</mgrwt>
</event>
<event>
 3    0  0.1616546E+001  0.1250000E+03  0.7546771E-02  0.1235069E+00
         21   -1    0    0  502  501  0.00000000000E+00  0.00000000000E+00  0.20330993996E+02  0.20330993996E+02  0.00000000000E+00 0. -1.
         21   -1    0    0  501  502 -0.00000000000E+00 -0.00000000000E+00 -0.19213276049E+03  0.19213276049E+03  0.00000000000E+00 0. -1.
         25    1    1    2    0    0  0.00000000000E+00  0.00000000000E+00 -0.17180176650E+03  0.21246375449E+03  0.12500000000E+03 0.  0.
<mgrwt>
<rscale>  2 0.12500000E+03</rscale>
<asrwt>0</asrwt>
<pdfrwt beam="1">  1       21 0.31278453E-02 0.12500000E+03</pdfrwt>
<pdfrwt beam="2">  1       21 0.29558885E-01 0.12500000E+03</pdfrwt>
<totfact> 0.63601250E+06</totfact>
</mgrwt>
</event>
<event>
 3    0  0.1640033E+001  0.1250000E+03  0.7546771E-02  0.1235069E+00
         21   -1    0    0  502  501  0.00000000000E+00  0.00000000000E+00  0.19337082539E+02  0.19337082539E+02  0.00000000000E+00 0.  1.
         21   -1    0    0  501  502 -0.00000000000E+00 -0.00000000000E+00 -0.20200823946E+03  0.20200823946E+03  0.00000000000E+00 0.  1.
         25    1    1    2    0    0  0.00000000000E+00  0.00000000000E+00 -0.18267115692E+03  0.22134532200E+03  0.12500000000E+03 0.  0.
<mgrwt>
<rscale>  2 0.12500000E+03</rscale>
<asrwt>0</asrwt>
<pdfrwt beam="1">  1       21 0.29749357E-02 0.12500000E+03</pdfrwt>
<pdfrwt beam="2">  1       21 0.31078192E-01 0.12500000E+03</pdfrwt>
<totfact> 0.62685289E+06</totfact>
</mgrwt>
</event>
<event>
 3    0  0.1407526E+001  0.1250000E+03  0.7546771E-02  0.1235069E+00
         21   -1    0    0  502  501  0.00000000000E+00  0.00000000000E+00  0.57571519387E+03  0.57571519387E+03  0.00000000000E+00 0. -1.
         21   -1    0    0  501  502 -0.00000000000E+00 -0.00000000000E+00 -0.67850389248E+01  0.67850389248E+01  0.00000000000E+00 0. -1.
         25    1    1    2    0    0  0.00000000000E+00  0.00000000000E+00  0.56893015494E+03  0.58250023279E+03  0.12500000000E+03 0.  0.
<mgrwt>
<rscale>  2 0.12500000E+03</rscale>
<asrwt>0</asrwt>
<pdfrwt beam="1">  1       21 0.88571530E-01 0.12500000E+03</pdfrwt>
<pdfrwt beam="2">  1       21 0.10438526E-02 0.12500000E+03</pdfrwt>
<totfact> 0.37896197E+06</totfact>
</mgrwt>
</event>
<event>
 3    0  0.1676516E+001  0.1250000E+03  0.7546771E-02  0.1235069E+00
         21   -1    0    0  502  501  0.00000000000E+00  0.00000000000E+00  0.26444934255E+02  0.26444934255E+02  0.00000000000E+00 0.  1.
         21   -1    0    0  501  502 -0.00000000000E+00 -0.00000000000E+00 -0.14771260016E+03  0.14771260016E+03  0.00000000000E+00 0.  1.
         25    1    1    2    0    0  0.00000000000E+00  0.00000000000E+00 -0.12126766591E+03  0.17415753442E+03  0.12500000000E+03 0.  0.
<mgrwt>
<rscale>  2 0.12500000E+03</rscale>
<asrwt>0</asrwt>
<pdfrwt beam="1">  1       21 0.40684516E-02 0.12500000E+03</pdfrwt>
<pdfrwt beam="2">  1       21 0.22725015E-01 0.12500000E+03</pdfrwt>
<totfact> 0.67828169E+06</totfact>
</mgrwt>
</event>
<event>
 3    0  0.1608471E+001  0.1250000E+03  0.7546771E-02  0.1235069E+00
         21   -1    0    0  502  501  0.00000000000E+00  0.00000000000E+00  0.19976506771E+02  0.19976506771E+02  0.00000000000E+00 0. -1.
         21   -1    0    0  501  502 -0.00000000000E+00 -0.00000000000E+00 -0.19554219588E+03  0.19554219588E+03  0.00000000000E+00 0. -1.
         25    1    1    2    0    0  0.00000000000E+00  0.00000000000E+00 -0.17556568910E+03  0.21551870265E+03  0.12500000000E+03 0.  0.
<mgrwt>
<rscale>  2 0.12500000E+03</rscale>
<asrwt>0</asrwt>
<pdfrwt beam="1">  1       21 0.30733087E-02 0.12500000E+03</pdfrwt>
<pdfrwt beam="2">  1       21 0.30083416E-01 0.12500000E+03</pdfrwt>
<totfact> 0.63283541E+06</totfact>
</mgrwt>
</event>
<event>
 3    0  0.1386086E+001  0.1250000E+03  0.7546771E-02  0.1235069E+00
         21   -1    0    0  502  501  0.00000000000E+00  0.00000000000E+00  0.61136815421E+01  0.61136815421E+01  0.00000000000E+00 0.  1.
         21   -1    0    0  501  502 -0.00000000000E+00 -0.00000000000E+00 -0.63893579884E+03  0.63893579884E+03  0.00000000000E+00 0.  1.
         25    1    1    2    0    0  0.00000000000E+00  0.00000000000E+00 -0.63282211730E+03  0.64504948039E+03  0.12500000000E+03 0.  0.
<mgrwt>
<rscale>  2 0.12500000E+03</rscale>
<asrwt>0</asrwt>
<pdfrwt beam="1">  1       21 0.94056667E-03 0.12500000E+03</pdfrwt>
<pdfrwt beam="2">  1       21 0.98297786E-01 0.12500000E+03</pdfrwt>
<totfact> 0.35131270E+06</totfact>
</mgrwt>
</event>
<event>
 3    0  0.1368989E+001  0.1250000E+03  0.7546771E-02  0.1235069E+00
         21   -1    0    0  502  501  0.00000000000E+00  0.00000000000E+00  0.59819188035E+01  0.59819188035E+01  0.00000000000E+00 0. -1.
         21   -1    0    0  501  502 -0.00000000000E+00 -0.00000000000E+00 -0.65300953228E+03  0.65300953228E+03  0.00000000000E+00 0. -1.
         25    1    1    2    0    0  0.00000000000E+00  0.00000000000E+00 -0.64702761347E+03  0.65899145108E+03  0.12500000000E+03 0.  0.
<mgrwt>
<rscale>  2 0.12500000E+03</rscale>
<asrwt>0</asrwt>
<pdfrwt beam="1">  1       21 0.92029554E-03 0.12500000E+03</pdfrwt>
<pdfrwt beam="2">  1       21 0.10046297E+00 0.12500000E+03</pdfrwt>
<totfact> 0.34551738E+06</totfact>
</mgrwt>
</event>
<event>
 3    0  0.1710348E+001  0.1250000E+03  0.7546771E-02  0.1235069E+00
         21   -1    0    0  502  501  0.00000000000E+00  0.00000000000E+00  0.52896927681E+02  0.52896927681E+02  0.00000000000E+00 0.  1.
         21   -1    0    0  501  502 -0.00000000000E+00 -0.00000000000E+00 -0.73846443853E+02  0.73846443853E+02  0.00000000000E+00 0.  1.
         25    1    1    2    0    0  0.00000000000E+00  0.00000000000E+00 -0.20949516171E+02  0.12674337153E+03  0.12500000000E+03 0.  0.
<mgrwt>
<rscale>  2 0.12500000E+03</rscale>
<asrwt>0</asrwt>
<pdfrwt beam="1">  1       21 0.81379889E-02 0.12500000E+03</pdfrwt>
<pdfrwt beam="2">  1       21 0.11360991E-01 0.12500000E+03</pdfrwt>
<totfact> 0.73804114E+06</totfact>
</mgrwt>
</event>
<event>
 3    0  0.1368989E+001  0.1250000E+03  0.7546771E-02  0.1235069E+00
         21   -1    0    0  502  501  0.00000000000E+00  0.00000000000E+00  0.37177455011E+01  0.37177455011E+01  0.00000000000E+00 0. -1.
         21   -1    0    0  501  502 -0.00000000000E+00 -0.00000000000E+00 -0.10507039814E+04  0.10507039814E+04  0.00000000000E+00 0. -1.
         25    1    1    2    0    0  0.00000000000E+00  0.00000000000E+00 -0.10469862359E+04  0.10544217269E+04  0.12500000000E+03 0.  0.
<mgrwt>
<rscale>  2 0.12500000E+03</rscale>
<asrwt>0</asrwt>
<pdfrwt beam="1">  1       21 0.57196089E-03 0.12500000E+03</pdfrwt>
<pdfrwt beam="2">  1       21 0.16164675E+00 0.12500000E+03</pdfrwt>
<totfact> 0.22294571E+06</totfact>
</mgrwt>
</event>
<event>
 3    0  0.1368989E+001  0.1250000E+03  0.7546771E-02  0.1235069E+00
         21   -1    0    0  502  501  0.00000000000E+00  0.00000000000E+00  0.79073003545E+03  0.79073003545E+03  0.00000000000E+00 0. -1.
         21   -1    0    0  501  502 -0.00000000000E+00 -0.00000000000E+00 -0.49400551704E+01  0.49400551704E+01  0.00000000000E+00 0. -1.
         25    1    1    2    0    0  0.00000000000E+00  0.00000000000E+00  0.78578998028E+03  0.79567009062E+03  0.12500000000E+03 0.  0.
<mgrwt>
<rscale>  2 0.12500000E+03</rscale>
<asrwt>0</asrwt>
<pdfrwt beam="1">  1       21 0.12165067E+00 0.12500000E+03</pdfrwt>
<pdfrwt beam="2">  1       21 0.76000911E-03 0.12500000E+03</pdfrwt>
<totfact> 0.29506802E+06</totfact>
</mgrwt>
</event>
<event>
 3    0  0.1552530E+001  0.1250000E+03  0.7546771E-02  0.1235069E+00
         21   -1    0    0  502  501  0.00000000000E+00  0.00000000000E+00  0.33497674435E+03  0.33497674435E+03  0.00000000000E+00 0.  1.
         21   -1    0    0  501  502 -0.00000000000E+00 -0.00000000000E+00 -0.11661257284E+02  0.11661257284E+02  0.00000000000E+00 0.  1.
         25    1    1    2    0    0  0.00000000000E+00  0.00000000000E+00  0.32331548707E+03  0.34663800163E+03  0.12500000000E+03 0.  0.
<mgrwt>
<rscale>  2 0.12500000E+03</rscale>
<asrwt>0</asrwt>
<pdfrwt beam="1">  1       21 0.51534876E-01 0.12500000E+03</pdfrwt>
<pdfrwt beam="2">  1       21 0.17940398E-02 0.12500000E+03</pdfrwt>
<totfact> 0.51787690E+06</totfact>
</mgrwt>
</event>
<event>
 3    0  0.1686730E+001  0.1250000E+03  0.7546771E-02  0.1235069E+00
         21   -1    0    0  502  501  0.00000000000E+00  0.00000000000E+00  0.29862188473E+02  0.29862188473E+02  0.00000000000E+00 0.  1.
         21   -1    0    0  501  502 -0.00000000000E+00 -0.00000000000E+00 -0.13080923401E+03  0.13080923401E+03  0.00000000000E+00 0.  1.
         25    1    1    2    0    0  0.00000000000E+00  0.00000000000E+00 -0.10094704554E+03  0.16067142248E+03  0.12500000000E+03 0.  0.
<mgrwt>
<rscale>  2 0.12500000E+03</rscale>
<asrwt>0</asrwt>
<pdfrwt beam="1">  1       21 0.45941829E-02 0.12500000E+03</pdfrwt>
<pdfrwt beam="2">  1       21 0.20124497E-01 0.12500000E+03</pdfrwt>
<totfact> 0.69437548E+06</totfact>
</mgrwt>
</event>
<event>
 3    0  0.1604029E+001  0.1250000E+03  0.7546771E-02  0.1235069E+00
         21   -1    0    0  502  501  0.00000000000E+00  0.00000000000E+00  0.18838458055E+02  0.18838458055E+02  0.00000000000E+00 0. -1.
         21   -1    0    0  501  502 -0.00000000000E+00 -0.00000000000E+00 -0.20735508122E+03  0.20735508122E+03  0.00000000000E+00 0. -1.
         25    1    1    2    0    0  0.00000000000E+00  0.00000000000E+00 -0.18851662316E+03  0.22619353927E+03  0.12500000000E+03 0.  0.
<mgrwt>
<rscale>  2 0.12500000E+03</rscale>
<asrwt>0</asrwt>
<pdfrwt beam="1">  1       21 0.28982243E-02 0.12500000E+03</pdfrwt>
<pdfrwt beam="2">  1       21 0.31900782E-01 0.12500000E+03</pdfrwt>
<totfact> 0.62194840E+06</totfact>
</mgrwt>
</event>
<event>
 3    0  0.1659756E+001  0.1250000E+03  0.7546771E-02  0.1235069E+00
         21   -1    0    0  502  501  0.00000000000E+00  0.00000000000E+00  0.17050202181E+03  0.17050202181E+03  0.00000000000E+00 0.  1.
         21   -1    0    0  501  502 -0.00000000000E+00 -0.00000000000E+00 -0.22910285511E+02  0.22910285511E+02  0.00000000000E+00 0.  1.
         25    1    1    2    0    0  0.00000000000E+00  0.00000000000E+00  0.14759173630E+03  0.19341230733E+03  0.12500000000E+03 0.  0.
<mgrwt>
<rscale>  2 0.12500000E+03</rscale>
<asrwt>0</asrwt>
<pdfrwt beam="1">  1       21 0.26231079E-01 0.12500000E+03</pdfrwt>
<pdfrwt beam="2">  1       21 0.35246594E-02 0.12500000E+03</pdfrwt>
<totfact> 0.65645211E+06</totfact>
</mgrwt>
</event>
<event>
 3    0  0.1613123E+001  0.1250000E+03  0.7546771E-02  0.1235069E+00
         21   -1    0    0  502  501  0.00000000000E+00  0.00000000000E+00  0.19194654706E+02  0.19194654706E+02  0.00000000000E+00 0. -1.
         21   -1    0    0  501  502 -0.00000000000E+00 -0.00000000000E+00 -0.20350717738E+03  0.20350717738E+03  0.00000000000E+00 0. -1.
         25    1    1    2    0    0  0.00000000000E+00  0.00000000000E+00 -0.18431252268E+03  0.22270183209E+03  0.12500000000E+03 0.  0.
<mgrwt>
<rscale>  2 0.12500000E+03</rscale>
<asrwt>0</asrwt>
<pdfrwt beam="1">  1       21 0.29530238E-02 0.12500000E+03</pdfrwt>
<pdfrwt beam="2">  1       21 0.31308796E-01 0.12500000E+03</pdfrwt>
<totfact> 0.62547435E+06</totfact>
</mgrwt>
</event>
<event>
 3    0  0.1448041E+001  0.1250000E+03  0.7546771E-02  0.1235069E+00
         21   -1    0    0  502  501  0.00000000000E+00  0.00000000000E+00  0.53419132161E+03  0.53419132161E+03  0.00000000000E+00 0.  1.
         21   -1    0    0  501  502 -0.00000000000E+00 -0.00000000000E+00 -0.73124549987E+01  0.73124549987E+01  0.00000000000E+00 0.  1.
         25    1    1    2    0    0  0.00000000000E+00  0.00000000000E+00  0.52687886662E+03  0.54150377661E+03  0.12500000000E+03 0.  0.
<mgrwt>
<rscale>  2 0.12500000E+03</rscale>
<asrwt>0</asrwt>
<pdfrwt beam="1">  1       21 0.82183249E-01 0.12500000E+03</pdfrwt>
<pdfrwt beam="2">  1       21 0.11249935E-02 0.12500000E+03</pdfrwt>
<totfact> 0.39879123E+06</totfact>
</mgrwt>
</event>
<event>
 3    0  0.1574723E+001  0.1250000E+03  0.7546771E-02  0.1235069E+00
         21   -1    0    0  502  501  0.00000000000E+00  0.00000000000E+00  0.14907468196E+02  0.14907468196E+02  0.00000000000E+00 0. -1.
         21   -1    0    0  501  502 -0.00000000000E+00 -0.00000000000E+00 -0.26203309299E+03  0.26203309299E+03  0.00000000000E+00 0. -1.
         25    1    1    2    0    0  0.00000000000E+00  0.00000000000E+00 -0.24712562480E+03  0.27694056119E+03  0.12500000000E+03 0.  0.
<mgrwt>
<rscale>  2 0.12500000E+03</rscale>
<asrwt>0</asrwt>
<pdfrwt beam="1">  1       21 0.22934567E-02 0.12500000E+03</pdfrwt>
<pdfrwt beam="2">  1       21 0.40312782E-01 0.12500000E+03</pdfrwt>
<totfact> 0.57428651E+06</totfact>
</mgrwt>
</event>
<event>
 3    0  0.1635151E+001  0.1250000E+03  0.7546771E-02  0.1235069E+00
         21   -1    0    0  502  501  0.00000000000E+00  0.00000000000E+00  0.16082358747E+03  0.16082358747E+03  0.00000000000E+00 0. -1.
         21   -1    0    0  501  502 -0.00000000000E+00 -0.00000000000E+00 -0.24289036586E+02  0.24289036586E+02  0.00000000000E+00 0. -1.
         25    1    1    2    0    0  0.00000000000E+00  0.00000000000E+00  0.13653455089E+03  0.18511262406E+03  0.12500000000E+03 0.  0.
<mgrwt>
<rscale>  2 0.12500000E+03</rscale>
<asrwt>0</asrwt>
<pdfrwt beam="1">  1       21 0.24742090E-01 0.12500000E+03</pdfrwt>
<pdfrwt beam="2">  1       21 0.37367750E-02 0.12500000E+03</pdfrwt>
<totfact> 0.66569818E+06</totfact>
</mgrwt>
</event>
<event>
 3    0  0.1625342E+001  0.1250000E+03  0.7546771E-02  0.1235069E+00
         21   -1    0    0  502  501  0.00000000000E+00  0.00000000000E+00  0.19818708351E+03  0.19818708351E+03  0.00000000000E+00 0. -1.
         21   -1    0    0  501  502 -0.00000000000E+00 -0.00000000000E+00 -0.19709912123E+02  0.19709912123E+02  0.00000000000E+00 0. -1.
         25    1    1    2    0    0  0.00000000000E+00  0.00000000000E+00  0.17847717139E+03  0.21789699564E+03  0.12500000000E+03 0.  0.
<mgrwt>
<rscale>  2 0.12500000E+03</rscale>
<asrwt>0</asrwt>
<pdfrwt beam="1">  1       21 0.30490319E-01 0.12500000E+03</pdfrwt>
<pdfrwt beam="2">  1       21 0.30322943E-02 0.12500000E+03</pdfrwt>
<totfact> 0.63038140E+06</totfact>
</mgrwt>
</event>
<event>
 3    0  0.1646704E+001  0.1250000E+03  0.7546771E-02  0.1235069E+00
         21   -1    0    0  502  501  0.00000000000E+00  0.00000000000E+00  0.25067297574E+02  0.25067297574E+02  0.00000000000E+00 0. -1.
         21   -1    0    0  501  502 -0.00000000000E+00 -0.00000000000E+00 -0.15583051936E+03  0.15583051936E+03  0.00000000000E+00 0. -1.
         25    1    1    2    0    0  0.00000000000E+00  0.00000000000E+00 -0.13076322179E+03  0.18089781694E+03  0.12500000000E+03 0.  0.
<mgrwt>
<rscale>  2 0.12500000E+03</rscale>
<asrwt>0</asrwt>
<pdfrwt beam="1">  1       21 0.38565072E-02 0.12500000E+03</pdfrwt>
<pdfrwt beam="2">  1       21 0.23973927E-01 0.12500000E+03</pdfrwt>
<totfact> 0.67048690E+06</totfact>
</mgrwt>
</event>
<event>
 3    0  0.1676636E+001  0.1250000E+03  0.7546771E-02  0.1235069E+00
         21   -1    0    0  502  501  0.00000000000E+00  0.00000000000E+00  0.93354537562E+02  0.93354537562E+02  0.00000000000E+00 0. -1.
         21   -1    0    0  501  502 -0.00000000000E+00 -0.00000000000E+00 -0.41843172298E+02  0.41843172298E+02  0.00000000000E+00 0. -1.
         25    1    1    2    0    0  0.00000000000E+00  0.00000000000E+00  0.51511365264E+02  0.13519770986E+03  0.12500000000E+03 0.  0.
<mgrwt>
<rscale>  2 0.12500000E+03</rscale>
<asrwt>0</asrwt>
<pdfrwt beam="1">  1       21 0.14362236E-01 0.12500000E+03</pdfrwt>
<pdfrwt beam="2">  1       21 0.64374111E-02 0.12500000E+03</pdfrwt>
<totfact> 0.72670304E+06</totfact>
</mgrwt>
</event>
<event>
 3    0  0.1562097E+001  0.1250000E+03  0.7546771E-02  0.1235069E+00
         21   -1    0    0  502  501  0.00000000000E+00  0.00000000000E+00  0.33055428813E+03  0.33055428813E+03  0.00000000000E+00 0.  1.
         21   -1    0    0  501  502 -0.00000000000E+00 -0.00000000000E+00 -0.11817272201E+02  0.11817272201E+02  0.00000000000E+00 0.  1.
         25    1    1    2    0    0  0.00000000000E+00  0.00000000000E+00  0.31873701593E+03  0.34237156033E+03  0.12500000000E+03 0.  0.
<mgrwt>
<rscale>  2 0.12500000E+03</rscale>
<asrwt>0</asrwt>
<pdfrwt beam="1">  1       21 0.50854499E-01 0.12500000E+03</pdfrwt>
<pdfrwt beam="2">  1       21 0.18180421E-02 0.12500000E+03</pdfrwt>
<totfact> 0.52106798E+06</totfact>
</mgrwt>
</event>
<event>
 3    0  0.1694561E+001  0.1250000E+03  0.7546771E-02  0.1235069E+00
         21   -1    0    0  502  501  0.00000000000E+00  0.00000000000E+00  0.11829071345E+03  0.11829071345E+03  0.00000000000E+00 0.  1.
         21   -1    0    0  501  502 -0.00000000000E+00 -0.00000000000E+00 -0.33022457015E+02  0.33022457015E+02  0.00000000000E+00 0.  1.
         25    1    1    2    0    0  0.00000000000E+00  0.00000000000E+00  0.85268256432E+02  0.15131317046E+03  0.12500000000E+03 0.  0.
<mgrwt>
<rscale>  2 0.12500000E+03</rscale>
<asrwt>0</asrwt>
<pdfrwt beam="1">  1       21 0.18198571E-01 0.12500000E+03</pdfrwt>
<pdfrwt beam="2">  1       21 0.50803781E-02 0.12500000E+03</pdfrwt>
<totfact> 0.70594631E+06</totfact>
</mgrwt>
</event>
<event>
 3    0  0.1577724E+001  0.1250000E+03  0.7546771E-02  0.1235069E+00
         21   -1    0    0  502  501  0.00000000000E+00  0.00000000000E+00  0.14474773688E+02  0.14474773688E+02  0.00000000000E+00 0. -1.
         21   -1    0    0  501  502 -0.00000000000E+00 -0.00000000000E+00 -0.26986605001E+03  0.26986605001E+03  0.00000000000E+00 0. -1.
         25    1    1    2    0    0  0.00000000000E+00  0.00000000000E+00 -0.25539127632E+03  0.28434082370E+03  0.12500000000E+03 0.  0.
<mgrwt>
<rscale>  2 0.12500000E+03</rscale>
<asrwt>0</asrwt>
<pdfrwt beam="1">  1       21 0.22268884E-02 0.12500000E+03</pdfrwt>
<pdfrwt beam="2">  1       21 0.41517851E-01 0.12500000E+03</pdfrwt>
<totfact> 0.56783150E+06</totfact>
</mgrwt>
</event>
<event>
 3    0  0.1677201E+001  0.1250000E+03  0.7546771E-02  0.1235069E+00
         21   -1    0    0  502  501  0.00000000000E+00  0.00000000000E+00  0.93018157664E+02  0.93018157664E+02  0.00000000000E+00 0. -1.
         21   -1    0    0  501  502 -0.00000000000E+00 -0.00000000000E+00 -0.41994489013E+02  0.41994489013E+02  0.00000000000E+00 0. -1.
         25    1    1    2    0    0  0.00000000000E+00  0.00000000000E+00  0.51023668651E+02  0.13501264668E+03  0.12500000000E+03 0.  0.
<mgrwt>
<rscale>  2 0.12500000E+03</rscale>
<asrwt>0</asrwt>
<pdfrwt beam="1">  1       21 0.14310486E-01 0.12500000E+03</pdfrwt>
<pdfrwt beam="2">  1       21 0.64606906E-02 0.12500000E+03</pdfrwt>
<totfact> 0.72694797E+06</totfact>
</mgrwt>
</event>
<event>
 3    0  0.1368989E+001  0.1250000E+03  0.7546771E-02  0.1235069E+00
         21   -1    0    0  502  501  0.00000000000E+00  0.00000000000E+00  0.59528242752E+01  0.59528242752E+01  0.00000000000E+00 0. -1.
         21   -1    0    0  501  502 -0.00000000000E+00 -0.00000000000E+00 -0.65620112730E+03  0.65620112730E+03  0.00000000000E+00 0. -1.
         25    1    1    2    0    0  0.00000000000E+00  0.00000000000E+00 -0.65024830302E+03  0.66215395157E+03  0.12500000000E+03 0.  0.
<mgrwt>
<rscale>  2 0.12500000E+03</rscale>
<asrwt>0</asrwt>
<pdfrwt beam="1">  1       21 0.91581908E-03 0.12500000E+03</pdfrwt>
<pdfrwt beam="2">  1       21 0.10095402E+00 0.12500000E+03</pdfrwt>
<totfact> 0.34420808E+06</totfact>
</mgrwt>
</event>
<event>
 3    0  0.1388455E+001  0.1250000E+03  0.7546771E-02  0.1235069E+00
         21   -1    0    0  502  501  0.00000000000E+00  0.00000000000E+00  0.57469359221E+01  0.57469359221E+01  0.00000000000E+00 0.  1.
         21   -1    0    0  501  502 -0.00000000000E+00 -0.00000000000E+00 -0.67971003209E+03  0.67971003209E+03  0.00000000000E+00 0.  1.
         25    1    1    2    0    0  0.00000000000E+00  0.00000000000E+00 -0.67396309617E+03  0.68545696801E+03  0.12500000000E+03 0.  0.
<mgrwt>
<rscale>  2 0.12500000E+03</rscale>
<asrwt>0</asrwt>
<pdfrwt beam="1">  1       21 0.88414396E-03 0.12500000E+03</pdfrwt>
<pdfrwt beam="2">  1       21 0.10457078E+00 0.12500000E+03</pdfrwt>
<totfact> 0.33478403E+06</totfact>
</mgrwt>
</event>
<event>
 3    0  0.1368989E+001  0.1250000E+03  0.7546771E-02  0.1235069E+00
         21   -1    0    0  502  501  0.00000000000E+00  0.00000000000E+00  0.12876994584E+01  0.12876994584E+01  0.00000000000E+00 0. -1.
         21   -1    0    0  501  502 -0.00000000000E+00 -0.00000000000E+00 -0.30335106336E+04  0.30335106336E+04  0.00000000000E+00 0. -1.
         25    1    1    2    0    0  0.00000000000E+00  0.00000000000E+00 -0.30322229342E+04  0.30347983331E+04  0.12500000000E+03 0.  0.
<mgrwt>
<rscale>  2 0.12500000E+03</rscale>
<asrwt>0</asrwt>
<pdfrwt beam="1">  1       21 0.19810928E-03 0.12500000E+03</pdfrwt>
<pdfrwt beam="2">  1       21 0.46669001E+00 0.12500000E+03</pdfrwt>
<totfact> 0.16276430E+05</totfact>
</mgrwt>
</event>
<event>
 3    0  0.1376868E+001  0.1250000E+03  0.7546771E-02  0.1235069E+00
         21   -1    0    0  502  501  0.00000000000E+00  0.00000000000E+00  0.59390706879E+03  0.59390706879E+03  0.00000000000E+00 0. -1.
         21   -1    0    0  501  502 -0.00000000000E+00 -0.00000000000E+00 -0.65772074542E+01  0.65772074542E+01  0.00000000000E+00 0. -1.
         25    1    1    2    0    0  0.00000000000E+00  0.00000000000E+00  0.58732986134E+03  0.60048427625E+03  0.12500000000E+03 0.  0.
<mgrwt>
<rscale>  2 0.12500000E+03</rscale>
<asrwt>0</asrwt>
<pdfrwt beam="1">  1       21 0.91370276E-01 0.12500000E+03</pdfrwt>
<pdfrwt beam="2">  1       21 0.10118785E-02 0.12500000E+03</pdfrwt>
<totfact> 0.37070752E+06</totfact>
</mgrwt>
</event>
<event>
 3    0  0.1602007E+001  0.1250000E+03  0.7546771E-02  0.1235069E+00
         21   -1    0    0  502  501  0.00000000000E+00  0.00000000000E+00  0.15019774520E+02  0.15019774520E+02  0.00000000000E+00 0.  1.
         21   -1    0    0  501  502 -0.00000000000E+00 -0.00000000000E+00 -0.26007381101E+03  0.26007381101E+03  0.00000000000E+00 0.  1.
         25    1    1    2    0    0  0.00000000000E+00  0.00000000000E+00 -0.24505403649E+03  0.27509358553E+03  0.12500000000E+03 0.  0.
<mgrwt>
<rscale>  2 0.12500000E+03</rscale>
<asrwt>0</asrwt>
<pdfrwt beam="1">  1       21 0.23107347E-02 0.12500000E+03</pdfrwt>
<pdfrwt beam="2">  1       21 0.40011352E-01 0.12500000E+03</pdfrwt>
<totfact> 0.57591661E+06</totfact>
</mgrwt>
</event>
<event>
 3    0  0.1675239E+001  0.1250000E+03  0.7546771E-02  0.1235069E+00
         21   -1    0    0  502  501  0.00000000000E+00  0.00000000000E+00  0.10143863443E+03  0.10143863443E+03  0.00000000000E+00 0. -1.
         21   -1    0    0  501  502 -0.00000000000E+00 -0.00000000000E+00 -0.38508503413E+02  0.38508503413E+02  0.00000000000E+00 0. -1.
         25    1    1    2    0    0  0.00000000000E+00  0.00000000000E+00  0.62930131013E+02  0.13994713784E+03  0.12500000000E+03 0.  0.
<mgrwt>
<rscale>  2 0.12500000E+03</rscale>
<asrwt>0</asrwt>
<pdfrwt beam="1">  1       21 0.15605944E-01 0.12500000E+03</pdfrwt>
<pdfrwt beam="2">  1       21 0.59243852E-02 0.12500000E+03</pdfrwt>
<totfact> 0.72046210E+06</totfact>
</mgrwt>
</event>
<event>
 3    0  0.1651381E+001  0.1250000E+03  0.7546771E-02  0.1235069E+00
         21   -1    0    0  502  501  0.00000000000E+00  0.00000000000E+00  0.16392250951E+03  0.16392250951E+03  0.00000000000E+00 0.  1.
         21   -1    0    0  501  502 -0.00000000000E+00 -0.00000000000E+00 -0.23829857240E+02  0.23829857240E+02  0.00000000000E+00 0.  1.
         25    1    1    2    0    0  0.00000000000E+00  0.00000000000E+00  0.14009265227E+03  0.18775236675E+03  0.12500000000E+03 0.  0.
<mgrwt>
<rscale>  2 0.12500000E+03</rscale>
<asrwt>0</asrwt>
<pdfrwt beam="1">  1       21 0.25218847E-01 0.12500000E+03</pdfrwt>
<pdfrwt beam="2">  1       21 0.36661320E-02 0.12500000E+03</pdfrwt>
<totfact> 0.66273143E+06</totfact>
</mgrwt>
</event>
<event>
 3    0  0.1660740E+001  0.1250000E+03  0.7546771E-02  0.1235069E+00
         21   -1    0    0  502  501  0.00000000000E+00  0.00000000000E+00  0.17009350380E+03  0.17009350380E+03  0.00000000000E+00 0.  1.
         21   -1    0    0  501  502 -0.00000000000E+00 -0.00000000000E+00 -0.22965309743E+02  0.22965309743E+02  0.00000000000E+00 0.  1.
         25    1    1    2    0    0  0.00000000000E+00  0.00000000000E+00  0.14712819406E+03  0.19305881354E+03  0.12500000000E+03 0.  0.
<mgrwt>
<rscale>  2 0.12500000E+03</rscale>
<asrwt>0</asrwt>
<pdfrwt beam="1">  1       21 0.26168231E-01 0.12500000E+03</pdfrwt>
<pdfrwt beam="2">  1       21 0.35331247E-02 0.12500000E+03</pdfrwt>
<totfact> 0.65684109E+06</totfact>
</mgrwt>
</event>
<event>
 3    0  0.1687670E+001  0.1250000E+03  0.7546771E-02  0.1235069E+00
         21   -1    0    0  502  501  0.00000000000E+00  0.00000000000E+00  0.54398393149E+02  0.54398393149E+02  0.00000000000E+00 0. -1.
         21   -1    0    0  501  502 -0.00000000000E+00 -0.00000000000E+00 -0.71808187225E+02  0.71808187225E+02  0.00000000000E+00 0. -1.
         25    1    1    2    0    0  0.00000000000E+00  0.00000000000E+00 -0.17409794077E+02  0.12620658037E+03  0.12500000000E+03 0.  0.
<mgrwt>
<rscale>  2 0.12500000E+03</rscale>
<asrwt>0</asrwt>
<pdfrwt beam="1">  1       21 0.83689836E-02 0.12500000E+03</pdfrwt>
<pdfrwt beam="2">  1       21 0.11047413E-01 0.12500000E+03</pdfrwt>
<totfact> 0.73877606E+06</totfact>
</mgrwt>
</event>
<event>
 3    0  0.1701331E+001  0.1250000E+03  0.7546771E-02  0.1235069E+00
         21   -1    0    0  502  501  0.00000000000E+00  0.00000000000E+00  0.10044464129E+03  0.10044464129E+03  0.00000000000E+00 0.  1.
         21   -1    0    0  501  502 -0.00000000000E+00 -0.00000000000E+00 -0.38889580867E+02  0.38889580867E+02  0.00000000000E+00 0.  1.
         25    1    1    2    0    0  0.00000000000E+00  0.00000000000E+00  0.61555060421E+02  0.13933422215E+03  0.12500000000E+03 0.  0.
<mgrwt>
<rscale>  2 0.12500000E+03</rscale>
<asrwt>0</asrwt>
<pdfrwt beam="1">  1       21 0.15453022E-01 0.12500000E+03</pdfrwt>
<pdfrwt beam="2">  1       21 0.59830125E-02 0.12500000E+03</pdfrwt>
<totfact> 0.72126343E+06</totfact>
</mgrwt>
</event>
<event>
 3    0  0.1368989E+001  0.1250000E+03  0.7546771E-02  0.1235069E+00
         21   -1    0    0  502  501  0.00000000000E+00  0.00000000000E+00  0.76264542804E+03  0.76264542804E+03  0.00000000000E+00 0.  1.
         21   -1    0    0  501  502 -0.00000000000E+00 -0.00000000000E+00 -0.51219739297E+01  0.51219739297E+01  0.00000000000E+00 0.  1.
         25    1    1    2    0    0  0.00000000000E+00  0.00000000000E+00  0.75752345411E+03  0.76776740197E+03  0.12500000000E+03 0.  0.
<mgrwt>
<rscale>  2 0.12500000E+03</rscale>
<asrwt>0</asrwt>
<pdfrwt beam="1">  1       21 0.11732998E+00 0.12500000E+03</pdfrwt>
<pdfrwt beam="2">  1       21 0.78799659E-03 0.12500000E+03</pdfrwt>
<totfact> 0.30453598E+06</totfact>
</mgrwt>
</event>
<event>
 3    0  0.1368989E+001  0.1250000E+03  0.7546771E-02  0.1235069E+00
         21   -1    0    0  502  501  0.00000000000E+00  0.00000000000E+00  0.89021497186E+03  0.89021497186E+03  0.00000000000E+00 0.  1.
         21   -1    0    0  501  502 -0.00000000000E+00 -0.00000000000E+00 -0.43879850637E+01  0.43879850637E+01  0.00000000000E+00 0.  1.
         25    1    1    2    0    0  0.00000000000E+00  0.00000000000E+00  0.88582698679E+03  0.89460295692E+03  0.12500000000E+03 0.  0.
<mgrwt>
<rscale>  2 0.12500000E+03</rscale>
<asrwt>0</asrwt>
<pdfrwt beam="1">  1       21 0.13695601E+00 0.12500000E+03</pdfrwt>
<pdfrwt beam="2">  1       21 0.67507533E-03 0.12500000E+03</pdfrwt>
<totfact> 0.26454913E+06</totfact>
</mgrwt>
</event>
<event>
 3    0  0.1687229E+001  0.1250000E+03  0.7546771E-02  0.1235069E+00
         21   -1    0    0  502  501  0.00000000000E+00  0.00000000000E+00  0.56776949200E+02  0.56776949200E+02  0.00000000000E+00 0. -1.
         21   -1    0    0  501  502 -0.00000000000E+00 -0.00000000000E+00 -0.68799927701E+02  0.68799927701E+02  0.00000000000E+00 0. -1.
         25    1    1    2    0    0  0.00000000000E+00  0.00000000000E+00 -0.12022978501E+02  0.12557687690E+03  0.12500000000E+03 0.  0.
<mgrwt>
<rscale>  2 0.12500000E+03</rscale>
<asrwt>0</asrwt>
<pdfrwt beam="1">  1       21 0.87349153E-02 0.12500000E+03</pdfrwt>
<pdfrwt beam="2">  1       21 0.10584604E-01 0.12500000E+03</pdfrwt>
<totfact> 0.73964664E+06</totfact>
</mgrwt>
</event>
<event>
 3    0  0.1368989E+001  0.1250000E+03  0.7546771E-02  0.1235069E+00
         21   -1    0    0  502  501  0.00000000000E+00  0.00000000000E+00  0.13576141108E+04  0.13576141108E+04  0.00000000000E+00 0. -1.
         21   -1    0    0  501  502 -0.00000000000E+00 -0.00000000000E+00 -0.28772903647E+01  0.28772903647E+01  0.00000000000E+00 0. -1.
         25    1    1    2    0    0  0.00000000000E+00  0.00000000000E+00  0.13547368205E+04  0.13604914012E+04  0.12500000000E+03 0.  0.
<mgrwt>
<rscale>  2 0.12500000E+03</rscale>
<asrwt>0</asrwt>
<pdfrwt beam="1">  1       21 0.20886320E+00 0.12500000E+03</pdfrwt>
<pdfrwt beam="2">  1       21 0.44266114E-03 0.12500000E+03</pdfrwt>
<totfact> 0.16200021E+06</totfact>
</mgrwt>
</event>
<event>
 3    0  0.1710841E+001  0.1250000E+03  0.7546771E-02  0.1235069E+00
         21   -1    0    0  502  501  0.00000000000E+00  0.00000000000E+00  0.55762837160E+02  0.55762837160E+02  0.00000000000E+00 0.  1.
         21   -1    0    0  501  502 -0.00000000000E+00 -0.00000000000E+00 -0.70051134392E+02  0.70051134392E+02  0.00000000000E+00 0.  1.
         25    1    1    2    0    0  0.00000000000E+00  0.00000000000E+00 -0.14288297232E+02  0.12581397155E+03  0.12500000000E+03 0.  0.
<mgrwt>
<rscale>  2 0.12500000E+03</rscale>
<asrwt>0</asrwt>
<pdfrwt beam="1">  1       21 0.85788980E-02 0.12500000E+03</pdfrwt>
<pdfrwt beam="2">  1       21 0.10777098E-01 0.12500000E+03</pdfrwt>
<totfact> 0.73931737E+06</totfact>
</mgrwt>
</event>
<event>
 3    0  0.1514060E+001  0.1250000E+03  0.7546771E-02  0.1235069E+00
         21   -1    0    0  502  501  0.00000000000E+00  0.00000000000E+00  0.36644862521E+03  0.36644862521E+03  0.00000000000E+00 0. -1.
         21   -1    0    0  501  502 -0.00000000000E+00 -0.00000000000E+00 -0.10659748001E+02  0.10659748001E+02  0.00000000000E+00 0. -1.
         25    1    1    2    0    0  0.00000000000E+00  0.00000000000E+00  0.35578887721E+03  0.37710837321E+03  0.12500000000E+03 0.  0.
<mgrwt>
<rscale>  2 0.12500000E+03</rscale>
<asrwt>0</asrwt>
<pdfrwt beam="1">  1       21 0.56376702E-01 0.12500000E+03</pdfrwt>
<pdfrwt beam="2">  1       21 0.16399615E-02 0.12500000E+03</pdfrwt>
<totfact> 0.49596628E+06</totfact>
</mgrwt>
</event>
<event>
 3    0  0.1368989E+001  0.1250000E+03  0.7546771E-02  0.1235069E+00
         21   -1    0    0  502  501  0.00000000000E+00  0.00000000000E+00  0.10800275130E+04  0.10800275130E+04  0.00000000000E+00 0.  1.
         21   -1    0    0  501  502 -0.00000000000E+00 -0.00000000000E+00 -0.36168060101E+01  0.36168060101E+01  0.00000000000E+00 0.  1.
         25    1    1    2    0    0  0.00000000000E+00  0.00000000000E+00  0.10764107070E+04  0.10836443190E+04  0.12500000000E+03 0.  0.
<mgrwt>
<rscale>  2 0.12500000E+03</rscale>
<asrwt>0</asrwt>
<pdfrwt beam="1">  1       21 0.16615782E+00 0.12500000E+03</pdfrwt>
<pdfrwt beam="2">  1       21 0.55643255E-03 0.12500000E+03</pdfrwt>
<totfact> 0.21618905E+06</totfact>
</mgrwt>
</event>
<event>
 3    0  0.1368989E+001  0.1250000E+03  0.7546771E-02  0.1235069E+00
         21   -1    0    0  502  501  0.00000000000E+00  0.00000000000E+00  0.37125837072E+01  0.37125837072E+01  0.00000000000E+00 0. -1.
         21   -1    0    0  501  502 -0.00000000000E+00 -0.00000000000E+00 -0.10521648286E+04  0.10521648286E+04  0.00000000000E+00 0. -1.
         25    1    1    2    0    0  0.00000000000E+00  0.00000000000E+00 -0.10484522449E+04  0.10558774123E+04  0.12500000000E+03 0.  0.
<mgrwt>
<rscale>  2 0.12500000E+03</rscale>
<asrwt>0</asrwt>
<pdfrwt beam="1">  1       21 0.57116604E-03 0.12500000E+03</pdfrwt>
<pdfrwt beam="2">  1       21 0.16187171E+00 0.12500000E+03</pdfrwt>
<totfact> 0.22260282E+06</totfact>
</mgrwt>
</event>
<event>
 3    0  0.1368989E+001  0.1250000E+03  0.7546771E-02  0.1235069E+00
         21   -1    0    0  502  501  0.00000000000E+00  0.00000000000E+00  0.59435767355E+01  0.59435767355E+01  0.00000000000E+00 0.  1.
         21   -1    0    0  501  502 -0.00000000000E+00 -0.00000000000E+00 -0.65722210276E+03  0.65722210276E+03  0.00000000000E+00 0.  1.
         25    1    1    2    0    0  0.00000000000E+00  0.00000000000E+00 -0.65127852603E+03  0.66316567950E+03  0.12500000000E+03 0.  0.
<mgrwt>
<rscale>  2 0.12500000E+03</rscale>
<asrwt>0</asrwt>
<pdfrwt beam="1">  1       21 0.91439632E-03 0.12500000E+03</pdfrwt>
<pdfrwt beam="2">  1       21 0.10111110E+00 0.12500000E+03</pdfrwt>
<totfact> 0.34379075E+06</totfact>
</mgrwt>
</event>
<event>
 3    0  0.1688009E+001  0.1250000E+03  0.7546771E-02  0.1235069E+00
         21   -1    0    0  502  501  0.00000000000E+00  0.00000000000E+00  0.61002421110E+02  0.61002421110E+02  0.00000000000E+00 0. -1.
         21   -1    0    0  501  502 -0.00000000000E+00 -0.00000000000E+00 -0.64034343701E+02  0.64034343701E+02  0.00000000000E+00 0. -1.
         25    1    1    2    0    0  0.00000000000E+00  0.00000000000E+00 -0.30319225910E+01  0.12503676481E+03  0.12500000000E+03 0.  0.
<mgrwt>
<rscale>  2 0.12500000E+03</rscale>
<asrwt>0</asrwt>
<pdfrwt beam="1">  1       21 0.93849878E-02 0.12500000E+03</pdfrwt>
<pdfrwt beam="2">  1       21 0.98514375E-02 0.12500000E+03</pdfrwt>
<totfact> 0.74038616E+06</totfact>
</mgrwt>
</event>
<event>
 3    0  0.1392003E+001  0.1250000E+03  0.7546771E-02  0.1235069E+00
         21   -1    0    0  502  501  0.00000000000E+00  0.00000000000E+00  0.58485664127E+03  0.58485664127E+03  0.00000000000E+00 0. -1.
         21   -1    0    0  501  502 -0.00000000000E+00 -0.00000000000E+00 -0.66789871644E+01  0.66789871644E+01  0.00000000000E+00 0. -1.
         25    1    1    2    0    0  0.00000000000E+00  0.00000000000E+00  0.57817765410E+03  0.59153562843E+03  0.12500000000E+03 0.  0.
<mgrwt>
<rscale>  2 0.12500000E+03</rscale>
<asrwt>0</asrwt>
<pdfrwt beam="1">  1       21 0.89977905E-01 0.12500000E+03</pdfrwt>
<pdfrwt beam="2">  1       21 0.10275369E-02 0.12500000E+03</pdfrwt>
<totfact> 0.37478252E+06</totfact>
</mgrwt>
</event>
<event>
 3    0  0.1368989E+001  0.1250000E+03  0.7546771E-02  0.1235069E+00
         21   -1    0    0  502  501  0.00000000000E+00  0.00000000000E+00  0.45045864677E+01  0.45045864677E+01  0.00000000000E+00 0.  1.
         21   -1    0    0  501  502 -0.00000000000E+00 -0.00000000000E+00 -0.86717172110E+03  0.86717172110E+03  0.00000000000E+00 0.  1.
         25    1    1    2    0    0  0.00000000000E+00  0.00000000000E+00 -0.86266713463E+03  0.87167630757E+03  0.12500000000E+03 0.  0.
<mgrwt>
<rscale>  2 0.12500000E+03</rscale>
<asrwt>0</asrwt>
<pdfrwt beam="1">  1       21 0.69301279E-03 0.12500000E+03</pdfrwt>
<pdfrwt beam="2">  1       21 0.13341113E+00 0.12500000E+03</pdfrwt>
<totfact> 0.27120756E+06</totfact>
</mgrwt>
</event>
<event>
 3    0  0.1694183E+001  0.1250000E+03  0.7546771E-02  0.1235069E+00
         21   -1    0    0  502  501  0.00000000000E+00  0.00000000000E+00  0.11400412727E+03  0.11400412727E+03  0.00000000000E+00 0.  1.
         21   -1    0    0  501  502 -0.00000000000E+00 -0.00000000000E+00 -0.34264110374E+02  0.34264110374E+02  0.00000000000E+00 0.  1.
         25    1    1    2    0    0  0.00000000000E+00  0.00000000000E+00  0.79740016901E+02  0.14826823765E+03  0.12500000000E+03 0.  0.
<mgrwt>
<rscale>  2 0.12500000E+03</rscale>
<asrwt>0</asrwt>
<pdfrwt beam="1">  1       21 0.17539096E-01 0.12500000E+03</pdfrwt>
<pdfrwt beam="2">  1       21 0.52714016E-02 0.12500000E+03</pdfrwt>
<totfact> 0.70977425E+06</totfact>
</mgrwt>
</event>
<event>
 3    0  0.1425091E+001  0.1250000E+03  0.7546771E-02  0.1235069E+00
         21   -1    0    0  502  501  0.00000000000E+00  0.00000000000E+00  0.69200293806E+01  0.69200293806E+01  0.00000000000E+00 0. -1.
         21   -1    0    0  501  502 -0.00000000000E+00 -0.00000000000E+00 -0.56448459756E+03  0.56448459756E+03  0.00000000000E+00 0. -1.
         25    1    1    2    0    0  0.00000000000E+00  0.00000000000E+00 -0.55756456818E+03  0.57140462694E+03  0.12500000000E+03 0.  0.
<mgrwt>
<rscale>  2 0.12500000E+03</rscale>
<asrwt>0</asrwt>
<pdfrwt beam="1">  1       21 0.10646197E-02 0.12500000E+03</pdfrwt>
<pdfrwt beam="2">  1       21 0.86843799E-01 0.12500000E+03</pdfrwt>
<totfact> 0.38418593E+06</totfact>
</mgrwt>
</event>
<event>
 3    0  0.1627329E+001  0.1250000E+03  0.7546771E-02  0.1235069E+00
         21   -1    0    0  502  501  0.00000000000E+00  0.00000000000E+00  0.20711941557E+03  0.20711941557E+03  0.00000000000E+00 0.  1.
         21   -1    0    0  501  502 -0.00000000000E+00 -0.00000000000E+00 -0.18859892924E+02  0.18859892924E+02  0.00000000000E+00 0.  1.
         25    1    1    2    0    0  0.00000000000E+00  0.00000000000E+00  0.18825952264E+03  0.22597930849E+03  0.12500000000E+03 0.  0.
<mgrwt>
<rscale>  2 0.12500000E+03</rscale>
<asrwt>0</asrwt>
<pdfrwt beam="1">  1       21 0.31864524E-01 0.12500000E+03</pdfrwt>
<pdfrwt beam="2">  1       21 0.29015221E-02 0.12500000E+03</pdfrwt>
<totfact> 0.62216398E+06</totfact>
</mgrwt>
</event>
<event>
 3    0  0.1368989E+001  0.1250000E+03  0.7546771E-02  0.1235069E+00
         21   -1    0    0  502  501  0.00000000000E+00  0.00000000000E+00  0.75169750324E+03  0.75169750324E+03  0.00000000000E+00 0.  1.
         21   -1    0    0  501  502 -0.00000000000E+00 -0.00000000000E+00 -0.51965717369E+01  0.51965717369E+01  0.00000000000E+00 0.  1.
         25    1    1    2    0    0  0.00000000000E+00  0.00000000000E+00  0.74650093150E+03  0.75689407497E+03  0.12500000000E+03 0.  0.
<mgrwt>
<rscale>  2 0.12500000E+03</rscale>
<asrwt>0</asrwt>
<pdfrwt beam="1">  1       21 0.11564568E+00 0.12500000E+03</pdfrwt>
<pdfrwt beam="2">  1       21 0.79947317E-03 0.12500000E+03</pdfrwt>
<totfact> 0.30827878E+06</totfact>
</mgrwt>
</event>
<event>
 3    0  0.1680180E+001  0.1250000E+03  0.7546771E-02  0.1235069E+00
         21   -1    0    0  502  501  0.00000000000E+00  0.00000000000E+00  0.45090006897E+02  0.45090006897E+02  0.00000000000E+00 0. -1.
         21   -1    0    0  501  502 -0.00000000000E+00 -0.00000000000E+00 -0.86632277723E+02  0.86632277723E+02  0.00000000000E+00 0. -1.
         25    1    1    2    0    0  0.00000000000E+00  0.00000000000E+00 -0.41542270827E+02  0.13172228462E+03  0.12500000000E+03 0.  0.
<mgrwt>
<rscale>  2 0.12500000E+03</rscale>
<asrwt>0</asrwt>
<pdfrwt beam="1">  1       21 0.69369242E-02 0.12500000E+03</pdfrwt>
<pdfrwt beam="2">  1       21 0.13328043E-01 0.12500000E+03</pdfrwt>
<totfact> 0.73133503E+06</totfact>
</mgrwt>
</event>
<event>
 3    0  0.1661305E+001  0.1250000E+03  0.7546771E-02  0.1235069E+00
         21   -1    0    0  502  501  0.00000000000E+00  0.00000000000E+00  0.22205585756E+02  0.22205585756E+02  0.00000000000E+00 0.  1.
         21   -1    0    0  501  502 -0.00000000000E+00 -0.00000000000E+00 -0.17591294564E+03  0.17591294564E+03  0.00000000000E+00 0.  1.
         25    1    1    2    0    0  0.00000000000E+00  0.00000000000E+00 -0.15370735989E+03  0.19811853140E+03  0.12500000000E+03 0.  0.
<mgrwt>
<rscale>  2 0.12500000E+03</rscale>
<asrwt>0</asrwt>
<pdfrwt beam="1">  1       21 0.34162439E-02 0.12500000E+03</pdfrwt>
<pdfrwt beam="2">  1       21 0.27063530E-01 0.12500000E+03</pdfrwt>
<totfact> 0.65131314E+06</totfact>
</mgrwt>
</event>
<event>
 3    0  0.1555236E+001  0.1250000E+03  0.7546771E-02  0.1235069E+00
         21   -1    0    0  502  501  0.00000000000E+00  0.00000000000E+00  0.29460084447E+03  0.29460084447E+03  0.00000000000E+00 0. -1.
         21   -1    0    0  501  502 -0.00000000000E+00 -0.00000000000E+00 -0.13259466405E+02  0.13259466405E+02  0.00000000000E+00 0. -1.
         25    1    1    2    0    0  0.00000000000E+00  0.00000000000E+00  0.28134137806E+03  0.30786031087E+03  0.12500000000E+03 0.  0.
<mgrwt>
<rscale>  2 0.12500000E+03</rscale>
<asrwt>0</asrwt>
<pdfrwt beam="1">  1       21 0.45323202E-01 0.12500000E+03</pdfrwt>
<pdfrwt beam="2">  1       21 0.20399181E-02 0.12500000E+03</pdfrwt>
<totfact> 0.54809214E+06</totfact>
</mgrwt>
</event>
<event>
 3    0  0.1541526E+001  0.1250000E+03  0.7546771E-02  0.1235069E+00
         21   -1    0    0  502  501  0.00000000000E+00  0.00000000000E+00  0.38020486404E+03  0.38020486404E+03  0.00000000000E+00 0.  1.
         21   -1    0    0  501  502 -0.00000000000E+00 -0.00000000000E+00 -0.10274066351E+02  0.10274066351E+02  0.00000000000E+00 0.  1.
         25    1    1    2    0    0  0.00000000000E+00  0.00000000000E+00  0.36993079769E+03  0.39047893039E+03  0.12500000000E+03 0.  0.
<mgrwt>
<rscale>  2 0.12500000E+03</rscale>
<asrwt>0</asrwt>
<pdfrwt beam="1">  1       21 0.58493045E-01 0.12500000E+03</pdfrwt>
<pdfrwt beam="2">  1       21 0.15806259E-02 0.12500000E+03</pdfrwt>
<totfact> 0.48679356E+06</totfact>
</mgrwt>
</event>
<event>
 3    0  0.1702571E+001  0.1250000E+03  0.7546771E-02  0.1235069E+00
         21   -1    0    0  502  501  0.00000000000E+00  0.00000000000E+00  0.39212006009E+02  0.39212006009E+02  0.00000000000E+00 0.  1.
         21   -1    0    0  501  502 -0.00000000000E+00 -0.00000000000E+00 -0.99618723895E+02  0.99618723895E+02  0.00000000000E+00 0.  1.
         25    1    1    2    0    0  0.00000000000E+00  0.00000000000E+00 -0.60406717885E+02  0.13883072990E+03  0.12500000000E+03 0.  0.
<mgrwt>
<rscale>  2 0.12500000E+03</rscale>
<asrwt>0</asrwt>
<pdfrwt beam="1">  1       21 0.60326163E-02 0.12500000E+03</pdfrwt>
<pdfrwt beam="2">  1       21 0.15325958E-01 0.12500000E+03</pdfrwt>
<totfact> 0.72192324E+06</totfact>
</mgrwt>
</event>
<event>
 3    0  0.1686346E+001  0.1250000E+03  0.7546771E-02  0.1235069E+00
         21   -1    0    0  502  501  0.00000000000E+00  0.00000000000E+00  0.69772562374E+02  0.69772562374E+02  0.00000000000E+00 0. -1.
         21   -1    0    0  501  502 -0.00000000000E+00 -0.00000000000E+00 -0.55985474334E+02  0.55985474334E+02  0.00000000000E+00 0. -1.
         25    1    1    2    0    0  0.00000000000E+00  0.00000000000E+00  0.13787088041E+02  0.12575803671E+03  0.12500000000E+03 0.  0.
<mgrwt>
<rscale>  2 0.12500000E+03</rscale>
<asrwt>0</asrwt>
<pdfrwt beam="1">  1       21 0.10734240E-01 0.12500000E+03</pdfrwt>
<pdfrwt beam="2">  1       21 0.86131499E-02 0.12500000E+03</pdfrwt>
<totfact> 0.73939486E+06</totfact>
</mgrwt>
</event>
<event>
 3    0  0.1711627E+001  0.1250000E+03  0.7546771E-02  0.1235069E+00
         21   -1    0    0  502  501  0.00000000000E+00  0.00000000000E+00  0.56812588575E+02  0.56812588575E+02  0.00000000000E+00 0.  1.
         21   -1    0    0  501  502 -0.00000000000E+00 -0.00000000000E+00 -0.68756768491E+02  0.68756768491E+02  0.00000000000E+00 0.  1.
         25    1    1    2    0    0  0.00000000000E+00  0.00000000000E+00 -0.11944179916E+02  0.12556935707E+03  0.12500000000E+03 0.  0.
<mgrwt>
<rscale>  2 0.12500000E+03</rscale>
<asrwt>0</asrwt>
<pdfrwt beam="1">  1       21 0.87403983E-02 0.12500000E+03</pdfrwt>
<pdfrwt beam="2">  1       21 0.10577964E-01 0.12500000E+03</pdfrwt>
<totfact> 0.73965713E+06</totfact>
</mgrwt>
</event>
<event>
 3    0  0.1376990E+001  0.1250000E+03  0.7546771E-02  0.1235069E+00
         21   -1    0    0  502  501  0.00000000000E+00  0.00000000000E+00  0.68695932231E+03  0.68695932231E+03  0.00000000000E+00 0.  1.
         21   -1    0    0  501  502 -0.00000000000E+00 -0.00000000000E+00 -0.56862901094E+01  0.56862901094E+01  0.00000000000E+00 0.  1.
         25    1    1    2    0    0  0.00000000000E+00  0.00000000000E+00  0.68127303220E+03  0.69264561242E+03  0.12500000000E+03 0.  0.
<mgrwt>
<rscale>  2 0.12500000E+03</rscale>
<asrwt>0</asrwt>
<pdfrwt beam="1">  1       21 0.10568598E+00 0.12500000E+03</pdfrwt>
<pdfrwt beam="2">  1       21 0.87481441E-03 0.12500000E+03</pdfrwt>
<totfact> 0.33195626E+06</totfact>
</mgrwt>
</event>
<event>
 3    0  0.1456507E+001  0.1250000E+03  0.7546771E-02  0.1235069E+00
         21   -1    0    0  502  501  0.00000000000E+00  0.00000000000E+00  0.81368606872E+01  0.81368606872E+01  0.00000000000E+00 0. -1.
         21   -1    0    0  501  502 -0.00000000000E+00 -0.00000000000E+00 -0.48006843796E+03  0.48006843796E+03  0.00000000000E+00 0. -1.
         25    1    1    2    0    0  0.00000000000E+00  0.00000000000E+00 -0.47193157727E+03  0.48820529865E+03  0.12500000000E+03 0.  0.
<mgrwt>
<rscale>  2 0.12500000E+03</rscale>
<asrwt>0</asrwt>
<pdfrwt beam="1">  1       21 0.12518244E-02 0.12500000E+03</pdfrwt>
<pdfrwt beam="2">  1       21 0.73856700E-01 0.12500000E+03</pdfrwt>
<totfact> 0.42691027E+06</totfact>
</mgrwt>
</event>
<event>
 3    0  0.1710221E+001  0.1250000E+03  0.7546771E-02  0.1235069E+00
         21   -1    0    0  502  501  0.00000000000E+00  0.00000000000E+00  0.73791647840E+02  0.73791647840E+02  0.00000000000E+00 0.  1.
         21   -1    0    0  501  502 -0.00000000000E+00 -0.00000000000E+00 -0.52936207746E+02  0.52936207746E+02  0.00000000000E+00 0.  1.
         25    1    1    2    0    0  0.00000000000E+00  0.00000000000E+00  0.20855440094E+02  0.12672785559E+03  0.12500000000E+03 0.  0.
<mgrwt>
<rscale>  2 0.12500000E+03</rscale>
<asrwt>0</asrwt>
<pdfrwt beam="1">  1       21 0.11352561E-01 0.12500000E+03</pdfrwt>
<pdfrwt beam="2">  1       21 0.81440319E-02 0.12500000E+03</pdfrwt>
<totfact> 0.73806232E+06</totfact>
</mgrwt>
</event>
<event>
 3    0  0.1368989E+001  0.1250000E+03  0.7546771E-02  0.1235069E+00
         21   -1    0    0  502  501  0.00000000000E+00  0.00000000000E+00  0.37955617213E+01  0.37955617213E+01  0.00000000000E+00 0. -1.
         21   -1    0    0  501  502 -0.00000000000E+00 -0.00000000000E+00 -0.10291625553E+04  0.10291625553E+04  0.00000000000E+00 0. -1.
         25    1    1    2    0    0  0.00000000000E+00  0.00000000000E+00 -0.10253669936E+04  0.10329581171E+04  0.12500000000E+03 0.  0.
<mgrwt>
<rscale>  2 0.12500000E+03</rscale>
<asrwt>0</asrwt>
<pdfrwt beam="1">  1       21 0.58393310E-03 0.12500000E+03</pdfrwt>
<pdfrwt beam="2">  1       21 0.15833256E+00 0.12500000E+03</pdfrwt>
<totfact> 0.22807159E+06</totfact>
</mgrwt>
</event>
<event>
 3    0  0.1653760E+001  0.1250000E+03  0.7546771E-02  0.1235069E+00
         21   -1    0    0  502  501  0.00000000000E+00  0.00000000000E+00  0.14380687828E+03  0.14380687828E+03  0.00000000000E+00 0. -1.
         21   -1    0    0  501  502 -0.00000000000E+00 -0.00000000000E+00 -0.27163165259E+02  0.27163165259E+02  0.00000000000E+00 0. -1.
         25    1    1    2    0    0  0.00000000000E+00  0.00000000000E+00  0.11664371302E+03  0.17097004354E+03  0.12500000000E+03 0.  0.
<mgrwt>
<rscale>  2 0.12500000E+03</rscale>
<asrwt>0</asrwt>
<pdfrwt beam="1">  1       21 0.22124135E-01 0.12500000E+03</pdfrwt>
<pdfrwt beam="2">  1       21 0.41789486E-02 0.12500000E+03</pdfrwt>
<totfact> 0.68202828E+06</totfact>
</mgrwt>
</event>
<event>
 3    0  0.1483413E+001  0.1250000E+03  0.7546771E-02  0.1235069E+00
         21   -1    0    0  502  501  0.00000000000E+00  0.00000000000E+00  0.85502061521E+01  0.85502061521E+01  0.00000000000E+00 0.  1.
         21   -1    0    0  501  502 -0.00000000000E+00 -0.00000000000E+00 -0.45686032951E+03  0.45686032951E+03  0.00000000000E+00 0.  1.
         25    1    1    2    0    0  0.00000000000E+00  0.00000000000E+00 -0.44831012336E+03  0.46541053566E+03  0.12500000000E+03 0.  0.
<mgrwt>
<rscale>  2 0.12500000E+03</rscale>
<asrwt>0</asrwt>
<pdfrwt beam="1">  1       21 0.13154163E-02 0.12500000E+03</pdfrwt>
<pdfrwt beam="2">  1       21 0.70286204E-01 0.12500000E+03</pdfrwt>
<totfact> 0.43984269E+06</totfact>
</mgrwt>
</event>
<event>
 3    0  0.1564661E+001  0.1250000E+03  0.7546771E-02  0.1235069E+00
         21   -1    0    0  502  501  0.00000000000E+00  0.00000000000E+00  0.12671299105E+02  0.12671299105E+02  0.00000000000E+00 0. -1.
         21   -1    0    0  501  502 -0.00000000000E+00 -0.00000000000E+00 -0.30827541577E+03  0.30827541577E+03  0.00000000000E+00 0. -1.
         25    1    1    2    0    0  0.00000000000E+00  0.00000000000E+00 -0.29560411666E+03  0.32094671487E+03  0.12500000000E+03 0.  0.
<mgrwt>
<rscale>  2 0.12500000E+03</rscale>
<asrwt>0</asrwt>
<pdfrwt beam="1">  1       21 0.19494308E-02 0.12500000E+03</pdfrwt>
<pdfrwt beam="2">  1       21 0.47426983E-01 0.12500000E+03</pdfrwt>
<totfact> 0.53758407E+06</totfact>
</mgrwt>
</event>
<event>
 3    0  0.1368989E+001  0.1250000E+03  0.7546771E-02  0.1235069E+00
         21   -1    0    0  502  501  0.00000000000E+00  0.00000000000E+00  0.74316476461E+03  0.74316476461E+03  0.00000000000E+00 0. -1.
         21   -1    0    0  501  502 -0.00000000000E+00 -0.00000000000E+00 -0.52562368213E+01  0.52562368213E+01  0.00000000000E+00 0. -1.
         25    1    1    2    0    0  0.00000000000E+00  0.00000000000E+00  0.73790852779E+03  0.74842100143E+03  0.12500000000E+03 0.  0.
<mgrwt>
<rscale>  2 0.12500000E+03</rscale>
<asrwt>0</asrwt>
<pdfrwt beam="1">  1       21 0.11433296E+00 0.12500000E+03</pdfrwt>
<pdfrwt beam="2">  1       21 0.80865241E-03 0.12500000E+03</pdfrwt>
<totfact> 0.31124491E+06</totfact>
</mgrwt>
</event>
<event>
 3    0  0.1709758E+001  0.1250000E+03  0.7546771E-02  0.1235069E+00
         21   -1    0    0  502  501  0.00000000000E+00  0.00000000000E+00  0.77725492625E+02  0.77725492625E+02  0.00000000000E+00 0.  1.
         21   -1    0    0  501  502 -0.00000000000E+00 -0.00000000000E+00 -0.50256998934E+02  0.50256998934E+02  0.00000000000E+00 0.  1.
         25    1    1    2    0    0  0.00000000000E+00  0.00000000000E+00  0.27468493691E+02  0.12798249156E+03  0.12500000000E+03 0.  0.
<mgrwt>
<rscale>  2 0.12500000E+03</rscale>
<asrwt>0</asrwt>
<pdfrwt beam="1">  1       21 0.11957768E-01 0.12500000E+03</pdfrwt>
<pdfrwt beam="2">  1       21 0.77318460E-02 0.12500000E+03</pdfrwt>
<totfact> 0.73635924E+06</totfact>
</mgrwt>
</event>
<event>
 3    0  0.1608474E+001  0.1250000E+03  0.7546771E-02  0.1235069E+00
         21   -1    0    0  502  501  0.00000000000E+00  0.00000000000E+00  0.15974936886E+02  0.15974936886E+02  0.00000000000E+00 0.  1.
         21   -1    0    0  501  502 -0.00000000000E+00 -0.00000000000E+00 -0.24452365777E+03  0.24452365777E+03  0.00000000000E+00 0.  1.
         25    1    1    2    0    0  0.00000000000E+00  0.00000000000E+00 -0.22854872089E+03  0.26049859466E+03  0.12500000000E+03 0.  0.
<mgrwt>
<rscale>  2 0.12500000E+03</rscale>
<asrwt>0</asrwt>
<pdfrwt beam="1">  1       21 0.24576828E-02 0.12500000E+03</pdfrwt>
<pdfrwt beam="2">  1       21 0.37619021E-01 0.12500000E+03</pdfrwt>
<totfact> 0.58903604E+06</totfact>
</mgrwt>
</event>
<event>
 3    0  0.1368989E+001  0.1250000E+03  0.7546771E-02  0.1235069E+00
         21   -1    0    0  502  501  0.00000000000E+00  0.00000000000E+00  0.18894757140E+01  0.18894757140E+01  0.00000000000E+00 0. -1.
         21   -1    0    0  501  502 -0.00000000000E+00 -0.00000000000E+00 -0.20673724310E+04  0.20673724310E+04  0.00000000000E+00 0. -1.
         25    1    1    2    0    0  0.00000000000E+00  0.00000000000E+00 -0.20654829552E+04  0.20692619067E+04  0.12500000000E+03 0.  0.
<mgrwt>
<rscale>  2 0.12500000E+03</rscale>
<asrwt>0</asrwt>
<pdfrwt beam="1">  1       21 0.29068784E-03 0.12500000E+03</pdfrwt>
<pdfrwt beam="2">  1       21 0.31805809E+00 0.12500000E+03</pdfrwt>
<totfact> 0.72921850E+05</totfact>
</mgrwt>
</event>
<event>
 3    0  0.1554446E+001  0.1250000E+03  0.7546771E-02  0.1235069E+00
         21   -1    0    0  502  501  0.00000000000E+00  0.00000000000E+00  0.30508305682E+03  0.30508305682E+03  0.00000000000E+00 0.  1.
         21   -1    0    0  501  502 -0.00000000000E+00 -0.00000000000E+00 -0.12803890326E+02  0.12803890326E+02  0.00000000000E+00 0.  1.
         25    1    1    2    0    0  0.00000000000E+00  0.00000000000E+00  0.29227916650E+03  0.31788694715E+03  0.12500000000E+03 0.  0.
<mgrwt>
<rscale>  2 0.12500000E+03</rscale>
<asrwt>0</asrwt>
<pdfrwt beam="1">  1       21 0.46935850E-01 0.12500000E+03</pdfrwt>
<pdfrwt beam="2">  1       21 0.19698295E-02 0.12500000E+03</pdfrwt>
<totfact> 0.54001220E+06</totfact>
</mgrwt>
</event>
<event>
 3    0  0.1709370E+001  0.1250000E+03  0.7546771E-02  0.1235069E+00
         21   -1    0    0  502  501  0.00000000000E+00  0.00000000000E+00  0.78072992163E+02  0.78072992163E+02  0.00000000000E+00 0.  1.
         21   -1    0    0  501  502 -0.00000000000E+00 -0.00000000000E+00 -0.50033307188E+02  0.50033307188E+02  0.00000000000E+00 0.  1.
         25    1    1    2    0    0  0.00000000000E+00  0.00000000000E+00  0.28039684975E+02  0.12810629935E+03  0.12500000000E+03 0.  0.
<mgrwt>
<rscale>  2 0.12500000E+03</rscale>
<asrwt>0</asrwt>
<pdfrwt beam="1">  1       21 0.12011230E-01 0.12500000E+03</pdfrwt>
<pdfrwt beam="2">  1       21 0.76974319E-02 0.12500000E+03</pdfrwt>
<totfact> 0.73619205E+06</totfact>
</mgrwt>
</event>
<event>
 3    0  0.1694167E+001  0.1250000E+03  0.7546771E-02  0.1235069E+00
         21   -1    0    0  502  501  0.00000000000E+00  0.00000000000E+00  0.33007871987E+02  0.33007871987E+02  0.00000000000E+00 0.  1.
         21   -1    0    0  501  502 -0.00000000000E+00 -0.00000000000E+00 -0.11834298199E+03  0.11834298199E+03  0.00000000000E+00 0.  1.
         25    1    1    2    0    0  0.00000000000E+00  0.00000000000E+00 -0.85335109999E+02  0.15135085397E+03  0.12500000000E+03 0.  0.
<mgrwt>
<rscale>  2 0.12500000E+03</rscale>
<asrwt>0</asrwt>
<pdfrwt beam="1">  1       21 0.50781341E-02 0.12500000E+03</pdfrwt>
<pdfrwt beam="2">  1       21 0.18206613E-01 0.12500000E+03</pdfrwt>
<totfact> 0.70589919E+06</totfact>
</mgrwt>
</event>
<event>
 3    0  0.1666592E+001  0.1250000E+03  0.7546771E-02  0.1235069E+00
         21   -1    0    0  502  501  0.00000000000E+00  0.00000000000E+00  0.15151873672E+03  0.15151873672E+03  0.00000000000E+00 0.  1.
         21   -1    0    0  501  502 -0.00000000000E+00 -0.00000000000E+00 -0.25780639970E+02  0.25780639970E+02  0.00000000000E+00 0.  1.
         25    1    1    2    0    0  0.00000000000E+00  0.00000000000E+00  0.12573809675E+03  0.17729937669E+03  0.12500000000E+03 0.  0.
<mgrwt>
<rscale>  2 0.12500000E+03</rscale>
<asrwt>0</asrwt>
<pdfrwt beam="1">  1       21 0.23310574E-01 0.12500000E+03</pdfrwt>
<pdfrwt beam="2">  1       21 0.39662524E-02 0.12500000E+03</pdfrwt>
<totfact> 0.67462702E+06</totfact>
</mgrwt>
</event>
<event>
 3    0  0.1607060E+001  0.1250000E+03  0.7546771E-02  0.1235069E+00
         21   -1    0    0  502  501  0.00000000000E+00  0.00000000000E+00  0.15146420340E+02  0.15146420340E+02  0.00000000000E+00 0.  1.
         21   -1    0    0  501  502 -0.00000000000E+00 -0.00000000000E+00 -0.25789922056E+03  0.25789922056E+03  0.00000000000E+00 0.  1.
         25    1    1    2    0    0  0.00000000000E+00  0.00000000000E+00 -0.24275280022E+03  0.27304564090E+03  0.12500000000E+03 0.  0.
<mgrwt>
<rscale>  2 0.12500000E+03</rscale>
<asrwt>0</asrwt>
<pdfrwt beam="1">  1       21 0.23302186E-02 0.12500000E+03</pdfrwt>
<pdfrwt beam="2">  1       21 0.39676801E-01 0.12500000E+03</pdfrwt>
<totfact> 0.57773308E+06</totfact>
</mgrwt>
</event>
<event>
 3    0  0.1368989E+001  0.1250000E+03  0.7546771E-02  0.1235069E+00
         21   -1    0    0  502  501  0.00000000000E+00  0.00000000000E+00  0.51182784363E+01  0.51182784363E+01  0.00000000000E+00 0.  1.
         21   -1    0    0  501  502 -0.00000000000E+00 -0.00000000000E+00 -0.76319607240E+03  0.76319607240E+03  0.00000000000E+00 0.  1.
         25    1    1    2    0    0  0.00000000000E+00  0.00000000000E+00 -0.75807779396E+03  0.76831435083E+03  0.12500000000E+03 0.  0.
<mgrwt>
<rscale>  2 0.12500000E+03</rscale>
<asrwt>0</asrwt>
<pdfrwt beam="1">  1       21 0.78742732E-03 0.12500000E+03</pdfrwt>
<pdfrwt beam="2">  1       21 0.11741480E+00 0.12500000E+03</pdfrwt>
<totfact> 0.30434930E+06</totfact>
</mgrwt>
</event>
<event>
 3    0  0.1711696E+001  0.1250000E+03  0.7546771E-02  0.1235069E+00
         21   -1    0    0  502  501  0.00000000000E+00  0.00000000000E+00  0.57758551862E+02  0.57758551862E+02  0.00000000000E+00 0.  1.
         21   -1    0    0  501  502 -0.00000000000E+00 -0.00000000000E+00 -0.67630677606E+02  0.67630677606E+02  0.00000000000E+00 0.  1.
         25    1    1    2    0    0  0.00000000000E+00  0.00000000000E+00 -0.98721257437E+01  0.12538922947E+03  0.12500000000E+03 0.  0.
<mgrwt>
<rscale>  2 0.12500000E+03</rscale>
<asrwt>0</asrwt>
<pdfrwt beam="1">  1       21 0.88859311E-02 0.12500000E+03</pdfrwt>
<pdfrwt beam="2">  1       21 0.10404720E-01 0.12500000E+03</pdfrwt>
<totfact> 0.73990926E+06</totfact>
</mgrwt>
</event>
<event>
 3    0  0.1654608E+001  0.1250000E+03  0.7546771E-02  0.1235069E+00
         21   -1    0    0  502  501  0.00000000000E+00  0.00000000000E+00  0.13429559360E+03  0.13429559360E+03  0.00000000000E+00 0. -1.
         21   -1    0    0  501  502 -0.00000000000E+00 -0.00000000000E+00 -0.29086955835E+02  0.29086955835E+02  0.00000000000E+00 0. -1.
         25    1    1    2    0    0  0.00000000000E+00  0.00000000000E+00  0.10520863777E+03  0.16338254944E+03  0.12500000000E+03 0.  0.
<mgrwt>
<rscale>  2 0.12500000E+03</rscale>
<asrwt>0</asrwt>
<pdfrwt beam="1">  1       21 0.20660860E-01 0.12500000E+03</pdfrwt>
<pdfrwt beam="2">  1       21 0.44749163E-02 0.12500000E+03</pdfrwt>
<totfact> 0.69108529E+06</totfact>
</mgrwt>
</event>
<event>
 3    0  0.1648427E+001  0.1250000E+03  0.7546771E-02  0.1235069E+00
         21   -1    0    0  502  501  0.00000000000E+00  0.00000000000E+00  0.14913725663E+03  0.14913725663E+03  0.00000000000E+00 0. -1.
         21   -1    0    0  501  502 -0.00000000000E+00 -0.00000000000E+00 -0.26192314973E+02  0.26192314973E+02  0.00000000000E+00 0. -1.
         25    1    1    2    0    0  0.00000000000E+00  0.00000000000E+00  0.12294494166E+03  0.17532957161E+03  0.12500000000E+03 0.  0.
<mgrwt>
<rscale>  2 0.12500000E+03</rscale>
<asrwt>0</asrwt>
<pdfrwt beam="1">  1       21 0.22944193E-01 0.12500000E+03</pdfrwt>
<pdfrwt beam="2">  1       21 0.40295870E-02 0.12500000E+03</pdfrwt>
<totfact> 0.67691395E+06</totfact>
</mgrwt>
</event>
<event>
 3    0  0.1452400E+001  0.1250000E+03  0.7546771E-02  0.1235069E+00
         21   -1    0    0  502  501  0.00000000000E+00  0.00000000000E+00  0.79144953364E+01  0.79144953364E+01  0.00000000000E+00 0.  1.
         21   -1    0    0  501  502 -0.00000000000E+00 -0.00000000000E+00 -0.49355642198E+03  0.49355642198E+03  0.00000000000E+00 0.  1.
         25    1    1    2    0    0  0.00000000000E+00  0.00000000000E+00 -0.48564192664E+03  0.50147091731E+03  0.12500000000E+03 0.  0.
<mgrwt>
<rscale>  2 0.12500000E+03</rscale>
<asrwt>0</asrwt>
<pdfrwt beam="1">  1       21 0.12176147E-02 0.12500000E+03</pdfrwt>
<pdfrwt beam="2">  1       21 0.75931757E-01 0.12500000E+03</pdfrwt>
<totfact> 0.41964412E+06</totfact>
</mgrwt>
</event>
<event>
 3    0  0.1627133E+001  0.1250000E+03  0.7546771E-02  0.1235069E+00
         21   -1    0    0  502  501  0.00000000000E+00  0.00000000000E+00  0.20812609699E+02  0.20812609699E+02  0.00000000000E+00 0. -1.
         21   -1    0    0  501  502 -0.00000000000E+00 -0.00000000000E+00 -0.18768669842E+03  0.18768669842E+03  0.00000000000E+00 0. -1.
         25    1    1    2    0    0  0.00000000000E+00  0.00000000000E+00 -0.16687408872E+03  0.20849930812E+03  0.12500000000E+03 0.  0.
<mgrwt>
<rscale>  2 0.12500000E+03</rscale>
<asrwt>0</asrwt>
<pdfrwt beam="1">  1       21 0.32019400E-02 0.12500000E+03</pdfrwt>
<pdfrwt beam="2">  1       21 0.28874876E-01 0.12500000E+03</pdfrwt>
<totfact> 0.64017772E+06</totfact>
</mgrwt>
</event>
<event>
 3    0  0.1547067E+001  0.1250000E+03  0.7546771E-02  0.1235069E+00
         21   -1    0    0  502  501  0.00000000000E+00  0.00000000000E+00  0.13776641475E+02  0.13776641475E+02  0.00000000000E+00 0. -1.
         21   -1    0    0  501  502 -0.00000000000E+00 -0.00000000000E+00 -0.28354152986E+03  0.28354152986E+03  0.00000000000E+00 0. -1.
         25    1    1    2    0    0  0.00000000000E+00  0.00000000000E+00 -0.26976488838E+03  0.29731817133E+03  0.12500000000E+03 0.  0.
<mgrwt>
<rscale>  2 0.12500000E+03</rscale>
<asrwt>0</asrwt>
<pdfrwt beam="1">  1       21 0.21194833E-02 0.12500000E+03</pdfrwt>
<pdfrwt beam="2">  1       21 0.43621774E-01 0.12500000E+03</pdfrwt>
<totfact> 0.55679782E+06</totfact>
</mgrwt>
</event>
<event>
 3    0  0.1414373E+001  0.1250000E+03  0.7546771E-02  0.1235069E+00
         21   -1    0    0  502  501  0.00000000000E+00  0.00000000000E+00  0.62227181515E+03  0.62227181515E+03  0.00000000000E+00 0.  1.
         21   -1    0    0  501  502 -0.00000000000E+00 -0.00000000000E+00 -0.62774014585E+01  0.62774014585E+01  0.00000000000E+00 0.  1.
         25    1    1    2    0    0  0.00000000000E+00  0.00000000000E+00  0.61599441369E+03  0.62854921661E+03  0.12500000000E+03 0.  0.
<mgrwt>
<rscale>  2 0.12500000E+03</rscale>
<asrwt>0</asrwt>
<pdfrwt beam="1">  1       21 0.95734077E-01 0.12500000E+03</pdfrwt>
<pdfrwt beam="2">  1       21 0.96575456E-03 0.12500000E+03</pdfrwt>
<totfact> 0.35832562E+06</totfact>
</mgrwt>
</event>
<event>
 3    0  0.1665105E+001  0.1250000E+03  0.7546771E-02  0.1235069E+00
         21   -1    0    0  502  501  0.00000000000E+00  0.00000000000E+00  0.15817283741E+03  0.15817283741E+03  0.00000000000E+00 0.  1.
         21   -1    0    0  501  502 -0.00000000000E+00 -0.00000000000E+00 -0.24696086028E+02  0.24696086028E+02  0.00000000000E+00 0.  1.
         25    1    1    2    0    0  0.00000000000E+00  0.00000000000E+00  0.13347675138E+03  0.18286892344E+03  0.12500000000E+03 0.  0.
<mgrwt>
<rscale>  2 0.12500000E+03</rscale>
<asrwt>0</asrwt>
<pdfrwt beam="1">  1       21 0.24334282E-01 0.12500000E+03</pdfrwt>
<pdfrwt beam="2">  1       21 0.37993979E-02 0.12500000E+03</pdfrwt>
<totfact> 0.66823938E+06</totfact>
</mgrwt>
</event>
<event>
 3    0  0.1506457E+001  0.1250000E+03  0.7546771E-02  0.1235069E+00
         21   -1    0    0  502  501  0.00000000000E+00  0.00000000000E+00  0.10079651192E+02  0.10079651192E+02  0.00000000000E+00 0. -1.
         21   -1    0    0  501  502 -0.00000000000E+00 -0.00000000000E+00 -0.38753821194E+03  0.38753821194E+03  0.00000000000E+00 0. -1.
         25    1    1    2    0    0  0.00000000000E+00  0.00000000000E+00 -0.37745856075E+03  0.39761786313E+03  0.12500000000E+03 0.  0.
<mgrwt>
<rscale>  2 0.12500000E+03</rscale>
<asrwt>0</asrwt>
<pdfrwt beam="1">  1       21 0.15507158E-02 0.12500000E+03</pdfrwt>
<pdfrwt beam="2">  1       21 0.59621254E-01 0.12500000E+03</pdfrwt>
<totfact> 0.48199762E+06</totfact>
</mgrwt>
</event>
<event>
 3    0  0.1552778E+001  0.1250000E+03  0.7546771E-02  0.1235069E+00
         21   -1    0    0  502  501  0.00000000000E+00  0.00000000000E+00  0.12776530346E+02  0.12776530346E+02  0.00000000000E+00 0.  1.
         21   -1    0    0  501  502 -0.00000000000E+00 -0.00000000000E+00 -0.30573636927E+03  0.30573636927E+03  0.00000000000E+00 0.  1.
         25    1    1    2    0    0  0.00000000000E+00  0.00000000000E+00 -0.29295983893E+03  0.31851289962E+03  0.12500000000E+03 0.  0.
<mgrwt>
<rscale>  2 0.12500000E+03</rscale>
<asrwt>0</asrwt>
<pdfrwt beam="1">  1       21 0.19656200E-02 0.12500000E+03</pdfrwt>
<pdfrwt beam="2">  1       21 0.47036366E-01 0.12500000E+03</pdfrwt>
<totfact> 0.53951398E+06</totfact>
</mgrwt>
</event>
<event>
 3    0  0.1540487E+001  0.1250000E+03  0.7546771E-02  0.1235069E+00
         21   -1    0    0  502  501  0.00000000000E+00  0.00000000000E+00  0.38070291942E+03  0.38070291942E+03  0.00000000000E+00 0.  1.
         21   -1    0    0  501  502 -0.00000000000E+00 -0.00000000000E+00 -0.10260625282E+02  0.10260625282E+02  0.00000000000E+00 0.  1.
         25    1    1    2    0    0  0.00000000000E+00  0.00000000000E+00  0.37044229414E+03  0.39096354470E+03  0.12500000000E+03 0.  0.
<mgrwt>
<rscale>  2 0.12500000E+03</rscale>
<asrwt>0</asrwt>
<pdfrwt beam="1">  1       21 0.58569669E-01 0.12500000E+03</pdfrwt>
<pdfrwt beam="2">  1       21 0.15785580E-02 0.12500000E+03</pdfrwt>
<totfact> 0.48646566E+06</totfact>
</mgrwt>
</event>
<event>
 3    0  0.1368989E+001  0.1250000E+03  0.7546771E-02  0.1235069E+00
         21   -1    0    0  502  501  0.00000000000E+00  0.00000000000E+00  0.56683530660E+01  0.56683530660E+01  0.00000000000E+00 0. -1.
         21   -1    0    0  501  502 -0.00000000000E+00 -0.00000000000E+00 -0.68913314935E+03  0.68913314935E+03  0.00000000000E+00 0. -1.
         25    1    1    2    0    0  0.00000000000E+00  0.00000000000E+00 -0.68346479629E+03  0.69480150242E+03  0.12500000000E+03 0.  0.
<mgrwt>
<rscale>  2 0.12500000E+03</rscale>
<asrwt>0</asrwt>
<pdfrwt beam="1">  1       21 0.87205507E-03 0.12500000E+03</pdfrwt>
<pdfrwt beam="2">  1       21 0.10602039E+00 0.12500000E+03</pdfrwt>
<totfact> 0.33111547E+06</totfact>
</mgrwt>
</event>
<event>
 3    0  0.1671170E+001  0.1250000E+03  0.7546771E-02  0.1235069E+00
         21   -1    0    0  502  501  0.00000000000E+00  0.00000000000E+00  0.10659430029E+03  0.10659430029E+03  0.00000000000E+00 0. -1.
         21   -1    0    0  501  502 -0.00000000000E+00 -0.00000000000E+00 -0.36645955642E+02  0.36645955642E+02  0.00000000000E+00 0. -1.
         25    1    1    2    0    0  0.00000000000E+00  0.00000000000E+00  0.69948344646E+02  0.14324025593E+03  0.12500000000E+03 0.  0.
<mgrwt>
<rscale>  2 0.12500000E+03</rscale>
<asrwt>0</asrwt>
<pdfrwt beam="1">  1       21 0.16399123E-01 0.12500000E+03</pdfrwt>
<pdfrwt beam="2">  1       21 0.56378394E-02 0.12500000E+03</pdfrwt>
<totfact> 0.71619071E+06</totfact>
</mgrwt>
</event>
<event>
 3    0  0.1697626E+001  0.1250000E+03  0.7546771E-02  0.1235069E+00
         21   -1    0    0  502  501  0.00000000000E+00  0.00000000000E+00  0.10543330559E+03  0.10543330559E+03  0.00000000000E+00 0.  1.
         21   -1    0    0  501  502 -0.00000000000E+00 -0.00000000000E+00 -0.37049488092E+02  0.37049488092E+02  0.00000000000E+00 0.  1.
         25    1    1    2    0    0  0.00000000000E+00  0.00000000000E+00  0.68383817501E+02  0.14248279368E+03  0.12500000000E+03 0.  0.
<mgrwt>
<rscale>  2 0.12500000E+03</rscale>
<asrwt>0</asrwt>
<pdfrwt beam="1">  1       21 0.16220508E-01 0.12500000E+03</pdfrwt>
<pdfrwt beam="2">  1       21 0.56999213E-02 0.12500000E+03</pdfrwt>
<totfact> 0.71716819E+06</totfact>
</mgrwt>
</event>
<event>
 3    0  0.1623199E+001  0.1250000E+03  0.7546771E-02  0.1235069E+00
         21   -1    0    0  502  501  0.00000000000E+00  0.00000000000E+00  0.16395030560E+02  0.16395030560E+02  0.00000000000E+00 0.  1.
         21   -1    0    0  501  502 -0.00000000000E+00 -0.00000000000E+00 -0.23825817133E+03  0.23825817133E+03  0.00000000000E+00 0.  1.
         25    1    1    2    0    0  0.00000000000E+00  0.00000000000E+00 -0.22186314077E+03  0.25465320189E+03  0.12500000000E+03 0.  0.
<mgrwt>
<rscale>  2 0.12500000E+03</rscale>
<asrwt>0</asrwt>
<pdfrwt beam="1">  1       21 0.25223125E-02 0.12500000E+03</pdfrwt>
<pdfrwt beam="2">  1       21 0.36655102E-01 0.12500000E+03</pdfrwt>
<totfact> 0.59442843E+06</totfact>
</mgrwt>
</event>
<event>
 3    0  0.1420599E+001  0.1250000E+03  0.7546771E-02  0.1235069E+00
         21   -1    0    0  502  501  0.00000000000E+00  0.00000000000E+00  0.53805532818E+03  0.53805532818E+03  0.00000000000E+00 0. -1.
         21   -1    0    0  501  502 -0.00000000000E+00 -0.00000000000E+00 -0.72599411165E+01  0.72599411165E+01  0.00000000000E+00 0. -1.
         25    1    1    2    0    0  0.00000000000E+00  0.00000000000E+00  0.53079538706E+03  0.54531526930E+03  0.12500000000E+03 0.  0.
<mgrwt>
<rscale>  2 0.12500000E+03</rscale>
<asrwt>0</asrwt>
<pdfrwt beam="1">  1       21 0.82777711E-01 0.12500000E+03</pdfrwt>
<pdfrwt beam="2">  1       21 0.11169144E-02 0.12500000E+03</pdfrwt>
<totfact> 0.39688543E+06</totfact>
</mgrwt>
</event>
<event>
 3    0  0.1635875E+001  0.1250000E+03  0.7546771E-02  0.1235069E+00
         21   -1    0    0  502  501  0.00000000000E+00  0.00000000000E+00  0.24349032763E+02  0.24349032763E+02  0.00000000000E+00 0. -1.
         21   -1    0    0  501  502 -0.00000000000E+00 -0.00000000000E+00 -0.16042731709E+03  0.16042731709E+03  0.00000000000E+00 0. -1.
         25    1    1    2    0    0  0.00000000000E+00  0.00000000000E+00 -0.13607828433E+03  0.18477634986E+03  0.12500000000E+03 0.  0.
<mgrwt>
<rscale>  2 0.12500000E+03</rscale>
<asrwt>0</asrwt>
<pdfrwt beam="1">  1       21 0.37460050E-02 0.12500000E+03</pdfrwt>
<pdfrwt beam="2">  1       21 0.24681126E-01 0.12500000E+03</pdfrwt>
<totfact> 0.66607788E+06</totfact>
</mgrwt>
</event>
<event>
 3    0  0.1368989E+001  0.1250000E+03  0.7546771E-02  0.1235069E+00
         21   -1    0    0  502  501  0.00000000000E+00  0.00000000000E+00  0.98610564750E+03  0.98610564750E+03  0.00000000000E+00 0.  1.
         21   -1    0    0  501  502 -0.00000000000E+00 -0.00000000000E+00 -0.39612895534E+01  0.39612895534E+01  0.00000000000E+00 0.  1.
         25    1    1    2    0    0  0.00000000000E+00  0.00000000000E+00  0.98214435794E+03  0.99006693705E+03  0.12500000000E+03 0.  0.
<mgrwt>
<rscale>  2 0.12500000E+03</rscale>
<asrwt>0</asrwt>
<pdfrwt beam="1">  1       21 0.15170837E+00 0.12500000E+03</pdfrwt>
<pdfrwt beam="2">  1       21 0.60942995E-03 0.12500000E+03</pdfrwt>
<totfact> 0.23868477E+06</totfact>
</mgrwt>
</event>
<event>
 3    0  0.1368989E+001  0.1250000E+03  0.7546771E-02  0.1235069E+00
         21   -1    0    0  502  501  0.00000000000E+00  0.00000000000E+00  0.31991669998E+04  0.31991669998E+04  0.00000000000E+00 0. -1.
         21   -1    0    0  501  502 -0.00000000000E+00 -0.00000000000E+00 -0.12210209721E+01  0.12210209721E+01  0.00000000000E+00 0. -1.
         25    1    1    2    0    0  0.00000000000E+00  0.00000000000E+00  0.31979459788E+04  0.32003880208E+04  0.12500000000E+03 0.  0.
<mgrwt>
<rscale>  2 0.12500000E+03</rscale>
<asrwt>0</asrwt>
<pdfrwt beam="1">  1       21 0.49217283E+00 0.12500000E+03</pdfrwt>
<pdfrwt beam="2">  1       21 0.18785194E-03 0.12500000E+03</pdfrwt>
<totfact> 0.11829919E+05</totfact>
</mgrwt>
</event>
<event>
 3    0  0.1561183E+001  0.1250000E+03  0.7546771E-02  0.1235069E+00
         21   -1    0    0  502  501  0.00000000000E+00  0.00000000000E+00  0.14091866588E+02  0.14091866588E+02  0.00000000000E+00 0. -1.
         21   -1    0    0  501  502 -0.00000000000E+00 -0.00000000000E+00 -0.27719890587E+03  0.27719890587E+03  0.00000000000E+00 0. -1.
         25    1    1    2    0    0  0.00000000000E+00  0.00000000000E+00 -0.26310703929E+03  0.29129077246E+03  0.12500000000E+03 0.  0.
<mgrwt>
<rscale>  2 0.12500000E+03</rscale>
<asrwt>0</asrwt>
<pdfrwt beam="1">  1       21 0.21679796E-02 0.12500000E+03</pdfrwt>
<pdfrwt beam="2">  1       21 0.42645982E-01 0.12500000E+03</pdfrwt>
<totfact> 0.56187802E+06</totfact>
</mgrwt>
</event>
<event>
 3    0  0.1701723E+001  0.1250000E+03  0.7546771E-02  0.1235069E+00
         21   -1    0    0  502  501  0.00000000000E+00  0.00000000000E+00  0.10023708402E+03  0.10023708402E+03  0.00000000000E+00 0.  1.
         21   -1    0    0  501  502 -0.00000000000E+00 -0.00000000000E+00 -0.38970108100E+02  0.38970108100E+02  0.00000000000E+00 0.  1.
         25    1    1    2    0    0  0.00000000000E+00  0.00000000000E+00  0.61266975924E+02  0.13920719212E+03  0.12500000000E+03 0.  0.
<mgrwt>
<rscale>  2 0.12500000E+03</rscale>
<asrwt>0</asrwt>
<pdfrwt beam="1">  1       21 0.15421090E-01 0.12500000E+03</pdfrwt>
<pdfrwt beam="2">  1       21 0.59954013E-02 0.12500000E+03</pdfrwt>
<totfact> 0.72142977E+06</totfact>
</mgrwt>
</event>
<event>
 3    0  0.1681916E+001  0.1250000E+03  0.7546771E-02  0.1235069E+00
         21   -1    0    0  502  501  0.00000000000E+00  0.00000000000E+00  0.41296912539E+02  0.41296912539E+02  0.00000000000E+00 0. -1.
         21   -1    0    0  501  502 -0.00000000000E+00 -0.00000000000E+00 -0.94589395668E+02  0.94589395668E+02  0.00000000000E+00 0. -1.
         25    1    1    2    0    0  0.00000000000E+00  0.00000000000E+00 -0.53292483130E+02  0.13588630821E+03  0.12500000000E+03 0.  0.
<mgrwt>
<rscale>  2 0.12500000E+03</rscale>
<asrwt>0</asrwt>
<pdfrwt beam="1">  1       21 0.63533712E-02 0.12500000E+03</pdfrwt>
<pdfrwt beam="2">  1       21 0.14552215E-01 0.12500000E+03</pdfrwt>
<totfact> 0.72579331E+06</totfact>
</mgrwt>
</event>
<event>
 3    0  0.1711708E+001  0.1250000E+03  0.7546771E-02  0.1235069E+00
         21   -1    0    0  502  501  0.00000000000E+00  0.00000000000E+00  0.56933004260E+02  0.56933004260E+02  0.00000000000E+00 0.  1.
         21   -1    0    0  501  502 -0.00000000000E+00 -0.00000000000E+00 -0.68611345050E+02  0.68611345050E+02  0.00000000000E+00 0.  1.
         25    1    1    2    0    0  0.00000000000E+00  0.00000000000E+00 -0.11678340790E+02  0.12554434931E+03  0.12500000000E+03 0.  0.
<mgrwt>
<rscale>  2 0.12500000E+03</rscale>
<asrwt>0</asrwt>
<pdfrwt beam="1">  1       21 0.87589238E-02 0.12500000E+03</pdfrwt>
<pdfrwt beam="2">  1       21 0.10555591E-01 0.12500000E+03</pdfrwt>
<totfact> 0.73969201E+06</totfact>
</mgrwt>
</event>
<event>
 3    0  0.1684033E+001  0.1250000E+03  0.7546771E-02  0.1235069E+00
         21   -1    0    0  502  501  0.00000000000E+00  0.00000000000E+00  0.81783059314E+02  0.81783059314E+02  0.00000000000E+00 0. -1.
         21   -1    0    0  501  502 -0.00000000000E+00 -0.00000000000E+00 -0.47763559260E+02  0.47763559260E+02  0.00000000000E+00 0. -1.
         25    1    1    2    0    0  0.00000000000E+00  0.00000000000E+00  0.34019500054E+02  0.12954661857E+03  0.12500000000E+03 0.  0.
<mgrwt>
<rscale>  2 0.12500000E+03</rscale>
<asrwt>0</asrwt>
<pdfrwt beam="1">  1       21 0.12582009E-01 0.12500000E+03</pdfrwt>
<pdfrwt beam="2">  1       21 0.73482399E-02 0.12500000E+03</pdfrwt>
<totfact> 0.73425572E+06</totfact>
</mgrwt>
</event>
<event>
 3    0  0.1687074E+001  0.1250000E+03  0.7546771E-02  0.1235069E+00
         21   -1    0    0  502  501  0.00000000000E+00  0.00000000000E+00  0.56552423417E+02  0.56552423417E+02  0.00000000000E+00 0. -1.
         21   -1    0    0  501  502 -0.00000000000E+00 -0.00000000000E+00 -0.69073078817E+02  0.69073078817E+02  0.00000000000E+00 0. -1.
         25    1    1    2    0    0  0.00000000000E+00  0.00000000000E+00 -0.12520655400E+02  0.12562550223E+03  0.12500000000E+03 0.  0.
<mgrwt>
<rscale>  2 0.12500000E+03</rscale>
<asrwt>0</asrwt>
<pdfrwt beam="1">  1       21 0.87003728E-02 0.12500000E+03</pdfrwt>
<pdfrwt beam="2">  1       21 0.10626628E-01 0.12500000E+03</pdfrwt>
<totfact> 0.73957892E+06</totfact>
</mgrwt>
</event>
<event>
 3    0  0.1693180E+001  0.1250000E+03  0.7546771E-02  0.1235069E+00
         21   -1    0    0  502  501  0.00000000000E+00  0.00000000000E+00  0.10466777524E+03  0.10466777524E+03  0.00000000000E+00 0.  1.
         21   -1    0    0  501  502 -0.00000000000E+00 -0.00000000000E+00 -0.37320464596E+02  0.37320464596E+02  0.00000000000E+00 0.  1.
         25    1    1    2    0    0  0.00000000000E+00  0.00000000000E+00  0.67347310641E+02  0.14198823983E+03  0.12500000000E+03 0.  0.
<mgrwt>
<rscale>  2 0.12500000E+03</rscale>
<asrwt>0</asrwt>
<pdfrwt beam="1">  1       21 0.16102735E-01 0.12500000E+03</pdfrwt>
<pdfrwt beam="2">  1       21 0.57416100E-02 0.12500000E+03</pdfrwt>
<totfact> 0.71780799E+06</totfact>
</mgrwt>
</event>
<event>
 3    0  0.1661532E+001  0.1250000E+03  0.7546771E-02  0.1235069E+00
         21   -1    0    0  502  501  0.00000000000E+00  0.00000000000E+00  0.15966826053E+03  0.15966826053E+03  0.00000000000E+00 0.  1.
         21   -1    0    0  501  502 -0.00000000000E+00 -0.00000000000E+00 -0.24464787097E+02  0.24464787097E+02  0.00000000000E+00 0.  1.
         25    1    1    2    0    0  0.00000000000E+00  0.00000000000E+00  0.13520347343E+03  0.18413304763E+03  0.12500000000E+03 0.  0.
<mgrwt>
<rscale>  2 0.12500000E+03</rscale>
<asrwt>0</asrwt>
<pdfrwt beam="1">  1       21 0.24564347E-01 0.12500000E+03</pdfrwt>
<pdfrwt beam="2">  1       21 0.37638135E-02 0.12500000E+03</pdfrwt>
<totfact> 0.66680541E+06</totfact>
</mgrwt>
</event>
<event>
 3    0  0.1455966E+001  0.1250000E+03  0.7546771E-02  0.1235069E+00
         21   -1    0    0  502  501  0.00000000000E+00  0.00000000000E+00  0.79456158811E+01  0.79456158811E+01  0.00000000000E+00 0.  1.
         21   -1    0    0  501  502 -0.00000000000E+00 -0.00000000000E+00 -0.49162331258E+03  0.49162331258E+03  0.00000000000E+00 0.  1.
         25    1    1    2    0    0  0.00000000000E+00  0.00000000000E+00 -0.48367769670E+03  0.49956892847E+03  0.12500000000E+03 0.  0.
<mgrwt>
<rscale>  2 0.12500000E+03</rscale>
<asrwt>0</asrwt>
<pdfrwt beam="1">  1       21 0.12224025E-02 0.12500000E+03</pdfrwt>
<pdfrwt beam="2">  1       21 0.75634352E-01 0.12500000E+03</pdfrwt>
<totfact> 0.42067459E+06</totfact>
</mgrwt>
</event>
<event>
 3    0  0.1674670E+001  0.1250000E+03  0.7546771E-02  0.1235069E+00
         21   -1    0    0  502  501  0.00000000000E+00  0.00000000000E+00  0.37250701435E+02  0.37250701435E+02  0.00000000000E+00 0. -1.
         21   -1    0    0  501  502 -0.00000000000E+00 -0.00000000000E+00 -0.10486379718E+03  0.10486379718E+03  0.00000000000E+00 0. -1.
         25    1    1    2    0    0  0.00000000000E+00  0.00000000000E+00 -0.67613095743E+02  0.14211449861E+03  0.12500000000E+03 0.  0.
<mgrwt>
<rscale>  2 0.12500000E+03</rscale>
<asrwt>0</asrwt>
<pdfrwt beam="1">  1       21 0.57308772E-02 0.12500000E+03</pdfrwt>
<pdfrwt beam="2">  1       21 0.16132892E-01 0.12500000E+03</pdfrwt>
<totfact> 0.71764453E+06</totfact>
</mgrwt>
</event>
<event>
 3    0  0.1368989E+001  0.1250000E+03  0.7546771E-02  0.1235069E+00
         21   -1    0    0  502  501  0.00000000000E+00  0.00000000000E+00  0.55769092676E+01  0.55769092676E+01  0.00000000000E+00 0. -1.
         21   -1    0    0  501  502 -0.00000000000E+00 -0.00000000000E+00 -0.70043276886E+03  0.70043276886E+03  0.00000000000E+00 0. -1.
         25    1    1    2    0    0  0.00000000000E+00  0.00000000000E+00 -0.69485585959E+03  0.70600967813E+03  0.12500000000E+03 0.  0.
<mgrwt>
<rscale>  2 0.12500000E+03</rscale>
<asrwt>0</asrwt>
<pdfrwt beam="1">  1       21 0.85798593E-03 0.12500000E+03</pdfrwt>
<pdfrwt beam="2">  1       21 0.10775890E+00 0.12500000E+03</pdfrwt>
<totfact> 0.32679727E+06</totfact>
</mgrwt>
</event>
<event>
 3    0  0.1703778E+001  0.1250000E+03  0.7546771E-02  0.1235069E+00
         21   -1    0    0  502  501  0.00000000000E+00  0.00000000000E+00  0.91621775847E+02  0.91621775847E+02  0.00000000000E+00 0.  1.
         21   -1    0    0  501  502 -0.00000000000E+00 -0.00000000000E+00 -0.42634515255E+02  0.42634515255E+02  0.00000000000E+00 0.  1.
         25    1    1    2    0    0  0.00000000000E+00  0.00000000000E+00  0.48987260592E+02  0.13425629110E+03  0.12500000000E+03 0.  0.
<mgrwt>
<rscale>  2 0.12500000E+03</rscale>
<asrwt>0</asrwt>
<pdfrwt beam="1">  1       21 0.14095658E-01 0.12500000E+03</pdfrwt>
<pdfrwt beam="2">  1       21 0.65591562E-02 0.12500000E+03</pdfrwt>
<totfact> 0.72795095E+06</totfact>
</mgrwt>
</event>
<event>
 3    0  0.1695378E+001  0.1250000E+03  0.7546771E-02  0.1235069E+00
         21   -1    0    0  502  501  0.00000000000E+00  0.00000000000E+00  0.10656170438E+03  0.10656170438E+03  0.00000000000E+00 0.  1.
         21   -1    0    0  501  502 -0.00000000000E+00 -0.00000000000E+00 -0.36657165185E+02  0.36657165185E+02  0.00000000000E+00 0.  1.
         25    1    1    2    0    0  0.00000000000E+00  0.00000000000E+00  0.69904539198E+02  0.14321886957E+03  0.12500000000E+03 0.  0.
<mgrwt>
<rscale>  2 0.12500000E+03</rscale>
<asrwt>0</asrwt>
<pdfrwt beam="1">  1       21 0.16394108E-01 0.12500000E+03</pdfrwt>
<pdfrwt beam="2">  1       21 0.56395639E-02 0.12500000E+03</pdfrwt>
<totfact> 0.71621827E+06</totfact>
</mgrwt>
</event>
<event>
 3    0  0.1603019E+001  0.1250000E+03  0.7546771E-02  0.1235069E+00
         21   -1    0    0  502  501  0.00000000000E+00  0.00000000000E+00  0.16482068085E+02  0.16482068085E+02  0.00000000000E+00 0. -1.
         21   -1    0    0  501  502 -0.00000000000E+00 -0.00000000000E+00 -0.23699999174E+03  0.23699999174E+03  0.00000000000E+00 0. -1.
         25    1    1    2    0    0  0.00000000000E+00  0.00000000000E+00 -0.22051792366E+03  0.25348205983E+03  0.12500000000E+03 0.  0.
<mgrwt>
<rscale>  2 0.12500000E+03</rscale>
<asrwt>0</asrwt>
<pdfrwt beam="1">  1       21 0.25357029E-02 0.12500000E+03</pdfrwt>
<pdfrwt beam="2">  1       21 0.36461535E-01 0.12500000E+03</pdfrwt>
<totfact> 0.59551900E+06</totfact>
</mgrwt>
</event>
<event>
 3    0  0.1600013E+001  0.1250000E+03  0.7546771E-02  0.1235069E+00
         21   -1    0    0  502  501  0.00000000000E+00  0.00000000000E+00  0.16392969882E+02  0.16392969882E+02  0.00000000000E+00 0. -1.
         21   -1    0    0  501  502 -0.00000000000E+00 -0.00000000000E+00 -0.23828812156E+03  0.23828812156E+03  0.00000000000E+00 0. -1.
         25    1    1    2    0    0  0.00000000000E+00  0.00000000000E+00 -0.22189515168E+03  0.25468109144E+03  0.12500000000E+03 0.  0.
<mgrwt>
<rscale>  2 0.12500000E+03</rscale>
<asrwt>0</asrwt>
<pdfrwt beam="1">  1       21 0.25219953E-02 0.12500000E+03</pdfrwt>
<pdfrwt beam="2">  1       21 0.36659712E-01 0.12500000E+03</pdfrwt>
<totfact> 0.59440249E+06</totfact>
</mgrwt>
</event>
<event>
 3    0  0.1708221E+001  0.1250000E+03  0.7546771E-02  0.1235069E+00
         21   -1    0    0  502  501  0.00000000000E+00  0.00000000000E+00  0.46479469755E+02  0.46479469755E+02  0.00000000000E+00 0.  1.
         21   -1    0    0  501  502 -0.00000000000E+00 -0.00000000000E+00 -0.84042481994E+02  0.84042481994E+02  0.00000000000E+00 0.  1.
         25    1    1    2    0    0  0.00000000000E+00  0.00000000000E+00 -0.37563012239E+02  0.13052195175E+03  0.12500000000E+03 0.  0.
<mgrwt>
<rscale>  2 0.12500000E+03</rscale>
<asrwt>0</asrwt>
<pdfrwt beam="1">  1       21 0.71506877E-02 0.12500000E+03</pdfrwt>
<pdfrwt beam="2">  1       21 0.12929613E-01 0.12500000E+03</pdfrwt>
<totfact> 0.73295166E+06</totfact>
</mgrwt>
</event>
<event>
 3    0  0.1684609E+001  0.1250000E+03  0.7546771E-02  0.1235069E+00
         21   -1    0    0  502  501  0.00000000000E+00  0.00000000000E+00  0.13163725706E+03  0.13163725706E+03  0.00000000000E+00 0.  1.
         21   -1    0    0  501  502 -0.00000000000E+00 -0.00000000000E+00 -0.29674349703E+02  0.29674349703E+02  0.00000000000E+00 0.  1.
         25    1    1    2    0    0  0.00000000000E+00  0.00000000000E+00  0.10196290736E+03  0.16131160677E+03  0.12500000000E+03 0.  0.
<mgrwt>
<rscale>  2 0.12500000E+03</rscale>
<asrwt>0</asrwt>
<pdfrwt beam="1">  1       21 0.20251885E-01 0.12500000E+03</pdfrwt>
<pdfrwt beam="2">  1       21 0.45652846E-02 0.12500000E+03</pdfrwt>
<totfact> 0.69359586E+06</totfact>
</mgrwt>
</event>
<event>
 3    0  0.1601579E+001  0.1250000E+03  0.7546771E-02  0.1235069E+00
         21   -1    0    0  502  501  0.00000000000E+00  0.00000000000E+00  0.14499511292E+02  0.14499511292E+02  0.00000000000E+00 0.  1.
         21   -1    0    0  501  502 -0.00000000000E+00 -0.00000000000E+00 -0.26940563177E+03  0.26940563177E+03  0.00000000000E+00 0.  1.
         25    1    1    2    0    0  0.00000000000E+00  0.00000000000E+00 -0.25490612048E+03  0.28390514307E+03  0.12500000000E+03 0.  0.
<mgrwt>
<rscale>  2 0.12500000E+03</rscale>
<asrwt>0</asrwt>
<pdfrwt beam="1">  1       21 0.22306939E-02 0.12500000E+03</pdfrwt>
<pdfrwt beam="2">  1       21 0.41447022E-01 0.12500000E+03</pdfrwt>
<totfact> 0.56820816E+06</totfact>
</mgrwt>
</event>
<event>
 3    0  0.1701564E+001  0.1250000E+03  0.7546771E-02  0.1235069E+00
         21   -1    0    0  502  501  0.00000000000E+00  0.00000000000E+00  0.44129592373E+02  0.44129592373E+02  0.00000000000E+00 0.  1.
         21   -1    0    0  501  502 -0.00000000000E+00 -0.00000000000E+00 -0.88517699575E+02  0.88517699575E+02  0.00000000000E+00 0.  1.
         25    1    1    2    0    0  0.00000000000E+00  0.00000000000E+00 -0.44388107202E+02  0.13264729195E+03  0.12500000000E+03 0.  0.
<mgrwt>
<rscale>  2 0.12500000E+03</rscale>
<asrwt>0</asrwt>
<pdfrwt beam="1">  1       21 0.67891681E-02 0.12500000E+03</pdfrwt>
<pdfrwt beam="2">  1       21 0.13618107E-01 0.12500000E+03</pdfrwt>
<totfact> 0.73009533E+06</totfact>
</mgrwt>
</event>
<event>
 3    0  0.1649898E+001  0.1250000E+03  0.7546771E-02  0.1235069E+00
         21   -1    0    0  502  501  0.00000000000E+00  0.00000000000E+00  0.13637113895E+03  0.13637113895E+03  0.00000000000E+00 0. -1.
         21   -1    0    0  501  502 -0.00000000000E+00 -0.00000000000E+00 -0.28644257357E+02  0.28644257357E+02  0.00000000000E+00 0. -1.
         25    1    1    2    0    0  0.00000000000E+00  0.00000000000E+00  0.10772688159E+03  0.16501539630E+03  0.12500000000E+03 0.  0.
<mgrwt>
<rscale>  2 0.12500000E+03</rscale>
<asrwt>0</asrwt>
<pdfrwt beam="1">  1       21 0.20980175E-01 0.12500000E+03</pdfrwt>
<pdfrwt beam="2">  1       21 0.44068089E-02 0.12500000E+03</pdfrwt>
<totfact> 0.68911803E+06</totfact>
</mgrwt>
</event>
<event>
 3    0  0.1690266E+001  0.1250000E+03  0.7546771E-02  0.1235069E+00
         21   -1    0    0  502  501  0.00000000000E+00  0.00000000000E+00  0.11585219563E+03  0.11585219563E+03  0.00000000000E+00 0.  1.
         21   -1    0    0  501  502 -0.00000000000E+00 -0.00000000000E+00 -0.33717531022E+02  0.33717531022E+02  0.00000000000E+00 0.  1.
         25    1    1    2    0    0  0.00000000000E+00  0.00000000000E+00  0.82134664605E+02  0.14956972665E+03  0.12500000000E+03 0.  0.
<mgrwt>
<rscale>  2 0.12500000E+03</rscale>
<asrwt>0</asrwt>
<pdfrwt beam="1">  1       21 0.17823414E-01 0.12500000E+03</pdfrwt>
<pdfrwt beam="2">  1       21 0.51873125E-02 0.12500000E+03</pdfrwt>
<totfact> 0.70813293E+06</totfact>
</mgrwt>
</event>
<event>
 3    0  0.1376628E+001  0.1250000E+03  0.7546771E-02  0.1235069E+00
         21   -1    0    0  502  501  0.00000000000E+00  0.00000000000E+00  0.64510558261E+03  0.64510558261E+03  0.00000000000E+00 0.  1.
         21   -1    0    0  501  502 -0.00000000000E+00 -0.00000000000E+00 -0.60552103489E+01  0.60552103489E+01  0.00000000000E+00 0.  1.
         25    1    1    2    0    0  0.00000000000E+00  0.00000000000E+00  0.63905037226E+03  0.65116079296E+03  0.12500000000E+03 0.  0.
<mgrwt>
<rscale>  2 0.12500000E+03</rscale>
<asrwt>0</asrwt>
<pdfrwt beam="1">  1       21 0.99246958E-01 0.12500000E+03</pdfrwt>
<pdfrwt beam="2">  1       21 0.93157133E-03 0.12500000E+03</pdfrwt>
<totfact> 0.34876316E+06</totfact>
</mgrwt>
</event>
<event>
 3    0  0.1647577E+001  0.1250000E+03  0.7546771E-02  0.1235069E+00
         21   -1    0    0  502  501  0.00000000000E+00  0.00000000000E+00  0.18135903342E+03  0.18135903342E+03  0.00000000000E+00 0.  1.
         21   -1    0    0  501  502 -0.00000000000E+00 -0.00000000000E+00 -0.21538767197E+02  0.21538767197E+02  0.00000000000E+00 0.  1.
         25    1    1    2    0    0  0.00000000000E+00  0.00000000000E+00  0.15982026623E+03  0.20289780062E+03  0.12500000000E+03 0.  0.
<mgrwt>
<rscale>  2 0.12500000E+03</rscale>
<asrwt>0</asrwt>
<pdfrwt beam="1">  1       21 0.27901389E-01 0.12500000E+03</pdfrwt>
<pdfrwt beam="2">  1       21 0.33136566E-02 0.12500000E+03</pdfrwt>
<totfact> 0.64614603E+06</totfact>
</mgrwt>
</event>
<event>
 3    0  0.1626865E+001  0.1250000E+03  0.7546771E-02  0.1235069E+00
         21   -1    0    0  502  501  0.00000000000E+00  0.00000000000E+00  0.18050758456E+02  0.18050758456E+02  0.00000000000E+00 0.  1.
         21   -1    0    0  501  502 -0.00000000000E+00 -0.00000000000E+00 -0.21640364916E+03  0.21640364916E+03  0.00000000000E+00 0.  1.
         25    1    1    2    0    0  0.00000000000E+00  0.00000000000E+00 -0.19835289070E+03  0.23445440761E+03  0.12500000000E+03 0.  0.
<mgrwt>
<rscale>  2 0.12500000E+03</rscale>
<asrwt>0</asrwt>
<pdfrwt beam="1">  1       21 0.27770398E-02 0.12500000E+03</pdfrwt>
<pdfrwt beam="2">  1       21 0.33292868E-01 0.12500000E+03</pdfrwt>
<totfact> 0.61373462E+06</totfact>
</mgrwt>
</event>
<event>
 3    0  0.1684456E+001  0.1250000E+03  0.7546771E-02  0.1235069E+00
         21   -1    0    0  502  501  0.00000000000E+00  0.00000000000E+00  0.13170407512E+03  0.13170407512E+03  0.00000000000E+00 0.  1.
         21   -1    0    0  501  502 -0.00000000000E+00 -0.00000000000E+00 -0.29659294874E+02  0.29659294874E+02  0.00000000000E+00 0.  1.
         25    1    1    2    0    0  0.00000000000E+00  0.00000000000E+00  0.10204478025E+03  0.16136336999E+03  0.12500000000E+03 0.  0.
<mgrwt>
<rscale>  2 0.12500000E+03</rscale>
<asrwt>0</asrwt>
<pdfrwt beam="1">  1       21 0.20262165E-01 0.12500000E+03</pdfrwt>
<pdfrwt beam="2">  1       21 0.45629685E-02 0.12500000E+03</pdfrwt>
<totfact> 0.69353289E+06</totfact>
</mgrwt>
</event>
<event>
 3    0  0.1522402E+001  0.1250000E+03  0.7546771E-02  0.1235069E+00
         21   -1    0    0  502  501  0.00000000000E+00  0.00000000000E+00  0.34916719840E+03  0.34916719840E+03  0.00000000000E+00 0.  1.
         21   -1    0    0  501  502 -0.00000000000E+00 -0.00000000000E+00 -0.11187333798E+02  0.11187333798E+02  0.00000000000E+00 0.  1.
         25    1    1    2    0    0  0.00000000000E+00  0.00000000000E+00  0.33797986461E+03  0.36035453220E+03  0.12500000000E+03 0.  0.
<mgrwt>
<rscale>  2 0.12500000E+03</rscale>
<asrwt>0</asrwt>
<pdfrwt beam="1">  1       21 0.53718022E-01 0.12500000E+03</pdfrwt>
<pdfrwt beam="2">  1       21 0.17211285E-02 0.12500000E+03</pdfrwt>
<totfact> 0.50782699E+06</totfact>
</mgrwt>
</event>
<event>
 3    0  0.1695768E+001  0.1250000E+03  0.7546771E-02  0.1235069E+00
         21   -1    0    0  502  501  0.00000000000E+00  0.00000000000E+00  0.33215860390E+02  0.33215860390E+02  0.00000000000E+00 0.  1.
         21   -1    0    0  501  502 -0.00000000000E+00 -0.00000000000E+00 -0.11760195142E+03  0.11760195142E+03  0.00000000000E+00 0.  1.
         25    1    1    2    0    0  0.00000000000E+00  0.00000000000E+00 -0.84386091032E+02  0.15081781181E+03  0.12500000000E+03 0.  0.
<mgrwt>
<rscale>  2 0.12500000E+03</rscale>
<asrwt>0</asrwt>
<pdfrwt beam="1">  1       21 0.51101324E-02 0.12500000E+03</pdfrwt>
<pdfrwt beam="2">  1       21 0.18092608E-01 0.12500000E+03</pdfrwt>
<totfact> 0.70656620E+06</totfact>
</mgrwt>
</event>
<event>
 3    0  0.1496007E+001  0.1250000E+03  0.7546771E-02  0.1235069E+00
         21   -1    0    0  502  501  0.00000000000E+00  0.00000000000E+00  0.10402271178E+02  0.10402271178E+02  0.00000000000E+00 0. -1.
         21   -1    0    0  501  502 -0.00000000000E+00 -0.00000000000E+00 -0.37551895478E+03  0.37551895478E+03  0.00000000000E+00 0. -1.
         25    1    1    2    0    0  0.00000000000E+00  0.00000000000E+00 -0.36511668360E+03  0.38592122595E+03  0.12500000000E+03 0.  0.
<mgrwt>
<rscale>  2 0.12500000E+03</rscale>
<asrwt>0</asrwt>
<pdfrwt beam="1">  1       21 0.16003492E-02 0.12500000E+03</pdfrwt>
<pdfrwt beam="2">  1       21 0.57772153E-01 0.12500000E+03</pdfrwt>
<totfact> 0.48989414E+06</totfact>
</mgrwt>
</event>
<event>
 3    0  0.1705244E+001  0.1250000E+03  0.7546771E-02  0.1235069E+00
         21   -1    0    0  502  501  0.00000000000E+00  0.00000000000E+00  0.84101170450E+02  0.84101170450E+02  0.00000000000E+00 0.  1.
         21   -1    0    0  501  502 -0.00000000000E+00 -0.00000000000E+00 -0.46447034912E+02  0.46447034912E+02  0.00000000000E+00 0.  1.
         25    1    1    2    0    0  0.00000000000E+00  0.00000000000E+00  0.37654135538E+02  0.13054820536E+03  0.12500000000E+03 0.  0.
<mgrwt>
<rscale>  2 0.12500000E+03</rscale>
<asrwt>0</asrwt>
<pdfrwt beam="1">  1       21 0.12938642E-01 0.12500000E+03</pdfrwt>
<pdfrwt beam="2">  1       21 0.71456977E-02 0.12500000E+03</pdfrwt>
<totfact> 0.73291621E+06</totfact>
</mgrwt>
</event>
<event>
 3    0  0.1686255E+001  0.1250000E+03  0.7546771E-02  0.1235069E+00
         21   -1    0    0  502  501  0.00000000000E+00  0.00000000000E+00  0.48978722831E+02  0.48978722831E+02  0.00000000000E+00 0. -1.
         21   -1    0    0  501  502 -0.00000000000E+00 -0.00000000000E+00 -0.79754019179E+02  0.79754019179E+02  0.00000000000E+00 0. -1.
         25    1    1    2    0    0  0.00000000000E+00  0.00000000000E+00 -0.30775296348E+02  0.12873274201E+03  0.12500000000E+03 0.  0.
<mgrwt>
<rscale>  2 0.12500000E+03</rscale>
<asrwt>0</asrwt>
<pdfrwt beam="1">  1       21 0.75351882E-02 0.12500000E+03</pdfrwt>
<pdfrwt beam="2">  1       21 0.12269849E-01 0.12500000E+03</pdfrwt>
<totfact> 0.73534799E+06</totfact>
</mgrwt>
</event>
<event>
 3    0  0.1709643E+001  0.1250000E+03  0.7546771E-02  0.1235069E+00
         21   -1    0    0  502  501  0.00000000000E+00  0.00000000000E+00  0.74424475293E+02  0.74424475293E+02  0.00000000000E+00 0.  1.
         21   -1    0    0  501  502 -0.00000000000E+00 -0.00000000000E+00 -0.52486093918E+02  0.52486093918E+02  0.00000000000E+00 0.  1.
         25    1    1    2    0    0  0.00000000000E+00  0.00000000000E+00  0.21938381375E+02  0.12691056921E+03  0.12500000000E+03 0.  0.
<mgrwt>
<rscale>  2 0.12500000E+03</rscale>
<asrwt>0</asrwt>
<pdfrwt beam="1">  1       21 0.11449919E-01 0.12500000E+03</pdfrwt>
<pdfrwt beam="2">  1       21 0.80747837E-02 0.12500000E+03</pdfrwt>
<totfact> 0.73781315E+06</totfact>
</mgrwt>
</event>
<event>
 3    0  0.1493152E+001  0.1250000E+03  0.7546771E-02  0.1235069E+00
         21   -1    0    0  502  501  0.00000000000E+00  0.00000000000E+00  0.41376498070E+03  0.41376498070E+03  0.00000000000E+00 0. -1.
         21   -1    0    0  501  502 -0.00000000000E+00 -0.00000000000E+00 -0.94407457909E+01  0.94407457909E+01  0.00000000000E+00 0. -1.
         25    1    1    2    0    0  0.00000000000E+00  0.00000000000E+00  0.40432423491E+03  0.42320572649E+03  0.12500000000E+03 0.  0.
<mgrwt>
<rscale>  2 0.12500000E+03</rscale>
<asrwt>0</asrwt>
<pdfrwt beam="1">  1       21 0.63656137E-01 0.12500000E+03</pdfrwt>
<pdfrwt beam="2">  1       21 0.14524227E-02 0.12500000E+03</pdfrwt>
<totfact> 0.46539295E+06</totfact>
</mgrwt>
</event>
<event>
 3    0  0.1709947E+001  0.1250000E+03  0.7546771E-02  0.1235069E+00
         21   -1    0    0  502  501  0.00000000000E+00  0.00000000000E+00  0.77554312728E+02  0.77554312728E+02  0.00000000000E+00 0.  1.
         21   -1    0    0  501  502 -0.00000000000E+00 -0.00000000000E+00 -0.50367927490E+02  0.50367927490E+02  0.00000000000E+00 0.  1.
         25    1    1    2    0    0  0.00000000000E+00  0.00000000000E+00  0.27186385239E+02  0.12792224022E+03  0.12500000000E+03 0.  0.
<mgrwt>
<rscale>  2 0.12500000E+03</rscale>
<asrwt>0</asrwt>
<pdfrwt beam="1">  1       21 0.11931433E-01 0.12500000E+03</pdfrwt>
<pdfrwt beam="2">  1       21 0.77489119E-02 0.12500000E+03</pdfrwt>
<totfact> 0.73644066E+06</totfact>
</mgrwt>
</event>
<event>
 3    0  0.1572264E+001  0.1250000E+03  0.7546771E-02  0.1235069E+00
         21   -1    0    0  502  501  0.00000000000E+00  0.00000000000E+00  0.28200009703E+03  0.28200009703E+03  0.00000000000E+00 0.  1.
         21   -1    0    0  501  502 -0.00000000000E+00 -0.00000000000E+00 -0.13851945588E+02  0.13851945588E+02  0.00000000000E+00 0.  1.
         25    1    1    2    0    0  0.00000000000E+00  0.00000000000E+00  0.26814815144E+03  0.29585204262E+03  0.12500000000E+03 0.  0.
<mgrwt>
<rscale>  2 0.12500000E+03</rscale>
<asrwt>0</asrwt>
<pdfrwt beam="1">  1       21 0.43384626E-01 0.12500000E+03</pdfrwt>
<pdfrwt beam="2">  1       21 0.21310688E-02 0.12500000E+03</pdfrwt>
<totfact> 0.55802658E+06</totfact>
</mgrwt>
</event>
<event>
 3    0  0.1589320E+001  0.1250000E+03  0.7546771E-02  0.1235069E+00
         21   -1    0    0  502  501  0.00000000000E+00  0.00000000000E+00  0.28944383012E+03  0.28944383012E+03  0.00000000000E+00 0.  1.
         21   -1    0    0  501  502 -0.00000000000E+00 -0.00000000000E+00 -0.13495710026E+02  0.13495710026E+02  0.00000000000E+00 0.  1.
         25    1    1    2    0    0  0.00000000000E+00  0.00000000000E+00  0.27594812009E+03  0.30293954014E+03  0.12500000000E+03 0.  0.
<mgrwt>
<rscale>  2 0.12500000E+03</rscale>
<asrwt>0</asrwt>
<pdfrwt beam="1">  1       21 0.44529815E-01 0.12500000E+03</pdfrwt>
<pdfrwt beam="2">  1       21 0.20762633E-02 0.12500000E+03</pdfrwt>
<totfact> 0.55212770E+06</totfact>
</mgrwt>
</event>
<event>
 3    0  0.1665297E+001  0.1250000E+03  0.7546771E-02  0.1235069E+00
         21   -1    0    0  502  501  0.00000000000E+00  0.00000000000E+00  0.28022548501E+02  0.28022548501E+02  0.00000000000E+00 0. -1.
         21   -1    0    0  501  502 -0.00000000000E+00 -0.00000000000E+00 -0.13939667193E+03  0.13939667193E+03  0.00000000000E+00 0. -1.
         25    1    1    2    0    0  0.00000000000E+00  0.00000000000E+00 -0.11137412343E+03  0.16741922043E+03  0.12500000000E+03 0.  0.
<mgrwt>
<rscale>  2 0.12500000E+03</rscale>
<asrwt>0</asrwt>
<pdfrwt beam="1">  1       21 0.43111613E-02 0.12500000E+03</pdfrwt>
<pdfrwt beam="2">  1       21 0.21445642E-01 0.12500000E+03</pdfrwt>
<totfact> 0.68624119E+06</totfact>
</mgrwt>
</event>
<event>
 3    0  0.1673386E+001  0.1250000E+03  0.7546771E-02  0.1235069E+00
         21   -1    0    0  502  501  0.00000000000E+00  0.00000000000E+00  0.14865459824E+03  0.14865459824E+03  0.00000000000E+00 0.  1.
         21   -1    0    0  501  502 -0.00000000000E+00 -0.00000000000E+00 -0.26277357353E+02  0.26277357353E+02  0.00000000000E+00 0.  1.
         25    1    1    2    0    0  0.00000000000E+00  0.00000000000E+00  0.12237724088E+03  0.17493195559E+03  0.12500000000E+03 0.  0.
<mgrwt>
<rscale>  2 0.12500000E+03</rscale>
<asrwt>0</asrwt>
<pdfrwt beam="1">  1       21 0.22869938E-01 0.12500000E+03</pdfrwt>
<pdfrwt beam="2">  1       21 0.40426704E-02 0.12500000E+03</pdfrwt>
<totfact> 0.67737737E+06</totfact>
</mgrwt>
</event>
<event>
 3    0  0.1672239E+001  0.1250000E+03  0.7546771E-02  0.1235069E+00
         21   -1    0    0  502  501  0.00000000000E+00  0.00000000000E+00  0.11295258786E+03  0.11295258786E+03  0.00000000000E+00 0. -1.
         21   -1    0    0  501  502 -0.00000000000E+00 -0.00000000000E+00 -0.34583094323E+02  0.34583094323E+02  0.00000000000E+00 0. -1.
         25    1    1    2    0    0  0.00000000000E+00  0.00000000000E+00  0.78369493538E+02  0.14753568218E+03  0.12500000000E+03 0.  0.
<mgrwt>
<rscale>  2 0.12500000E+03</rscale>
<asrwt>0</asrwt>
<pdfrwt beam="1">  1       21 0.17377321E-01 0.12500000E+03</pdfrwt>
<pdfrwt beam="2">  1       21 0.53204761E-02 0.12500000E+03</pdfrwt>
<totfact> 0.71070154E+06</totfact>
</mgrwt>
</event>
<event>
 3    0  0.1611098E+001  0.1250000E+03  0.7546771E-02  0.1235069E+00
         21   -1    0    0  502  501  0.00000000000E+00  0.00000000000E+00  0.15248842970E+02  0.15248842970E+02  0.00000000000E+00 0.  1.
         21   -1    0    0  501  502 -0.00000000000E+00 -0.00000000000E+00 -0.25616697658E+03  0.25616697658E+03  0.00000000000E+00 0.  1.
         25    1    1    2    0    0  0.00000000000E+00  0.00000000000E+00 -0.24091813361E+03  0.27141581955E+03  0.12500000000E+03 0.  0.
<mgrwt>
<rscale>  2 0.12500000E+03</rscale>
<asrwt>0</asrwt>
<pdfrwt beam="1">  1       21 0.23459758E-02 0.12500000E+03</pdfrwt>
<pdfrwt beam="2">  1       21 0.39410304E-01 0.12500000E+03</pdfrwt>
<totfact> 0.57918483E+06</totfact>
</mgrwt>
</event>
<event>
 3    0  0.1368989E+001  0.1250000E+03  0.7546771E-02  0.1235069E+00
         21   -1    0    0  502  501  0.00000000000E+00  0.00000000000E+00  0.15564278902E+04  0.15564278902E+04  0.00000000000E+00 0. -1.
         21   -1    0    0  501  502 -0.00000000000E+00 -0.00000000000E+00 -0.25097532784E+01  0.25097532784E+01  0.00000000000E+00 0. -1.
         25    1    1    2    0    0  0.00000000000E+00  0.00000000000E+00  0.15539181369E+04  0.15589376435E+04  0.12500000000E+03 0.  0.
<mgrwt>
<rscale>  2 0.12500000E+03</rscale>
<asrwt>0</asrwt>
<pdfrwt beam="1">  1       21 0.23944967E+00 0.12500000E+03</pdfrwt>
<pdfrwt beam="2">  1       21 0.38611713E-03 0.12500000E+03</pdfrwt>
<totfact> 0.13141236E+06</totfact>
</mgrwt>
</event>
<event>
 3    0  0.1368989E+001  0.1250000E+03  0.7546771E-02  0.1235069E+00
         21   -1    0    0  502  501  0.00000000000E+00  0.00000000000E+00  0.18448862447E+01  0.18448862447E+01  0.00000000000E+00 0. -1.
         21   -1    0    0  501  502 -0.00000000000E+00 -0.00000000000E+00 -0.21173392187E+04  0.21173392187E+04  0.00000000000E+00 0. -1.
         25    1    1    2    0    0  0.00000000000E+00  0.00000000000E+00 -0.21154943325E+04  0.21191841050E+04  0.12500000000E+03 0.  0.
<mgrwt>
<rscale>  2 0.12500000E+03</rscale>
<asrwt>0</asrwt>
<pdfrwt beam="1">  1       21 0.28382845E-03 0.12500000E+03</pdfrwt>
<pdfrwt beam="2">  1       21 0.32574473E+00 0.12500000E+03</pdfrwt>
<totfact> 0.68432464E+05</totfact>
</mgrwt>
</event>
<event>
 3    0  0.1712383E+001  0.1250000E+03  0.7546771E-02  0.1235069E+00
         21   -1    0    0  502  501  0.00000000000E+00  0.00000000000E+00  0.60930993912E+02  0.60930993912E+02  0.00000000000E+00 0.  1.
         21   -1    0    0  501  502 -0.00000000000E+00 -0.00000000000E+00 -0.64109408844E+02  0.64109408844E+02  0.00000000000E+00 0.  1.
         25    1    1    2    0    0  0.00000000000E+00  0.00000000000E+00 -0.31784149320E+01  0.12504040276E+03  0.12500000000E+03 0.  0.
<mgrwt>
<rscale>  2 0.12500000E+03</rscale>
<asrwt>0</asrwt>
<pdfrwt beam="1">  1       21 0.93739990E-02 0.12500000E+03</pdfrwt>
<pdfrwt beam="2">  1       21 0.98629860E-02 0.12500000E+03</pdfrwt>
<totfact> 0.74038124E+06</totfact>
</mgrwt>
</event>
<event>
 3    0  0.1496448E+001  0.1250000E+03  0.7546771E-02  0.1235069E+00
         21   -1    0    0  502  501  0.00000000000E+00  0.00000000000E+00  0.40228336092E+03  0.40228336092E+03  0.00000000000E+00 0.  1.
         21   -1    0    0  501  502 -0.00000000000E+00 -0.00000000000E+00 -0.97101952989E+01  0.97101952989E+01  0.00000000000E+00 0.  1.
         25    1    1    2    0    0  0.00000000000E+00  0.00000000000E+00  0.39257316562E+03  0.41199355622E+03  0.12500000000E+03 0.  0.
<mgrwt>
<rscale>  2 0.12500000E+03</rscale>
<asrwt>0</asrwt>
<pdfrwt beam="1">  1       21 0.61889735E-01 0.12500000E+03</pdfrwt>
<pdfrwt beam="2">  1       21 0.14938765E-02 0.12500000E+03</pdfrwt>
<totfact> 0.47255880E+06</totfact>
</mgrwt>
</event>
<event>
 3    0  0.1478702E+001  0.1250000E+03  0.7546771E-02  0.1235069E+00
         21   -1    0    0  502  501  0.00000000000E+00  0.00000000000E+00  0.42111292362E+03  0.42111292362E+03  0.00000000000E+00 0. -1.
         21   -1    0    0  501  502 -0.00000000000E+00 -0.00000000000E+00 -0.92760154840E+01  0.92760154840E+01  0.00000000000E+00 0. -1.
         25    1    1    2    0    0  0.00000000000E+00  0.00000000000E+00  0.41183690813E+03  0.43038893910E+03  0.12500000000E+03 0.  0.
<mgrwt>
<rscale>  2 0.12500000E+03</rscale>
<asrwt>0</asrwt>
<pdfrwt beam="1">  1       21 0.64786589E-01 0.12500000E+03</pdfrwt>
<pdfrwt beam="2">  1       21 0.14270796E-02 0.12500000E+03</pdfrwt>
<totfact> 0.46088913E+06</totfact>
</mgrwt>
</event>
<event>
 3    0  0.1376258E+001  0.1250000E+03  0.7546771E-02  0.1235069E+00
         21   -1    0    0  502  501  0.00000000000E+00  0.00000000000E+00  0.64533377747E+03  0.64533377747E+03  0.00000000000E+00 0.  1.
         21   -1    0    0  501  502 -0.00000000000E+00 -0.00000000000E+00 -0.60530691813E+01  0.60530691813E+01  0.00000000000E+00 0.  1.
         25    1    1    2    0    0  0.00000000000E+00  0.00000000000E+00  0.63928070828E+03  0.65138684665E+03  0.12500000000E+03 0.  0.
<mgrwt>
<rscale>  2 0.12500000E+03</rscale>
<asrwt>0</asrwt>
<pdfrwt beam="1">  1       21 0.99282065E-01 0.12500000E+03</pdfrwt>
<pdfrwt beam="2">  1       21 0.93124192E-03 0.12500000E+03</pdfrwt>
<totfact> 0.34866935E+06</totfact>
</mgrwt>
</event>
<event>
 3    0  0.1664365E+001  0.1250000E+03  0.7546771E-02  0.1235069E+00
         21   -1    0    0  502  501  0.00000000000E+00  0.00000000000E+00  0.13922796118E+03  0.13922796118E+03  0.00000000000E+00 0. -1.
         21   -1    0    0  501  502 -0.00000000000E+00 -0.00000000000E+00 -0.28056505079E+02  0.28056505079E+02  0.00000000000E+00 0. -1.
         25    1    1    2    0    0  0.00000000000E+00  0.00000000000E+00  0.11117145610E+03  0.16728446626E+03  0.12500000000E+03 0.  0.
<mgrwt>
<rscale>  2 0.12500000E+03</rscale>
<asrwt>0</asrwt>
<pdfrwt beam="1">  1       21 0.21419686E-01 0.12500000E+03</pdfrwt>
<pdfrwt beam="2">  1       21 0.43163855E-02 0.12500000E+03</pdfrwt>
<totfact> 0.68640186E+06</totfact>
</mgrwt>
</event>
<event>
 3    0  0.1503820E+001  0.1250000E+03  0.7546771E-02  0.1235069E+00
         21   -1    0    0  502  501  0.00000000000E+00  0.00000000000E+00  0.87518085565E+01  0.87518085565E+01  0.00000000000E+00 0.  1.
         21   -1    0    0  501  502 -0.00000000000E+00 -0.00000000000E+00 -0.44633631720E+03  0.44633631720E+03  0.00000000000E+00 0.  1.
         25    1    1    2    0    0  0.00000000000E+00  0.00000000000E+00 -0.43758450865E+03  0.45508812576E+03  0.12500000000E+03 0.  0.
<mgrwt>
<rscale>  2 0.12500000E+03</rscale>
<asrwt>0</asrwt>
<pdfrwt beam="1">  1       21 0.13464319E-02 0.12500000E+03</pdfrwt>
<pdfrwt beam="2">  1       21 0.68667133E-01 0.12500000E+03</pdfrwt>
<totfact> 0.44589361E+06</totfact>
</mgrwt>
</event>
<event>
 3    0  0.1582884E+001  0.1250000E+03  0.7546771E-02  0.1235069E+00
         21   -1    0    0  502  501  0.00000000000E+00  0.00000000000E+00  0.14554471365E+02  0.14554471365E+02  0.00000000000E+00 0.  1.
         21   -1    0    0  501  502 -0.00000000000E+00 -0.00000000000E+00 -0.26838831188E+03  0.26838831188E+03  0.00000000000E+00 0.  1.
         25    1    1    2    0    0  0.00000000000E+00  0.00000000000E+00 -0.25383384052E+03  0.28294278325E+03  0.12500000000E+03 0.  0.
<mgrwt>
<rscale>  2 0.12500000E+03</rscale>
<asrwt>0</asrwt>
<pdfrwt beam="1">  1       21 0.22391497E-02 0.12500000E+03</pdfrwt>
<pdfrwt beam="2">  1       21 0.41290505E-01 0.12500000E+03</pdfrwt>
<totfact> 0.56904172E+06</totfact>
</mgrwt>
</event>
<event>
 3    0  0.1368989E+001  0.1250000E+03  0.7546771E-02  0.1235069E+00
         21   -1    0    0  502  501  0.00000000000E+00  0.00000000000E+00  0.29519194678E+01  0.29519194678E+01  0.00000000000E+00 0. -1.
         21   -1    0    0  501  502 -0.00000000000E+00 -0.00000000000E+00 -0.13232915202E+04  0.13232915202E+04  0.00000000000E+00 0. -1.
         25    1    1    2    0    0  0.00000000000E+00  0.00000000000E+00 -0.13203396007E+04  0.13262434397E+04  0.12500000000E+03 0.  0.
<mgrwt>
<rscale>  2 0.12500000E+03</rscale>
<asrwt>0</asrwt>
<pdfrwt beam="1">  1       21 0.45414162E-03 0.12500000E+03</pdfrwt>
<pdfrwt beam="2">  1       21 0.20358324E+00 0.12500000E+03</pdfrwt>
<totfact> 0.16787640E+06</totfact>
</mgrwt>
</event>
<event>
 3    0  0.1699326E+001  0.1250000E+03  0.7546771E-02  0.1235069E+00
         21   -1    0    0  502  501  0.00000000000E+00  0.00000000000E+00  0.39685794309E+02  0.39685794309E+02  0.00000000000E+00 0.  1.
         21   -1    0    0  501  502 -0.00000000000E+00 -0.00000000000E+00 -0.98429427154E+02  0.98429427154E+02  0.00000000000E+00 0.  1.
         25    1    1    2    0    0  0.00000000000E+00  0.00000000000E+00 -0.58743632845E+02  0.13811522146E+03  0.12500000000E+03 0.  0.
<mgrwt>
<rscale>  2 0.12500000E+03</rscale>
<asrwt>0</asrwt>
<pdfrwt beam="1">  1       21 0.61055068E-02 0.12500000E+03</pdfrwt>
<pdfrwt beam="2">  1       21 0.15142989E-01 0.12500000E+03</pdfrwt>
<totfact> 0.72286327E+06</totfact>
</mgrwt>
</event>
<event>
 3    0  0.1572879E+001  0.1250000E+03  0.7546771E-02  0.1235069E+00
         21   -1    0    0  502  501  0.00000000000E+00  0.00000000000E+00  0.24969077944E+03  0.24969077944E+03  0.00000000000E+00 0. -1.
         21   -1    0    0  501  502 -0.00000000000E+00 -0.00000000000E+00 -0.15644350219E+02  0.15644350219E+02  0.00000000000E+00 0. -1.
         25    1    1    2    0    0  0.00000000000E+00  0.00000000000E+00  0.23404642922E+03  0.26533512966E+03  0.12500000000E+03 0.  0.
<mgrwt>
<rscale>  2 0.12500000E+03</rscale>
<asrwt>0</asrwt>
<pdfrwt beam="1">  1       21 0.38413963E-01 0.12500000E+03</pdfrwt>
<pdfrwt beam="2">  1       21 0.24068233E-02 0.12500000E+03</pdfrwt>
<totfact> 0.58463705E+06</totfact>
</mgrwt>
</event>
<event>
 3    0  0.1480719E+001  0.1250000E+03  0.7546771E-02  0.1235069E+00
         21   -1    0    0  502  501  0.00000000000E+00  0.00000000000E+00  0.90595293873E+01  0.90595293873E+01  0.00000000000E+00 0.  1.
         21   -1    0    0  501  502 -0.00000000000E+00 -0.00000000000E+00 -0.43117581863E+03  0.43117581863E+03  0.00000000000E+00 0.  1.
         25    1    1    2    0    0  0.00000000000E+00  0.00000000000E+00 -0.42211628925E+03  0.44023534802E+03  0.12500000000E+03 0.  0.
<mgrwt>
<rscale>  2 0.12500000E+03</rscale>
<asrwt>0</asrwt>
<pdfrwt beam="1">  1       21 0.13937742E-02 0.12500000E+03</pdfrwt>
<pdfrwt beam="2">  1       21 0.66334720E-01 0.12500000E+03</pdfrwt>
<totfact> 0.45482275E+06</totfact>
</mgrwt>
</event>
<event>
 3    0  0.1460717E+001  0.1250000E+03  0.7546771E-02  0.1235069E+00
         21   -1    0    0  502  501  0.00000000000E+00  0.00000000000E+00  0.81753091320E+01  0.81753091320E+01  0.00000000000E+00 0. -1.
         21   -1    0    0  501  502 -0.00000000000E+00 -0.00000000000E+00 -0.47781067809E+03  0.47781067809E+03  0.00000000000E+00 0. -1.
         25    1    1    2    0    0  0.00000000000E+00  0.00000000000E+00 -0.46963536896E+03  0.48598598723E+03  0.12500000000E+03 0.  0.
<mgrwt>
<rscale>  2 0.12500000E+03</rscale>
<asrwt>0</asrwt>
<pdfrwt beam="1">  1       21 0.12577401E-02 0.12500000E+03</pdfrwt>
<pdfrwt beam="2">  1       21 0.73509321E-01 0.12500000E+03</pdfrwt>
<totfact> 0.42814428E+06</totfact>
</mgrwt>
</event>
<event>
 3    0  0.1446499E+001  0.1250000E+03  0.7546771E-02  0.1235069E+00
         21   -1    0    0  502  501  0.00000000000E+00  0.00000000000E+00  0.52352154144E+03  0.52352154144E+03  0.00000000000E+00 0. -1.
         21   -1    0    0  501  502 -0.00000000000E+00 -0.00000000000E+00 -0.74614885745E+01  0.74614885745E+01  0.00000000000E+00 0. -1.
         25    1    1    2    0    0  0.00000000000E+00  0.00000000000E+00  0.51606005287E+03  0.53098303002E+03  0.12500000000E+03 0.  0.
<mgrwt>
<rscale>  2 0.12500000E+03</rscale>
<asrwt>0</asrwt>
<pdfrwt beam="1">  1       21 0.80541747E-01 0.12500000E+03</pdfrwt>
<pdfrwt beam="2">  1       21 0.11479217E-02 0.12500000E+03</pdfrwt>
<totfact> 0.40412151E+06</totfact>
</mgrwt>
</event>
<event>
 3    0  0.1368989E+001  0.1250000E+03  0.7546771E-02  0.1235069E+00
         21   -1    0    0  502  501  0.00000000000E+00  0.00000000000E+00  0.99394627408E+03  0.99394627408E+03  0.00000000000E+00 0.  1.
         21   -1    0    0  501  502 -0.00000000000E+00 -0.00000000000E+00 -0.39300413934E+01  0.39300413934E+01  0.00000000000E+00 0.  1.
         25    1    1    2    0    0  0.00000000000E+00  0.00000000000E+00  0.99001623269E+03  0.99787631547E+03  0.12500000000E+03 0.  0.
<mgrwt>
<rscale>  2 0.12500000E+03</rscale>
<asrwt>0</asrwt>
<pdfrwt beam="1">  1       21 0.15291461E+00 0.12500000E+03</pdfrwt>
<pdfrwt beam="2">  1       21 0.60462254E-03 0.12500000E+03</pdfrwt>
<totfact> 0.23671841E+06</totfact>
</mgrwt>
</event>
<event>
 3    0  0.1415716E+001  0.1250000E+03  0.7546771E-02  0.1235069E+00
         21   -1    0    0  502  501  0.00000000000E+00  0.00000000000E+00  0.70905347702E+01  0.70905347702E+01  0.00000000000E+00 0.  1.
         21   -1    0    0  501  502 -0.00000000000E+00 -0.00000000000E+00 -0.55091049217E+03  0.55091049217E+03  0.00000000000E+00 0.  1.
         25    1    1    2    0    0  0.00000000000E+00  0.00000000000E+00 -0.54381995740E+03  0.55800102694E+03  0.12500000000E+03 0.  0.
<mgrwt>
<rscale>  2 0.12500000E+03</rscale>
<asrwt>0</asrwt>
<pdfrwt beam="1">  1       21 0.10908514E-02 0.12500000E+03</pdfrwt>
<pdfrwt beam="2">  1       21 0.84755465E-01 0.12500000E+03</pdfrwt>
<totfact> 0.39063584E+06</totfact>
</mgrwt>
</event>
<event>
 3    0  0.1627256E+001  0.1250000E+03  0.7546771E-02  0.1235069E+00
         21   -1    0    0  502  501  0.00000000000E+00  0.00000000000E+00  0.18840507171E+02  0.18840507171E+02  0.00000000000E+00 0.  1.
         21   -1    0    0  501  502 -0.00000000000E+00 -0.00000000000E+00 -0.20733252903E+03  0.20733252903E+03  0.00000000000E+00 0.  1.
         25    1    1    2    0    0  0.00000000000E+00  0.00000000000E+00 -0.18849202186E+03  0.22617303620E+03  0.12500000000E+03 0.  0.
<mgrwt>
<rscale>  2 0.12500000E+03</rscale>
<asrwt>0</asrwt>
<pdfrwt beam="1">  1       21 0.28985396E-02 0.12500000E+03</pdfrwt>
<pdfrwt beam="2">  1       21 0.31897312E-01 0.12500000E+03</pdfrwt>
<totfact> 0.62196902E+06</totfact>
</mgrwt>
</event>
<event>
 3    0  0.1518148E+001  0.1250000E+03  0.7546771E-02  0.1235069E+00
         21   -1    0    0  502  501  0.00000000000E+00  0.00000000000E+00  0.11476091282E+02  0.11476091282E+02  0.00000000000E+00 0. -1.
         21   -1    0    0  501  502 -0.00000000000E+00 -0.00000000000E+00 -0.34038157278E+03  0.34038157278E+03  0.00000000000E+00 0. -1.
         25    1    1    2    0    0  0.00000000000E+00  0.00000000000E+00 -0.32890548150E+03  0.35185766406E+03  0.12500000000E+03 0.  0.
<mgrwt>
<rscale>  2 0.12500000E+03</rscale>
<asrwt>0</asrwt>
<pdfrwt beam="1">  1       21 0.17655525E-02 0.12500000E+03</pdfrwt>
<pdfrwt beam="2">  1       21 0.52366396E-01 0.12500000E+03</pdfrwt>
<totfact> 0.51401530E+06</totfact>
</mgrwt>
</event>
<event>
 3    0  0.1579450E+001  0.1250000E+03  0.7546771E-02  0.1235069E+00
         21   -1    0    0  502  501  0.00000000000E+00  0.00000000000E+00  0.15802801715E+02  0.15802801715E+02  0.00000000000E+00 0. -1.
         21   -1    0    0  501  502 -0.00000000000E+00 -0.00000000000E+00 -0.24718718050E+03  0.24718718050E+03  0.00000000000E+00 0. -1.
         25    1    1    2    0    0  0.00000000000E+00  0.00000000000E+00 -0.23138437878E+03  0.26298998221E+03  0.12500000000E+03 0.  0.
<mgrwt>
<rscale>  2 0.12500000E+03</rscale>
<asrwt>0</asrwt>
<pdfrwt beam="1">  1       21 0.24312004E-02 0.12500000E+03</pdfrwt>
<pdfrwt beam="2">  1       21 0.38028795E-01 0.12500000E+03</pdfrwt>
<totfact> 0.58676303E+06</totfact>
</mgrwt>
</event>
<event>
 3    0  0.1368989E+001  0.1250000E+03  0.7546771E-02  0.1235069E+00
         21   -1    0    0  502  501  0.00000000000E+00  0.00000000000E+00  0.13774964515E+04  0.13774964515E+04  0.00000000000E+00 0.  1.
         21   -1    0    0  501  502 -0.00000000000E+00 -0.00000000000E+00 -0.28357604810E+01  0.28357604810E+01  0.00000000000E+00 0.  1.
         25    1    1    2    0    0  0.00000000000E+00  0.00000000000E+00  0.13746606910E+04  0.13803322120E+04  0.12500000000E+03 0.  0.
<mgrwt>
<rscale>  2 0.12500000E+03</rscale>
<asrwt>0</asrwt>
<pdfrwt beam="1">  1       21 0.21192200E+00 0.12500000E+03</pdfrwt>
<pdfrwt beam="2">  1       21 0.43627194E-03 0.12500000E+03</pdfrwt>
<totfact> 0.15868072E+06</totfact>
</mgrwt>
</event>
<event>
 3    0  0.1435437E+001  0.1250000E+03  0.7546771E-02  0.1235069E+00
         21   -1    0    0  502  501  0.00000000000E+00  0.00000000000E+00  0.77683155100E+01  0.77683155100E+01  0.00000000000E+00 0.  1.
         21   -1    0    0  501  502 -0.00000000000E+00 -0.00000000000E+00 -0.50284389131E+03  0.50284389131E+03  0.00000000000E+00 0.  1.
         25    1    1    2    0    0  0.00000000000E+00  0.00000000000E+00 -0.49507557580E+03  0.51061220682E+03  0.12500000000E+03 0.  0.
<mgrwt>
<rscale>  2 0.12500000E+03</rscale>
<asrwt>0</asrwt>
<pdfrwt beam="1">  1       21 0.11951249E-02 0.12500000E+03</pdfrwt>
<pdfrwt beam="2">  1       21 0.77360638E-01 0.12500000E+03</pdfrwt>
<totfact> 0.41474320E+06</totfact>
</mgrwt>
</event>
<event>
 3    0  0.1606652E+001  0.1250000E+03  0.7546771E-02  0.1235069E+00
         21   -1    0    0  502  501  0.00000000000E+00  0.00000000000E+00  0.18155983875E+02  0.18155983875E+02  0.00000000000E+00 0. -1.
         21   -1    0    0  501  502 -0.00000000000E+00 -0.00000000000E+00 -0.21514945303E+03  0.21514945303E+03  0.00000000000E+00 0. -1.
         25    1    1    2    0    0  0.00000000000E+00  0.00000000000E+00 -0.19699346916E+03  0.23330543691E+03  0.12500000000E+03 0.  0.
<mgrwt>
<rscale>  2 0.12500000E+03</rscale>
<asrwt>0</asrwt>
<pdfrwt beam="1">  1       21 0.27932285E-02 0.12500000E+03</pdfrwt>
<pdfrwt beam="2">  1       21 0.33099913E-01 0.12500000E+03</pdfrwt>
<totfact> 0.61486563E+06</totfact>
</mgrwt>
</event>
<event>
 3    0  0.1651367E+001  0.1250000E+03  0.7546771E-02  0.1235069E+00
         21   -1    0    0  502  501  0.00000000000E+00  0.00000000000E+00  0.13572439206E+03  0.13572439206E+03  0.00000000000E+00 0. -1.
         21   -1    0    0  501  502 -0.00000000000E+00 -0.00000000000E+00 -0.28780751497E+02  0.28780751497E+02  0.00000000000E+00 0. -1.
         25    1    1    2    0    0  0.00000000000E+00  0.00000000000E+00  0.10694364056E+03  0.16450514356E+03  0.12500000000E+03 0.  0.
<mgrwt>
<rscale>  2 0.12500000E+03</rscale>
<asrwt>0</asrwt>
<pdfrwt beam="1">  1       21 0.20880675E-01 0.12500000E+03</pdfrwt>
<pdfrwt beam="2">  1       21 0.44278080E-02 0.12500000E+03</pdfrwt>
<totfact> 0.68973164E+06</totfact>
</mgrwt>
</event>
<event>
 3    0  0.1687563E+001  0.1250000E+03  0.7546771E-02  0.1235069E+00
         21   -1    0    0  502  501  0.00000000000E+00  0.00000000000E+00  0.54292392807E+02  0.54292392807E+02  0.00000000000E+00 0. -1.
         21   -1    0    0  501  502 -0.00000000000E+00 -0.00000000000E+00 -0.71948385363E+02  0.71948385363E+02  0.00000000000E+00 0. -1.
         25    1    1    2    0    0  0.00000000000E+00  0.00000000000E+00 -0.17655992556E+02  0.12624077817E+03  0.12500000000E+03 0.  0.
<mgrwt>
<rscale>  2 0.12500000E+03</rscale>
<asrwt>0</asrwt>
<pdfrwt beam="1">  1       21 0.83526758E-02 0.12500000E+03</pdfrwt>
<pdfrwt beam="2">  1       21 0.11068982E-01 0.12500000E+03</pdfrwt>
<totfact> 0.73872908E+06</totfact>
</mgrwt>
</event>
<event>
 3    0  0.1476579E+001  0.1250000E+03  0.7546771E-02  0.1235069E+00
         21   -1    0    0  502  501  0.00000000000E+00  0.00000000000E+00  0.90149134461E+01  0.90149134461E+01  0.00000000000E+00 0.  1.
         21   -1    0    0  501  502 -0.00000000000E+00 -0.00000000000E+00 -0.43330976203E+03  0.43330976203E+03  0.00000000000E+00 0.  1.
         25    1    1    2    0    0  0.00000000000E+00  0.00000000000E+00 -0.42429484858E+03  0.44232467547E+03  0.12500000000E+03 0.  0.
<mgrwt>
<rscale>  2 0.12500000E+03</rscale>
<asrwt>0</asrwt>
<pdfrwt beam="1">  1       21 0.13869099E-02 0.12500000E+03</pdfrwt>
<pdfrwt beam="2">  1       21 0.66663033E-01 0.12500000E+03</pdfrwt>
<totfact> 0.45355108E+06</totfact>
</mgrwt>
</event>
<event>
 3    0  0.1654099E+001  0.1250000E+03  0.7546771E-02  0.1235069E+00
         21   -1    0    0  502  501  0.00000000000E+00  0.00000000000E+00  0.13452036122E+03  0.13452036122E+03  0.00000000000E+00 0. -1.
         21   -1    0    0  501  502 -0.00000000000E+00 -0.00000000000E+00 -0.29038354971E+02  0.29038354971E+02  0.00000000000E+00 0. -1.
         25    1    1    2    0    0  0.00000000000E+00  0.00000000000E+00  0.10548200625E+03  0.16355871619E+03  0.12500000000E+03 0.  0.
<mgrwt>
<rscale>  2 0.12500000E+03</rscale>
<asrwt>0</asrwt>
<pdfrwt beam="1">  1       21 0.20695440E-01 0.12500000E+03</pdfrwt>
<pdfrwt beam="2">  1       21 0.44674393E-02 0.12500000E+03</pdfrwt>
<totfact> 0.69087253E+06</totfact>
</mgrwt>
</event>
<event>
 3    0  0.1690340E+001  0.1250000E+03  0.7546771E-02  0.1235069E+00
         21   -1    0    0  502  501  0.00000000000E+00  0.00000000000E+00  0.35800748722E+02  0.35800748722E+02  0.00000000000E+00 0.  1.
         21   -1    0    0  501  502 -0.00000000000E+00 -0.00000000000E+00 -0.10911084654E+03  0.10911084654E+03  0.00000000000E+00 0.  1.
         25    1    1    2    0    0  0.00000000000E+00  0.00000000000E+00 -0.73310097822E+02  0.14491159527E+03  0.12500000000E+03 0.  0.
<mgrwt>
<rscale>  2 0.12500000E+03</rscale>
<asrwt>0</asrwt>
<pdfrwt beam="1">  1       21 0.55078076E-02 0.12500000E+03</pdfrwt>
<pdfrwt beam="2">  1       21 0.16786284E-01 0.12500000E+03</pdfrwt>
<totfact> 0.71404414E+06</totfact>
</mgrwt>
</event>
<event>
 3    0  0.1560040E+001  0.1250000E+03  0.7546771E-02  0.1235069E+00
         21   -1    0    0  502  501  0.00000000000E+00  0.00000000000E+00  0.12585619652E+02  0.12585619652E+02  0.00000000000E+00 0. -1.
         21   -1    0    0  501  502 -0.00000000000E+00 -0.00000000000E+00 -0.31037407040E+03  0.31037407040E+03  0.00000000000E+00 0. -1.
         25    1    1    2    0    0  0.00000000000E+00  0.00000000000E+00 -0.29778845075E+03  0.32295969006E+03  0.12500000000E+03 0.  0.
<mgrwt>
<rscale>  2 0.12500000E+03</rscale>
<asrwt>0</asrwt>
<pdfrwt beam="1">  1       21 0.19362491E-02 0.12500000E+03</pdfrwt>
<pdfrwt beam="2">  1       21 0.47749859E-01 0.12500000E+03</pdfrwt>
<totfact> 0.53599631E+06</totfact>
</mgrwt>
</event>
<event>
 3    0  0.1540213E+001  0.1250000E+03  0.7546771E-02  0.1235069E+00
         21   -1    0    0  502  501  0.00000000000E+00  0.00000000000E+00  0.30144614220E+03  0.30144614220E+03  0.00000000000E+00 0. -1.
         21   -1    0    0  501  502 -0.00000000000E+00 -0.00000000000E+00 -0.12958367858E+02  0.12958367858E+02  0.00000000000E+00 0. -1.
         25    1    1    2    0    0  0.00000000000E+00  0.00000000000E+00  0.28848777434E+03  0.31440451006E+03  0.12500000000E+03 0.  0.
<mgrwt>
<rscale>  2 0.12500000E+03</rscale>
<asrwt>0</asrwt>
<pdfrwt beam="1">  1       21 0.46376324E-01 0.12500000E+03</pdfrwt>
<pdfrwt beam="2">  1       21 0.19935953E-02 0.12500000E+03</pdfrwt>
<totfact> 0.54279759E+06</totfact>
</mgrwt>
</event>
<event>
 3    0  0.1454010E+001  0.1250000E+03  0.7546771E-02  0.1235069E+00
         21   -1    0    0  502  501  0.00000000000E+00  0.00000000000E+00  0.49444815340E+03  0.49444815340E+03  0.00000000000E+00 0.  1.
         21   -1    0    0  501  502 -0.00000000000E+00 -0.00000000000E+00 -0.79002216373E+01  0.79002216373E+01  0.00000000000E+00 0.  1.
         25    1    1    2    0    0  0.00000000000E+00  0.00000000000E+00  0.48654793176E+03  0.50234837503E+03  0.12500000000E+03 0.  0.
<mgrwt>
<rscale>  2 0.12500000E+03</rscale>
<asrwt>0</asrwt>
<pdfrwt beam="1">  1       21 0.76068923E-01 0.12500000E+03</pdfrwt>
<pdfrwt beam="2">  1       21 0.12154191E-02 0.12500000E+03</pdfrwt>
<totfact> 0.41917007E+06</totfact>
</mgrwt>
</event>
<event>
 3    0  0.1373960E+001  0.1250000E+03  0.7546771E-02  0.1235069E+00
         21   -1    0    0  502  501  0.00000000000E+00  0.00000000000E+00  0.60760228740E+03  0.60760228740E+03  0.00000000000E+00 0.  1.
         21   -1    0    0  501  502 -0.00000000000E+00 -0.00000000000E+00 -0.64289586807E+01  0.64289586807E+01  0.00000000000E+00 0.  1.
         25    1    1    2    0    0  0.00000000000E+00  0.00000000000E+00  0.60117332872E+03  0.61403124608E+03  0.12500000000E+03 0.  0.
<mgrwt>
<rscale>  2 0.12500000E+03</rscale>
<asrwt>0</asrwt>
<pdfrwt beam="1">  1       21 0.93477230E-01 0.12500000E+03</pdfrwt>
<pdfrwt beam="2">  1       21 0.98907105E-03 0.12500000E+03</pdfrwt>
<totfact> 0.36465690E+06</totfact>
</mgrwt>
</event>
<event>
 3    0  0.1368989E+001  0.1250000E+03  0.7546771E-02  0.1235069E+00
         21   -1    0    0  502  501  0.00000000000E+00  0.00000000000E+00  0.13454872610E+01  0.13454872610E+01  0.00000000000E+00 0.  1.
         21   -1    0    0  501  502 -0.00000000000E+00 -0.00000000000E+00 -0.29032233253E+04  0.29032233253E+04  0.00000000000E+00 0.  1.
         25    1    1    2    0    0  0.00000000000E+00  0.00000000000E+00 -0.29018778380E+04  0.29045688125E+04  0.12500000000E+03 0.  0.
<mgrwt>
<rscale>  2 0.12500000E+03</rscale>
<asrwt>0</asrwt>
<pdfrwt beam="1">  1       21 0.20699997E-03 0.12500000E+03</pdfrwt>
<pdfrwt beam="2">  1       21 0.44664557E+00 0.12500000E+03</pdfrwt>
<totfact> 0.20654063E+05</totfact>
</mgrwt>
</event>
<event>
 3    0  0.1445218E+001  0.1250000E+03  0.7546771E-02  0.1235069E+00
         21   -1    0    0  502  501  0.00000000000E+00  0.00000000000E+00  0.78522370634E+01  0.78522370634E+01  0.00000000000E+00 0.  1.
         21   -1    0    0  501  502 -0.00000000000E+00 -0.00000000000E+00 -0.49746969793E+03  0.49746969793E+03  0.00000000000E+00 0.  1.
         25    1    1    2    0    0  0.00000000000E+00  0.00000000000E+00 -0.48961746087E+03  0.50532193499E+03  0.12500000000E+03 0.  0.
<mgrwt>
<rscale>  2 0.12500000E+03</rscale>
<asrwt>0</asrwt>
<pdfrwt beam="1">  1       21 0.12080363E-02 0.12500000E+03</pdfrwt>
<pdfrwt beam="2">  1       21 0.76533809E-01 0.12500000E+03</pdfrwt>
<totfact> 0.41756910E+06</totfact>
</mgrwt>
</event>
<event>
 3    0  0.1617305E+001  0.1250000E+03  0.7546771E-02  0.1235069E+00
         21   -1    0    0  502  501  0.00000000000E+00  0.00000000000E+00  0.21177587807E+02  0.21177587807E+02  0.00000000000E+00 0. -1.
         21   -1    0    0  501  502 -0.00000000000E+00 -0.00000000000E+00 -0.18445207431E+03  0.18445207431E+03  0.00000000000E+00 0. -1.
         25    1    1    2    0    0  0.00000000000E+00  0.00000000000E+00 -0.16327448651E+03  0.20562966212E+03  0.12500000000E+03 0.  0.
<mgrwt>
<rscale>  2 0.12500000E+03</rscale>
<asrwt>0</asrwt>
<pdfrwt beam="1">  1       21 0.32580903E-02 0.12500000E+03</pdfrwt>
<pdfrwt beam="2">  1       21 0.28377243E-01 0.12500000E+03</pdfrwt>
<totfact> 0.64322298E+06</totfact>
</mgrwt>
</event>
<event>
 3    0  0.1712586E+001  0.1250000E+03  0.7546771E-02  0.1235069E+00
         21   -1    0    0  502  501  0.00000000000E+00  0.00000000000E+00  0.59987911505E+02  0.59987911505E+02  0.00000000000E+00 0.  1.
         21   -1    0    0  501  502 -0.00000000000E+00 -0.00000000000E+00 -0.65117286167E+02  0.65117286167E+02  0.00000000000E+00 0.  1.
         25    1    1    2    0    0  0.00000000000E+00  0.00000000000E+00 -0.51293746621E+01  0.12510519767E+03  0.12500000000E+03 0.  0.
<mgrwt>
<rscale>  2 0.12500000E+03</rscale>
<asrwt>0</asrwt>
<pdfrwt beam="1">  1       21 0.92289095E-02 0.12500000E+03</pdfrwt>
<pdfrwt beam="2">  1       21 0.10018044E-01 0.12500000E+03</pdfrwt>
<totfact> 0.74029373E+06</totfact>
</mgrwt>
</event>
<event>
 3    0  0.1688021E+001  0.1250000E+03  0.7546771E-02  0.1235069E+00
         21   -1    0    0  502  501  0.00000000000E+00  0.00000000000E+00  0.61087240020E+02  0.61087240020E+02  0.00000000000E+00 0. -1.
         21   -1    0    0  501  502 -0.00000000000E+00 -0.00000000000E+00 -0.63945432774E+02  0.63945432774E+02  0.00000000000E+00 0. -1.
         25    1    1    2    0    0  0.00000000000E+00  0.00000000000E+00 -0.28581927542E+01  0.12503267279E+03  0.12500000000E+03 0.  0.
<mgrwt>
<rscale>  2 0.12500000E+03</rscale>
<asrwt>0</asrwt>
<pdfrwt beam="1">  1       21 0.93980370E-02 0.12500000E+03</pdfrwt>
<pdfrwt beam="2">  1       21 0.98377588E-02 0.12500000E+03</pdfrwt>
<totfact> 0.74039168E+06</totfact>
</mgrwt>
</event>
<event>
 3    0  0.1709233E+001  0.1250000E+03  0.7546771E-02  0.1235069E+00
         21   -1    0    0  502  501  0.00000000000E+00  0.00000000000E+00  0.74859580588E+02  0.74859580588E+02  0.00000000000E+00 0.  1.
         21   -1    0    0  501  502 -0.00000000000E+00 -0.00000000000E+00 -0.52181029727E+02  0.52181029727E+02  0.00000000000E+00 0.  1.
         25    1    1    2    0    0  0.00000000000E+00  0.00000000000E+00  0.22678550862E+02  0.12704061031E+03  0.12500000000E+03 0.  0.
<mgrwt>
<rscale>  2 0.12500000E+03</rscale>
<asrwt>0</asrwt>
<pdfrwt beam="1">  1       21 0.11516858E-01 0.12500000E+03</pdfrwt>
<pdfrwt beam="2">  1       21 0.80278508E-02 0.12500000E+03</pdfrwt>
<totfact> 0.73763609E+06</totfact>
</mgrwt>
</event>
<event>
 3    0  0.1512962E+001  0.1250000E+03  0.7546771E-02  0.1235069E+00
         21   -1    0    0  502  501  0.00000000000E+00  0.00000000000E+00  0.94161496272E+01  0.94161496272E+01  0.00000000000E+00 0.  1.
         21   -1    0    0  501  502 -0.00000000000E+00 -0.00000000000E+00 -0.41484578672E+03  0.41484578672E+03  0.00000000000E+00 0.  1.
         25    1    1    2    0    0  0.00000000000E+00  0.00000000000E+00 -0.40542963709E+03  0.42426193635E+03  0.12500000000E+03 0.  0.
<mgrwt>
<rscale>  2 0.12500000E+03</rscale>
<asrwt>0</asrwt>
<pdfrwt beam="1">  1       21 0.14486382E-02 0.12500000E+03</pdfrwt>
<pdfrwt beam="2">  1       21 0.63822437E-01 0.12500000E+03</pdfrwt>
<totfact> 0.46472642E+06</totfact>
</mgrwt>
</event>
<event>
 3    0  0.1648983E+001  0.1250000E+03  0.7546771E-02  0.1235069E+00
         21   -1    0    0  502  501  0.00000000000E+00  0.00000000000E+00  0.18077647548E+03  0.18077647548E+03  0.00000000000E+00 0.  1.
         21   -1    0    0  501  502 -0.00000000000E+00 -0.00000000000E+00 -0.21608176560E+02  0.21608176560E+02  0.00000000000E+00 0.  1.
         25    1    1    2    0    0  0.00000000000E+00  0.00000000000E+00  0.15916829891E+03  0.20238465204E+03  0.12500000000E+03 0.  0.
<mgrwt>
<rscale>  2 0.12500000E+03</rscale>
<asrwt>0</asrwt>
<pdfrwt beam="1">  1       21 0.27811764E-01 0.12500000E+03</pdfrwt>
<pdfrwt beam="2">  1       21 0.33243350E-02 0.12500000E+03</pdfrwt>
<totfact> 0.64669772E+06</totfact>
</mgrwt>
</event>
<event>
 3    0  0.1633734E+001  0.1250000E+03  0.7546771E-02  0.1235069E+00
         21   -1    0    0  502  501  0.00000000000E+00  0.00000000000E+00  0.22758425808E+02  0.22758425808E+02  0.00000000000E+00 0. -1.
         21   -1    0    0  501  502 -0.00000000000E+00 -0.00000000000E+00 -0.17163972733E+03  0.17163972733E+03  0.00000000000E+00 0. -1.
         25    1    1    2    0    0  0.00000000000E+00  0.00000000000E+00 -0.14888130152E+03  0.19439815313E+03  0.12500000000E+03 0.  0.
<mgrwt>
<rscale>  2 0.12500000E+03</rscale>
<asrwt>0</asrwt>
<pdfrwt beam="1">  1       21 0.35012964E-02 0.12500000E+03</pdfrwt>
<pdfrwt beam="2">  1       21 0.26406111E-01 0.12500000E+03</pdfrwt>
<totfact> 0.65536953E+06</totfact>
</mgrwt>
</event>
<event>
 3    0  0.1582799E+001  0.1250000E+03  0.7546771E-02  0.1235069E+00
         21   -1    0    0  502  501  0.00000000000E+00  0.00000000000E+00  0.24535605622E+03  0.24535605622E+03  0.00000000000E+00 0. -1.
         21   -1    0    0  501  502 -0.00000000000E+00 -0.00000000000E+00 -0.15920740088E+02  0.15920740088E+02  0.00000000000E+00 0. -1.
         25    1    1    2    0    0  0.00000000000E+00  0.00000000000E+00  0.22943531613E+03  0.26127679631E+03  0.12500000000E+03 0.  0.
<mgrwt>
<rscale>  2 0.12500000E+03</rscale>
<asrwt>0</asrwt>
<pdfrwt beam="1">  1       21 0.37747083E-01 0.12500000E+03</pdfrwt>
<pdfrwt beam="2">  1       21 0.24493448E-02 0.12500000E+03</pdfrwt>
<totfact> 0.58832444E+06</totfact>
</mgrwt>
</event>
<event>
 3    0  0.1489072E+001  0.1250000E+03  0.7546771E-02  0.1235069E+00
         21   -1    0    0  502  501  0.00000000000E+00  0.00000000000E+00  0.91503435551E+01  0.91503435551E+01  0.00000000000E+00 0.  1.
         21   -1    0    0  501  502 -0.00000000000E+00 -0.00000000000E+00 -0.42689653962E+03  0.42689653962E+03  0.00000000000E+00 0.  1.
         25    1    1    2    0    0  0.00000000000E+00  0.00000000000E+00 -0.41774619606E+03  0.43604688317E+03  0.12500000000E+03 0.  0.
<mgrwt>
<rscale>  2 0.12500000E+03</rscale>
<asrwt>0</asrwt>
<pdfrwt beam="1">  1       21 0.14077454E-02 0.12500000E+03</pdfrwt>
<pdfrwt beam="2">  1       21 0.65676382E-01 0.12500000E+03</pdfrwt>
<totfact> 0.45738828E+06</totfact>
</mgrwt>
</event>
<event>
 3    0  0.1608126E+001  0.1250000E+03  0.7546771E-02  0.1235069E+00
         21   -1    0    0  502  501  0.00000000000E+00  0.00000000000E+00  0.18997445636E+02  0.18997445636E+02  0.00000000000E+00 0. -1.
         21   -1    0    0  501  502 -0.00000000000E+00 -0.00000000000E+00 -0.20561974882E+03  0.20561974882E+03  0.00000000000E+00 0. -1.
         25    1    1    2    0    0  0.00000000000E+00  0.00000000000E+00 -0.18662230319E+03  0.22461719446E+03  0.12500000000E+03 0.  0.
<mgrwt>
<rscale>  2 0.12500000E+03</rscale>
<asrwt>0</asrwt>
<pdfrwt beam="1">  1       21 0.29226839E-02 0.12500000E+03</pdfrwt>
<pdfrwt beam="2">  1       21 0.31633808E-01 0.12500000E+03</pdfrwt>
<totfact> 0.62353690E+06</totfact>
</mgrwt>
</event>
<event>
 3    0  0.1530384E+001  0.1250000E+03  0.7546771E-02  0.1235069E+00
         21   -1    0    0  502  501  0.00000000000E+00  0.00000000000E+00  0.12054156854E+02  0.12054156854E+02  0.00000000000E+00 0. -1.
         21   -1    0    0  501  502 -0.00000000000E+00 -0.00000000000E+00 -0.32405833502E+03  0.32405833502E+03  0.00000000000E+00 0. -1.
         25    1    1    2    0    0  0.00000000000E+00  0.00000000000E+00 -0.31200417816E+03  0.33611249187E+03  0.12500000000E+03 0.  0.
<mgrwt>
<rscale>  2 0.12500000E+03</rscale>
<asrwt>0</asrwt>
<pdfrwt beam="1">  1       21 0.18544855E-02 0.12500000E+03</pdfrwt>
<pdfrwt beam="2">  1       21 0.49855133E-01 0.12500000E+03</pdfrwt>
<totfact> 0.52580707E+06</totfact>
</mgrwt>
</event>
<event>
 3    0  0.1704419E+001  0.1250000E+03  0.7546771E-02  0.1235069E+00
         21   -1    0    0  502  501  0.00000000000E+00  0.00000000000E+00  0.95970539084E+02  0.95970539084E+02  0.00000000000E+00 0.  1.
         21   -1    0    0  501  502 -0.00000000000E+00 -0.00000000000E+00 -0.40702595164E+02  0.40702595164E+02  0.00000000000E+00 0.  1.
         25    1    1    2    0    0  0.00000000000E+00  0.00000000000E+00  0.55267943921E+02  0.13667313425E+03  0.12500000000E+03 0.  0.
<mgrwt>
<rscale>  2 0.12500000E+03</rscale>
<asrwt>0</asrwt>
<pdfrwt beam="1">  1       21 0.14764698E-01 0.12500000E+03</pdfrwt>
<pdfrwt beam="2">  1       21 0.62619377E-02 0.12500000E+03</pdfrwt>
<totfact> 0.72475688E+06</totfact>
</mgrwt>
</event>
<event>
 3    0  0.1711714E+001  0.1250000E+03  0.7546771E-02  0.1235069E+00
         21   -1    0    0  502  501  0.00000000000E+00  0.00000000000E+00  0.51451000153E+02  0.51451000153E+02  0.00000000000E+00 0.  1.
         21   -1    0    0  501  502 -0.00000000000E+00 -0.00000000000E+00 -0.75921750567E+02  0.75921750567E+02  0.00000000000E+00 0.  1.
         25    1    1    2    0    0  0.00000000000E+00  0.00000000000E+00 -0.24470750414E+02  0.12737275072E+03  0.12500000000E+03 0.  0.
<mgrwt>
<rscale>  2 0.12500000E+03</rscale>
<asrwt>0</asrwt>
<pdfrwt beam="1">  1       21 0.79155385E-02 0.12500000E+03</pdfrwt>
<pdfrwt beam="2">  1       21 0.11680269E-01 0.12500000E+03</pdfrwt>
<totfact> 0.73718477E+06</totfact>
</mgrwt>
</event>
<event>
 3    0  0.1607115E+001  0.1250000E+03  0.7546771E-02  0.1235069E+00
         21   -1    0    0  502  501  0.00000000000E+00  0.00000000000E+00  0.17495704753E+02  0.17495704753E+02  0.00000000000E+00 0. -1.
         21   -1    0    0  501  502 -0.00000000000E+00 -0.00000000000E+00 -0.22326908548E+03  0.22326908548E+03  0.00000000000E+00 0. -1.
         25    1    1    2    0    0  0.00000000000E+00  0.00000000000E+00 -0.20577338073E+03  0.24076479023E+03  0.12500000000E+03 0.  0.
<mgrwt>
<rscale>  2 0.12500000E+03</rscale>
<asrwt>0</asrwt>
<pdfrwt beam="1">  1       21 0.26916471E-02 0.12500000E+03</pdfrwt>
<pdfrwt beam="2">  1       21 0.34349088E-01 0.12500000E+03</pdfrwt>
<totfact> 0.60758735E+06</totfact>
</mgrwt>
</event>
<event>
 3    0  0.1560267E+001  0.1250000E+03  0.7546771E-02  0.1235069E+00
         21   -1    0    0  502  501  0.00000000000E+00  0.00000000000E+00  0.30243990303E+03  0.30243990303E+03  0.00000000000E+00 0.  1.
         21   -1    0    0  501  502 -0.00000000000E+00 -0.00000000000E+00 -0.12915789090E+02  0.12915789090E+02  0.00000000000E+00 0.  1.
         25    1    1    2    0    0  0.00000000000E+00  0.00000000000E+00  0.28952411394E+03  0.31535569212E+03  0.12500000000E+03 0.  0.
<mgrwt>
<rscale>  2 0.12500000E+03</rscale>
<asrwt>0</asrwt>
<pdfrwt beam="1">  1       21 0.46529210E-01 0.12500000E+03</pdfrwt>
<pdfrwt beam="2">  1       21 0.19870447E-02 0.12500000E+03</pdfrwt>
<totfact> 0.54203447E+06</totfact>
</mgrwt>
</event>
<event>
 3    0  0.1659613E+001  0.1250000E+03  0.7546771E-02  0.1235069E+00
         21   -1    0    0  502  501  0.00000000000E+00  0.00000000000E+00  0.22117505046E+02  0.22117505046E+02  0.00000000000E+00 0.  1.
         21   -1    0    0  501  502 -0.00000000000E+00 -0.00000000000E+00 -0.17661350102E+03  0.17661350102E+03  0.00000000000E+00 0.  1.
         25    1    1    2    0    0  0.00000000000E+00  0.00000000000E+00 -0.15449599598E+03  0.19873100607E+03  0.12500000000E+03 0.  0.
<mgrwt>
<rscale>  2 0.12500000E+03</rscale>
<asrwt>0</asrwt>
<pdfrwt beam="1">  1       21 0.34026929E-02 0.12500000E+03</pdfrwt>
<pdfrwt beam="2">  1       21 0.27171309E-01 0.12500000E+03</pdfrwt>
<totfact> 0.65064969E+06</totfact>
</mgrwt>
</event>
<event>
 3    0  0.1685971E+001  0.1250000E+03  0.7546771E-02  0.1235069E+00
         21   -1    0    0  502  501  0.00000000000E+00  0.00000000000E+00  0.52879931011E+02  0.52879931011E+02  0.00000000000E+00 0. -1.
         21   -1    0    0  501  502 -0.00000000000E+00 -0.00000000000E+00 -0.73870179580E+02  0.73870179580E+02  0.00000000000E+00 0. -1.
         25    1    1    2    0    0  0.00000000000E+00  0.00000000000E+00 -0.20990248569E+02  0.12675011059E+03  0.12500000000E+03 0.  0.
<mgrwt>
<rscale>  2 0.12500000E+03</rscale>
<asrwt>0</asrwt>
<pdfrwt beam="1">  1       21 0.81353740E-02 0.12500000E+03</pdfrwt>
<pdfrwt beam="2">  1       21 0.11364643E-01 0.12500000E+03</pdfrwt>
<totfact> 0.73803195E+06</totfact>
</mgrwt>
</event>
<event>
 3    0  0.1589501E+001  0.1250000E+03  0.7546771E-02  0.1235069E+00
         21   -1    0    0  502  501  0.00000000000E+00  0.00000000000E+00  0.22207440687E+03  0.22207440687E+03  0.00000000000E+00 0. -1.
         21   -1    0    0  501  502 -0.00000000000E+00 -0.00000000000E+00 -0.17589825208E+02  0.17589825208E+02  0.00000000000E+00 0. -1.
         25    1    1    2    0    0  0.00000000000E+00  0.00000000000E+00  0.20448458166E+03  0.23966423208E+03  0.12500000000E+03 0.  0.
<mgrwt>
<rscale>  2 0.12500000E+03</rscale>
<asrwt>0</asrwt>
<pdfrwt beam="1">  1       21 0.34165291E-01 0.12500000E+03</pdfrwt>
<pdfrwt beam="2">  1       21 0.27061271E-02 0.12500000E+03</pdfrwt>
<totfact> 0.60865170E+06</totfact>
</mgrwt>
</event>
<event>
 3    0  0.1687628E+001  0.1250000E+03  0.7546771E-02  0.1235069E+00
         21   -1    0    0  502  501  0.00000000000E+00  0.00000000000E+00  0.58385295500E+02  0.58385295500E+02  0.00000000000E+00 0. -1.
         21   -1    0    0  501  502 -0.00000000000E+00 -0.00000000000E+00 -0.66904688356E+02  0.66904688356E+02  0.00000000000E+00 0. -1.
         25    1    1    2    0    0  0.00000000000E+00  0.00000000000E+00 -0.85193928561E+01  0.12528998386E+03  0.12500000000E+03 0.  0.
<mgrwt>
<rscale>  2 0.12500000E+03</rscale>
<asrwt>0</asrwt>
<pdfrwt beam="1">  1       21 0.89823532E-02 0.12500000E+03</pdfrwt>
<pdfrwt beam="2">  1       21 0.10293029E-01 0.12500000E+03</pdfrwt>
<totfact> 0.74004424E+06</totfact>
</mgrwt>
</event>
<event>
 3    0  0.1697037E+001  0.1250000E+03  0.7546771E-02  0.1235069E+00
         21   -1    0    0  502  501  0.00000000000E+00  0.00000000000E+00  0.11264718555E+03  0.11264718555E+03  0.00000000000E+00 0.  1.
         21   -1    0    0  501  502 -0.00000000000E+00 -0.00000000000E+00 -0.34676853940E+02  0.34676853940E+02  0.00000000000E+00 0.  1.
         25    1    1    2    0    0  0.00000000000E+00  0.00000000000E+00  0.77970331608E+02  0.14732403949E+03  0.12500000000E+03 0.  0.
<mgrwt>
<rscale>  2 0.12500000E+03</rscale>
<asrwt>0</asrwt>
<pdfrwt beam="1">  1       21 0.17330336E-01 0.12500000E+03</pdfrwt>
<pdfrwt beam="2">  1       21 0.53349006E-02 0.12500000E+03</pdfrwt>
<totfact> 0.71096991E+06</totfact>
</mgrwt>
</event>
<event>
 3    0  0.1368989E+001  0.1250000E+03  0.7546771E-02  0.1235069E+00
         21   -1    0    0  502  501  0.00000000000E+00  0.00000000000E+00  0.88796103799E+03  0.88796103799E+03  0.00000000000E+00 0. -1.
         21   -1    0    0  501  502 -0.00000000000E+00 -0.00000000000E+00 -0.43991231967E+01  0.43991231967E+01  0.00000000000E+00 0. -1.
         25    1    1    2    0    0  0.00000000000E+00  0.00000000000E+00  0.88356191479E+03  0.89236016119E+03  0.12500000000E+03 0.  0.
<mgrwt>
<rscale>  2 0.12500000E+03</rscale>
<asrwt>0</asrwt>
<pdfrwt beam="1">  1       21 0.13660925E+00 0.12500000E+03</pdfrwt>
<pdfrwt beam="2">  1       21 0.67678889E-03 0.12500000E+03</pdfrwt>
<totfact> 0.26519635E+06</totfact>
</mgrwt>
</event>
<event>
 3    0  0.1662077E+001  0.1250000E+03  0.7546771E-02  0.1235069E+00
         21   -1    0    0  502  501  0.00000000000E+00  0.00000000000E+00  0.29798215551E+02  0.29798215551E+02  0.00000000000E+00 0. -1.
         21   -1    0    0  501  502 -0.00000000000E+00 -0.00000000000E+00 -0.13109006455E+03  0.13109006455E+03  0.00000000000E+00 0. -1.
         25    1    1    2    0    0  0.00000000000E+00  0.00000000000E+00 -0.10129184899E+03  0.16088828010E+03  0.12500000000E+03 0.  0.
<mgrwt>
<rscale>  2 0.12500000E+03</rscale>
<asrwt>0</asrwt>
<pdfrwt beam="1">  1       21 0.45843409E-02 0.12500000E+03</pdfrwt>
<pdfrwt beam="2">  1       21 0.20167702E-01 0.12500000E+03</pdfrwt>
<totfact> 0.69411120E+06</totfact>
</mgrwt>
</event>
<event>
 3    0  0.1688120E+001  0.1250000E+03  0.7546771E-02  0.1235069E+00
         21   -1    0    0  502  501  0.00000000000E+00  0.00000000000E+00  0.62326532702E+02  0.62326532702E+02  0.00000000000E+00 0. -1.
         21   -1    0    0  501  502 -0.00000000000E+00 -0.00000000000E+00 -0.62673950093E+02  0.62673950093E+02  0.00000000000E+00 0. -1.
         25    1    1    2    0    0  0.00000000000E+00  0.00000000000E+00 -0.34741739097E+00  0.12500048279E+03  0.12500000000E+03 0.  0.
<mgrwt>
<rscale>  2 0.12500000E+03</rscale>
<asrwt>0</asrwt>
<pdfrwt beam="1">  1       21 0.95886974E-02 0.12500000E+03</pdfrwt>
<pdfrwt beam="2">  1       21 0.96421462E-02 0.12500000E+03</pdfrwt>
<totfact> 0.74043516E+06</totfact>
</mgrwt>
</event>
<event>
 3    0  0.1619853E+001  0.1250000E+03  0.7546771E-02  0.1235069E+00
         21   -1    0    0  502  501  0.00000000000E+00  0.00000000000E+00  0.20479306863E+02  0.20479306863E+02  0.00000000000E+00 0. -1.
         21   -1    0    0  501  502 -0.00000000000E+00 -0.00000000000E+00 -0.19074131884E+03  0.19074131884E+03  0.00000000000E+00 0. -1.
         25    1    1    2    0    0  0.00000000000E+00  0.00000000000E+00 -0.17026201198E+03  0.21122062570E+03  0.12500000000E+03 0.  0.
<mgrwt>
<rscale>  2 0.12500000E+03</rscale>
<asrwt>0</asrwt>
<pdfrwt beam="1">  1       21 0.31506625E-02 0.12500000E+03</pdfrwt>
<pdfrwt beam="2">  1       21 0.29344819E-01 0.12500000E+03</pdfrwt>
<totfact> 0.63731340E+06</totfact>
</mgrwt>
</event>
<event>
 3    0  0.1380218E+001  0.1250000E+03  0.7546771E-02  0.1235069E+00
         21   -1    0    0  502  501  0.00000000000E+00  0.00000000000E+00  0.60795082714E+01  0.60795082714E+01  0.00000000000E+00 0.  1.
         21   -1    0    0  501  502 -0.00000000000E+00 -0.00000000000E+00 -0.64252729425E+03  0.64252729425E+03  0.00000000000E+00 0.  1.
         25    1    1    2    0    0  0.00000000000E+00  0.00000000000E+00 -0.63644778597E+03  0.64860680252E+03  0.12500000000E+03 0.  0.
<mgrwt>
<rscale>  2 0.12500000E+03</rscale>
<asrwt>0</asrwt>
<pdfrwt beam="1">  1       21 0.93530918E-03 0.12500000E+03</pdfrwt>
<pdfrwt beam="2">  1       21 0.98850330E-01 0.12500000E+03</pdfrwt>
<totfact> 0.34982547E+06</totfact>
</mgrwt>
</event>
<event>
 3    0  0.1594654E+001  0.1250000E+03  0.7546771E-02  0.1235069E+00
         21   -1    0    0  502  501  0.00000000000E+00  0.00000000000E+00  0.28709389607E+03  0.28709389607E+03  0.00000000000E+00 0.  1.
         21   -1    0    0  501  502 -0.00000000000E+00 -0.00000000000E+00 -0.13606175727E+02  0.13606175727E+02  0.00000000000E+00 0.  1.
         25    1    1    2    0    0  0.00000000000E+00  0.00000000000E+00  0.27348772034E+03  0.30070007180E+03  0.12500000000E+03 0.  0.
<mgrwt>
<rscale>  2 0.12500000E+03</rscale>
<asrwt>0</asrwt>
<pdfrwt beam="1">  1       21 0.44168287E-01 0.12500000E+03</pdfrwt>
<pdfrwt beam="2">  1       21 0.20932580E-02 0.12500000E+03</pdfrwt>
<totfact> 0.55398047E+06</totfact>
</mgrwt>
</event>
<event>
 3    0  0.1520106E+001  0.1250000E+03  0.7546771E-02  0.1235069E+00
         21   -1    0    0  502  501  0.00000000000E+00  0.00000000000E+00  0.33985988824E+03  0.33985988824E+03  0.00000000000E+00 0. -1.
         21   -1    0    0  501  502 -0.00000000000E+00 -0.00000000000E+00 -0.11493707069E+02  0.11493707069E+02  0.00000000000E+00 0. -1.
         25    1    1    2    0    0  0.00000000000E+00  0.00000000000E+00  0.32836618117E+03  0.35135359531E+03  0.12500000000E+03 0.  0.
<mgrwt>
<rscale>  2 0.12500000E+03</rscale>
<asrwt>0</asrwt>
<pdfrwt beam="1">  1       21 0.52286129E-01 0.12500000E+03</pdfrwt>
<pdfrwt beam="2">  1       21 0.17682629E-02 0.12500000E+03</pdfrwt>
<totfact> 0.51438623E+06</totfact>
</mgrwt>
</event>
<event>
 3    0  0.1645096E+001  0.1250000E+03  0.7546771E-02  0.1235069E+00
         21   -1    0    0  502  501  0.00000000000E+00  0.00000000000E+00  0.23410791289E+02  0.23410791289E+02  0.00000000000E+00 0. -1.
         21   -1    0    0  501  502 -0.00000000000E+00 -0.00000000000E+00 -0.16685681197E+03  0.16685681197E+03  0.00000000000E+00 0. -1.
         25    1    1    2    0    0  0.00000000000E+00  0.00000000000E+00 -0.14344602068E+03  0.19026760325E+03  0.12500000000E+03 0.  0.
<mgrwt>
<rscale>  2 0.12500000E+03</rscale>
<asrwt>0</asrwt>
<pdfrwt beam="1">  1       21 0.36016602E-02 0.12500000E+03</pdfrwt>
<pdfrwt beam="2">  1       21 0.25670279E-01 0.12500000E+03</pdfrwt>
<totfact> 0.65992735E+06</totfact>
</mgrwt>
</event>
<event>
 3    0  0.1586951E+001  0.1250000E+03  0.7546771E-02  0.1235069E+00
         21   -1    0    0  502  501  0.00000000000E+00  0.00000000000E+00  0.27551281912E+03  0.27551281912E+03  0.00000000000E+00 0.  1.
         21   -1    0    0  501  502 -0.00000000000E+00 -0.00000000000E+00 -0.14178106168E+02  0.14178106168E+02  0.00000000000E+00 0.  1.
         25    1    1    2    0    0  0.00000000000E+00  0.00000000000E+00  0.26133471295E+03  0.28969092528E+03  0.12500000000E+03 0.  0.
<mgrwt>
<rscale>  2 0.12500000E+03</rscale>
<asrwt>0</asrwt>
<pdfrwt beam="1">  1       21 0.42386583E-01 0.12500000E+03</pdfrwt>
<pdfrwt beam="2">  1       21 0.21812473E-02 0.12500000E+03</pdfrwt>
<totfact> 0.56323931E+06</totfact>
</mgrwt>
</event>
<event>
 3    0  0.1595187E+001  0.1250000E+03  0.7546771E-02  0.1235069E+00
         21   -1    0    0  502  501  0.00000000000E+00  0.00000000000E+00  0.24987025509E+03  0.24987025509E+03  0.00000000000E+00 0.  1.
         21   -1    0    0  501  502 -0.00000000000E+00 -0.00000000000E+00 -0.15633113268E+02  0.15633113268E+02  0.00000000000E+00 0.  1.
         25    1    1    2    0    0  0.00000000000E+00  0.00000000000E+00  0.23423714182E+03  0.26550336836E+03  0.12500000000E+03 0.  0.
<mgrwt>
<rscale>  2 0.12500000E+03</rscale>
<asrwt>0</asrwt>
<pdfrwt beam="1">  1       21 0.38441575E-01 0.12500000E+03</pdfrwt>
<pdfrwt beam="2">  1       21 0.24050945E-02 0.12500000E+03</pdfrwt>
<totfact> 0.58448503E+06</totfact>
</mgrwt>
</event>
<event>
 3    0  0.1637028E+001  0.1250000E+03  0.7546771E-02  0.1235069E+00
         21   -1    0    0  502  501  0.00000000000E+00  0.00000000000E+00  0.17594376472E+03  0.17594376472E+03  0.00000000000E+00 0. -1.
         21   -1    0    0  501  502 -0.00000000000E+00 -0.00000000000E+00 -0.22201696128E+02  0.22201696128E+02  0.00000000000E+00 0. -1.
         25    1    1    2    0    0  0.00000000000E+00  0.00000000000E+00  0.15374206860E+03  0.19814546085E+03  0.12500000000E+03 0.  0.
<mgrwt>
<rscale>  2 0.12500000E+03</rscale>
<asrwt>0</asrwt>
<pdfrwt beam="1">  1       21 0.27068271E-01 0.12500000E+03</pdfrwt>
<pdfrwt beam="2">  1       21 0.34156457E-02 0.12500000E+03</pdfrwt>
<totfact> 0.65128395E+06</totfact>
</mgrwt>
</event>
<event>
 3    0  0.1518921E+001  0.1250000E+03  0.7546771E-02  0.1235069E+00
         21   -1    0    0  502  501  0.00000000000E+00  0.00000000000E+00  0.37464867951E+03  0.37464867951E+03  0.00000000000E+00 0.  1.
         21   -1    0    0  501  502 -0.00000000000E+00 -0.00000000000E+00 -0.10426434720E+02  0.10426434720E+02  0.00000000000E+00 0.  1.
         25    1    1    2    0    0  0.00000000000E+00  0.00000000000E+00  0.36422224479E+03  0.38507511424E+03  0.12500000000E+03 0.  0.
<mgrwt>
<rscale>  2 0.12500000E+03</rscale>
<asrwt>0</asrwt>
<pdfrwt beam="1">  1       21 0.57638248E-01 0.12500000E+03</pdfrwt>
<pdfrwt beam="2">  1       21 0.16040672E-02 0.12500000E+03</pdfrwt>
<totfact> 0.49047321E+06</totfact>
</mgrwt>
</event>
<event>
 3    0  0.1685722E+001  0.1250000E+03  0.7546771E-02  0.1235069E+00
         21   -1    0    0  502  501  0.00000000000E+00  0.00000000000E+00  0.54893429160E+02  0.54893429160E+02  0.00000000000E+00 0. -1.
         21   -1    0    0  501  502 -0.00000000000E+00 -0.00000000000E+00 -0.71160611748E+02  0.71160611748E+02  0.00000000000E+00 0. -1.
         25    1    1    2    0    0  0.00000000000E+00  0.00000000000E+00 -0.16267182587E+02  0.12605404091E+03  0.12500000000E+03 0.  0.
<mgrwt>
<rscale>  2 0.12500000E+03</rscale>
<asrwt>0</asrwt>
<pdfrwt beam="1">  1       21 0.84451430E-02 0.12500000E+03</pdfrwt>
<pdfrwt beam="2">  1       21 0.10947786E-01 0.12500000E+03</pdfrwt>
<totfact> 0.73898591E+06</totfact>
</mgrwt>
</event>
<event>
 3    0  0.1621439E+001  0.1250000E+03  0.7546771E-02  0.1235069E+00
         21   -1    0    0  502  501  0.00000000000E+00  0.00000000000E+00  0.20551117241E+02  0.20551117241E+02  0.00000000000E+00 0. -1.
         21   -1    0    0  501  502 -0.00000000000E+00 -0.00000000000E+00 -0.19007482436E+03  0.19007482436E+03  0.00000000000E+00 0. -1.
         25    1    1    2    0    0  0.00000000000E+00  0.00000000000E+00 -0.16952370711E+03  0.21062594160E+03  0.12500000000E+03 0.  0.
<mgrwt>
<rscale>  2 0.12500000E+03</rscale>
<asrwt>0</asrwt>
<pdfrwt beam="1">  1       21 0.31617103E-02 0.12500000E+03</pdfrwt>
<pdfrwt beam="2">  1       21 0.29242281E-01 0.12500000E+03</pdfrwt>
<totfact> 0.63793739E+06</totfact>
</mgrwt>
</event>
<event>
 3    0  0.1600904E+001  0.1250000E+03  0.7546771E-02  0.1235069E+00
         21   -1    0    0  502  501  0.00000000000E+00  0.00000000000E+00  0.23753614370E+03  0.23753614370E+03  0.00000000000E+00 0. -1.
         21   -1    0    0  501  502 -0.00000000000E+00 -0.00000000000E+00 -0.16444865776E+02  0.16444865776E+02  0.00000000000E+00 0. -1.
         25    1    1    2    0    0  0.00000000000E+00  0.00000000000E+00  0.22109127792E+03  0.25398100948E+03  0.12500000000E+03 0.  0.
<mgrwt>
<rscale>  2 0.12500000E+03</rscale>
<asrwt>0</asrwt>
<pdfrwt beam="1">  1       21 0.36544020E-01 0.12500000E+03</pdfrwt>
<pdfrwt beam="2">  1       21 0.25299795E-02 0.12500000E+03</pdfrwt>
<totfact> 0.59505396E+06</totfact>
</mgrwt>
</event>
<event>
 3    0  0.1530919E+001  0.1250000E+03  0.7546771E-02  0.1235069E+00
         21   -1    0    0  502  501  0.00000000000E+00  0.00000000000E+00  0.30572547782E+03  0.30572547782E+03  0.00000000000E+00 0. -1.
         21   -1    0    0  501  502 -0.00000000000E+00 -0.00000000000E+00 -0.12776985510E+02  0.12776985510E+02  0.00000000000E+00 0. -1.
         25    1    1    2    0    0  0.00000000000E+00  0.00000000000E+00  0.29294849231E+03  0.31850246333E+03  0.12500000000E+03 0.  0.
<mgrwt>
<rscale>  2 0.12500000E+03</rscale>
<asrwt>0</asrwt>
<pdfrwt beam="1">  1       21 0.47034683E-01 0.12500000E+03</pdfrwt>
<pdfrwt beam="2">  1       21 0.19656903E-02 0.12500000E+03</pdfrwt>
<totfact> 0.53952231E+06</totfact>
</mgrwt>
</event>
<event>
 3    0  0.1579502E+001  0.1250000E+03  0.7546771E-02  0.1235069E+00
         21   -1    0    0  502  501  0.00000000000E+00  0.00000000000E+00  0.27879246015E+03  0.27879246015E+03  0.00000000000E+00 0.  1.
         21   -1    0    0  501  502 -0.00000000000E+00 -0.00000000000E+00 -0.14011318663E+02  0.14011318663E+02  0.00000000000E+00 0.  1.
         25    1    1    2    0    0  0.00000000000E+00  0.00000000000E+00  0.26478114148E+03  0.29280377881E+03  0.12500000000E+03 0.  0.
<mgrwt>
<rscale>  2 0.12500000E+03</rscale>
<asrwt>0</asrwt>
<pdfrwt beam="1">  1       21 0.42891144E-01 0.12500000E+03</pdfrwt>
<pdfrwt beam="2">  1       21 0.21555877E-02 0.12500000E+03</pdfrwt>
<totfact> 0.56059562E+06</totfact>
</mgrwt>
</event>
<event>
 3    0  0.1670228E+001  0.1250000E+03  0.7546771E-02  0.1235069E+00
         21   -1    0    0  502  501  0.00000000000E+00  0.00000000000E+00  0.25049562428E+02  0.25049562428E+02  0.00000000000E+00 0.  1.
         21   -1    0    0  501  502 -0.00000000000E+00 -0.00000000000E+00 -0.15594084772E+03  0.15594084772E+03  0.00000000000E+00 0.  1.
         25    1    1    2    0    0  0.00000000000E+00  0.00000000000E+00 -0.13089128529E+03  0.18099041014E+03  0.12500000000E+03 0.  0.
<mgrwt>
<rscale>  2 0.12500000E+03</rscale>
<asrwt>0</asrwt>
<pdfrwt beam="1">  1       21 0.38537788E-02 0.12500000E+03</pdfrwt>
<pdfrwt beam="2">  1       21 0.23990900E-01 0.12500000E+03</pdfrwt>
<totfact> 0.67038101E+06</totfact>
</mgrwt>
</event>
<event>
 3    0  0.1485874E+001  0.1250000E+03  0.7546771E-02  0.1235069E+00
         21   -1    0    0  502  501  0.00000000000E+00  0.00000000000E+00  0.39686179357E+03  0.39686179357E+03  0.00000000000E+00 0. -1.
         21   -1    0    0  501  502 -0.00000000000E+00 -0.00000000000E+00 -0.98428472160E+01  0.98428472160E+01  0.00000000000E+00 0. -1.
         25    1    1    2    0    0  0.00000000000E+00  0.00000000000E+00  0.38701894636E+03  0.40670464079E+03  0.12500000000E+03 0.  0.
<mgrwt>
<rscale>  2 0.12500000E+03</rscale>
<asrwt>0</asrwt>
<pdfrwt beam="1">  1       21 0.61055648E-01 0.12500000E+03</pdfrwt>
<pdfrwt beam="2">  1       21 0.15142845E-02 0.12500000E+03</pdfrwt>
<totfact> 0.47599801E+06</totfact>
</mgrwt>
</event>
<event>
 3    0  0.1682794E+001  0.1250000E+03  0.7546771E-02  0.1235069E+00
         21   -1    0    0  502  501  0.00000000000E+00  0.00000000000E+00  0.41521423818E+02  0.41521423818E+02  0.00000000000E+00 0. -1.
         21   -1    0    0  501  502 -0.00000000000E+00 -0.00000000000E+00 -0.94077939550E+02  0.94077939550E+02  0.00000000000E+00 0. -1.
         25    1    1    2    0    0  0.00000000000E+00  0.00000000000E+00 -0.52556515732E+02  0.13559936337E+03  0.12500000000E+03 0.  0.
<mgrwt>
<rscale>  2 0.12500000E+03</rscale>
<asrwt>0</asrwt>
<pdfrwt beam="1">  1       21 0.63879114E-02 0.12500000E+03</pdfrwt>
<pdfrwt beam="2">  1       21 0.14473529E-01 0.12500000E+03</pdfrwt>
<totfact> 0.72617210E+06</totfact>
</mgrwt>
</event>
<event>
 3    0  0.1615863E+001  0.1250000E+03  0.7546771E-02  0.1235069E+00
         21   -1    0    0  502  501  0.00000000000E+00  0.00000000000E+00  0.18483336565E+03  0.18483336565E+03  0.00000000000E+00 0. -1.
         21   -1    0    0  501  502 -0.00000000000E+00 -0.00000000000E+00 -0.21133900723E+02  0.21133900723E+02  0.00000000000E+00 0. -1.
         25    1    1    2    0    0  0.00000000000E+00  0.00000000000E+00  0.16369946493E+03  0.20596726638E+03  0.12500000000E+03 0.  0.
<mgrwt>
<rscale>  2 0.12500000E+03</rscale>
<asrwt>0</asrwt>
<pdfrwt beam="1">  1       21 0.28435901E-01 0.12500000E+03</pdfrwt>
<pdfrwt beam="2">  1       21 0.32513695E-02 0.12500000E+03</pdfrwt>
<totfact> 0.64286339E+06</totfact>
</mgrwt>
</event>
<event>
 3    0  0.1685693E+001  0.1250000E+03  0.7546771E-02  0.1235069E+00
         21   -1    0    0  502  501  0.00000000000E+00  0.00000000000E+00  0.50402383675E+02  0.50402383675E+02  0.00000000000E+00 0. -1.
         21   -1    0    0  501  502 -0.00000000000E+00 -0.00000000000E+00 -0.77501294883E+02  0.77501294883E+02  0.00000000000E+00 0. -1.
         25    1    1    2    0    0  0.00000000000E+00  0.00000000000E+00 -0.27098911208E+02  0.12790367856E+03  0.12500000000E+03 0.  0.
<mgrwt>
<rscale>  2 0.12500000E+03</rscale>
<asrwt>0</asrwt>
<pdfrwt beam="1">  1       21 0.77542129E-02 0.12500000E+03</pdfrwt>
<pdfrwt beam="2">  1       21 0.11923276E-01 0.12500000E+03</pdfrwt>
<totfact> 0.73646575E+06</totfact>
</mgrwt>
</event>
<event>
 3    0  0.1432177E+001  0.1250000E+03  0.7546771E-02  0.1235069E+00
         21   -1    0    0  502  501  0.00000000000E+00  0.00000000000E+00  0.53151222674E+03  0.53151222674E+03  0.00000000000E+00 0. -1.
         21   -1    0    0  501  502 -0.00000000000E+00 -0.00000000000E+00 -0.73493135313E+01  0.73493135313E+01  0.00000000000E+00 0. -1.
         25    1    1    2    0    0  0.00000000000E+00  0.00000000000E+00  0.52416291321E+03  0.53886154027E+03  0.12500000000E+03 0.  0.
<mgrwt>
<rscale>  2 0.12500000E+03</rscale>
<asrwt>0</asrwt>
<pdfrwt beam="1">  1       21 0.81771082E-01 0.12500000E+03</pdfrwt>
<pdfrwt beam="2">  1       21 0.11306640E-02 0.12500000E+03</pdfrwt>
<totfact> 0.40012022E+06</totfact>
</mgrwt>
</event>
<event>
 3    0  0.1368989E+001  0.1250000E+03  0.7546771E-02  0.1235069E+00
         21   -1    0    0  502  501  0.00000000000E+00  0.00000000000E+00  0.93268083596E+03  0.93268083596E+03  0.00000000000E+00 0.  1.
         21   -1    0    0  501  502 -0.00000000000E+00 -0.00000000000E+00 -0.41881958430E+01  0.41881958430E+01  0.00000000000E+00 0.  1.
         25    1    1    2    0    0  0.00000000000E+00  0.00000000000E+00  0.92849264012E+03  0.93686903180E+03  0.12500000000E+03 0.  0.
<mgrwt>
<rscale>  2 0.12500000E+03</rscale>
<asrwt>0</asrwt>
<pdfrwt beam="1">  1       21 0.14348919E+00 0.12500000E+03</pdfrwt>
<pdfrwt beam="2">  1       21 0.64433856E-03 0.12500000E+03</pdfrwt>
<totfact> 0.25266328E+06</totfact>
</mgrwt>
</event>
<event>
 3    0  0.1566536E+001  0.1250000E+03  0.7546771E-02  0.1235069E+00
         21   -1    0    0  502  501  0.00000000000E+00  0.00000000000E+00  0.13714450177E+02  0.13714450177E+02  0.00000000000E+00 0.  1.
         21   -1    0    0  501  502 -0.00000000000E+00 -0.00000000000E+00 -0.28482731350E+03  0.28482731350E+03  0.00000000000E+00 0.  1.
         25    1    1    2    0    0  0.00000000000E+00  0.00000000000E+00 -0.27111286332E+03  0.29854176368E+03  0.12500000000E+03 0.  0.
<mgrwt>
<rscale>  2 0.12500000E+03</rscale>
<asrwt>0</asrwt>
<pdfrwt beam="1">  1       21 0.21099154E-02 0.12500000E+03</pdfrwt>
<pdfrwt beam="2">  1       21 0.43819586E-01 0.12500000E+03</pdfrwt>
<totfact> 0.55577577E+06</totfact>
</mgrwt>
</event>
<event>
 3    0  0.1495684E+001  0.1250000E+03  0.7546771E-02  0.1235069E+00
         21   -1    0    0  502  501  0.00000000000E+00  0.00000000000E+00  0.96787841575E+01  0.96787841575E+01  0.00000000000E+00 0.  1.
         21   -1    0    0  501  502 -0.00000000000E+00 -0.00000000000E+00 -0.40358891535E+03  0.40358891535E+03  0.00000000000E+00 0.  1.
         25    1    1    2    0    0  0.00000000000E+00  0.00000000000E+00 -0.39391013119E+03  0.41326769950E+03  0.12500000000E+03 0.  0.
<mgrwt>
<rscale>  2 0.12500000E+03</rscale>
<asrwt>0</asrwt>
<pdfrwt beam="1">  1       21 0.14890438E-02 0.12500000E+03</pdfrwt>
<pdfrwt beam="2">  1       21 0.62090600E-01 0.12500000E+03</pdfrwt>
<totfact> 0.47173593E+06</totfact>
</mgrwt>
</event>
<event>
 3    0  0.1673848E+001  0.1250000E+03  0.7546771E-02  0.1235069E+00
         21   -1    0    0  502  501  0.00000000000E+00  0.00000000000E+00  0.28634163160E+02  0.28634163160E+02  0.00000000000E+00 0.  1.
         21   -1    0    0  501  502 -0.00000000000E+00 -0.00000000000E+00 -0.13641921289E+03  0.13641921289E+03  0.00000000000E+00 0.  1.
         25    1    1    2    0    0  0.00000000000E+00  0.00000000000E+00 -0.10778504973E+03  0.16505337605E+03  0.12500000000E+03 0.  0.
<mgrwt>
<rscale>  2 0.12500000E+03</rscale>
<asrwt>0</asrwt>
<pdfrwt beam="1">  1       21 0.44052560E-02 0.12500000E+03</pdfrwt>
<pdfrwt beam="2">  1       21 0.20987571E-01 0.12500000E+03</pdfrwt>
<totfact> 0.68907240E+06</totfact>
</mgrwt>
</event>
<event>
 3    0  0.1687622E+001  0.1250000E+03  0.7546771E-02  0.1235069E+00
         21   -1    0    0  502  501  0.00000000000E+00  0.00000000000E+00  0.75596065561E+02  0.75596065561E+02  0.00000000000E+00 0. -1.
         21   -1    0    0  501  502 -0.00000000000E+00 -0.00000000000E+00 -0.51672662737E+02  0.51672662737E+02  0.00000000000E+00 0. -1.
         25    1    1    2    0    0  0.00000000000E+00  0.00000000000E+00  0.23923402824E+02  0.12726872830E+03  0.12500000000E+03 0.  0.
<mgrwt>
<rscale>  2 0.12500000E+03</rscale>
<asrwt>0</asrwt>
<pdfrwt beam="1">  1       21 0.11630164E-01 0.12500000E+03</pdfrwt>
<pdfrwt beam="2">  1       21 0.79496404E-02 0.12500000E+03</pdfrwt>
<totfact> 0.73732598E+06</totfact>
</mgrwt>
</event>
<event>
 3    0  0.1630819E+001  0.1250000E+03  0.7546771E-02  0.1235069E+00
         21   -1    0    0  502  501  0.00000000000E+00  0.00000000000E+00  0.19583290188E+03  0.19583290188E+03  0.00000000000E+00 0.  1.
         21   -1    0    0  501  502 -0.00000000000E+00 -0.00000000000E+00 -0.19946852457E+02  0.19946852457E+02  0.00000000000E+00 0.  1.
         25    1    1    2    0    0  0.00000000000E+00  0.00000000000E+00  0.17588604942E+03  0.21577975434E+03  0.12500000000E+03 0.  0.
<mgrwt>
<rscale>  2 0.12500000E+03</rscale>
<asrwt>0</asrwt>
<pdfrwt beam="1">  1       21 0.30128137E-01 0.12500000E+03</pdfrwt>
<pdfrwt beam="2">  1       21 0.30687467E-02 0.12500000E+03</pdfrwt>
<totfact> 0.63256524E+06</totfact>
</mgrwt>
</event>
<event>
 3    0  0.1682326E+001  0.1250000E+03  0.7546771E-02  0.1235069E+00
         21   -1    0    0  502  501  0.00000000000E+00  0.00000000000E+00  0.94718979670E+02  0.94718979670E+02  0.00000000000E+00 0. -1.
         21   -1    0    0  501  502 -0.00000000000E+00 -0.00000000000E+00 -0.41240414684E+02  0.41240414684E+02  0.00000000000E+00 0. -1.
         25    1    1    2    0    0  0.00000000000E+00  0.00000000000E+00  0.53478564986E+02  0.13595939435E+03  0.12500000000E+03 0.  0.
<mgrwt>
<rscale>  2 0.12500000E+03</rscale>
<asrwt>0</asrwt>
<pdfrwt beam="1">  1       21 0.14572151E-01 0.12500000E+03</pdfrwt>
<pdfrwt beam="2">  1       21 0.63446792E-02 0.12500000E+03</pdfrwt>
<totfact> 0.72569690E+06</totfact>
</mgrwt>
</event>
<event>
 3    0  0.1437040E+001  0.1250000E+03  0.7546771E-02  0.1235069E+00
         21   -1    0    0  502  501  0.00000000000E+00  0.00000000000E+00  0.83046639918E+01  0.83046639918E+01  0.00000000000E+00 0. -1.
         21   -1    0    0  501  502 -0.00000000000E+00 -0.00000000000E+00 -0.47036821765E+03  0.47036821765E+03  0.00000000000E+00 0. -1.
         25    1    1    2    0    0  0.00000000000E+00  0.00000000000E+00 -0.46206355366E+03  0.47867288164E+03  0.12500000000E+03 0.  0.
<mgrwt>
<rscale>  2 0.12500000E+03</rscale>
<asrwt>0</asrwt>
<pdfrwt beam="1">  1       21 0.12776410E-02 0.12500000E+03</pdfrwt>
<pdfrwt beam="2">  1       21 0.72364320E-01 0.12500000E+03</pdfrwt>
<totfact> 0.43224825E+06</totfact>
</mgrwt>
</event>
<event>
 3    0  0.1435113E+001  0.1250000E+03  0.7546771E-02  0.1235069E+00
         21   -1    0    0  502  501  0.00000000000E+00  0.00000000000E+00  0.79445625793E+01  0.79445625793E+01  0.00000000000E+00 0. -1.
         21   -1    0    0  501  502 -0.00000000000E+00 -0.00000000000E+00 -0.49168849273E+03  0.49168849273E+03  0.00000000000E+00 0. -1.
         25    1    1    2    0    0  0.00000000000E+00  0.00000000000E+00 -0.48374393015E+03  0.49963305531E+03  0.12500000000E+03 0.  0.
<mgrwt>
<rscale>  2 0.12500000E+03</rscale>
<asrwt>0</asrwt>
<pdfrwt beam="1">  1       21 0.12222400E-02 0.12500000E+03</pdfrwt>
<pdfrwt beam="2">  1       21 0.75644409E-01 0.12500000E+03</pdfrwt>
<totfact> 0.42063969E+06</totfact>
</mgrwt>
</event>
<event>
 3    0  0.1639232E+001  0.1250000E+03  0.7546771E-02  0.1235069E+00
         21   -1    0    0  502  501  0.00000000000E+00  0.00000000000E+00  0.15306944104E+03  0.15306944104E+03  0.00000000000E+00 0. -1.
         21   -1    0    0  501  502 -0.00000000000E+00 -0.00000000000E+00 -0.25519463411E+02  0.25519463411E+02  0.00000000000E+00 0. -1.
         25    1    1    2    0    0  0.00000000000E+00  0.00000000000E+00  0.12754997763E+03  0.17858890445E+03  0.12500000000E+03 0.  0.
<mgrwt>
<rscale>  2 0.12500000E+03</rscale>
<asrwt>0</asrwt>
<pdfrwt beam="1">  1       21 0.23549144E-01 0.12500000E+03</pdfrwt>
<pdfrwt beam="2">  1       21 0.39260714E-02 0.12500000E+03</pdfrwt>
<totfact> 0.67313783E+06</totfact>
</mgrwt>
</event>
<event>
 3    0  0.1634562E+001  0.1250000E+03  0.7546771E-02  0.1235069E+00
         21   -1    0    0  502  501  0.00000000000E+00  0.00000000000E+00  0.24264644099E+02  0.24264644099E+02  0.00000000000E+00 0. -1.
         21   -1    0    0  501  502 -0.00000000000E+00 -0.00000000000E+00 -0.16098525839E+03  0.16098525839E+03  0.00000000000E+00 0. -1.
         25    1    1    2    0    0  0.00000000000E+00  0.00000000000E+00 -0.13672061429E+03  0.18524990249E+03  0.12500000000E+03 0.  0.
<mgrwt>
<rscale>  2 0.12500000E+03</rscale>
<asrwt>0</asrwt>
<pdfrwt beam="1">  1       21 0.37330221E-02 0.12500000E+03</pdfrwt>
<pdfrwt beam="2">  1       21 0.24766963E-01 0.12500000E+03</pdfrwt>
<totfact> 0.66554327E+06</totfact>
</mgrwt>
</event>
<event>
 3    0  0.1368989E+001  0.1250000E+03  0.7546771E-02  0.1235069E+00
         21   -1    0    0  502  501  0.00000000000E+00  0.00000000000E+00  0.68473586687E+03  0.68473586687E+03  0.00000000000E+00 0. -1.
         21   -1    0    0  501  502 -0.00000000000E+00 -0.00000000000E+00 -0.57047544739E+01  0.57047544739E+01  0.00000000000E+00 0. -1.
         25    1    1    2    0    0  0.00000000000E+00  0.00000000000E+00  0.67903111240E+03  0.69044062135E+03  0.12500000000E+03 0.  0.
<mgrwt>
<rscale>  2 0.12500000E+03</rscale>
<asrwt>0</asrwt>
<pdfrwt beam="1">  1       21 0.10534391E+00 0.12500000E+03</pdfrwt>
<pdfrwt beam="2">  1       21 0.87765508E-03 0.12500000E+03</pdfrwt>
<totfact> 0.33281973E+06</totfact>
</mgrwt>
</event>
<event>
 3    0  0.1493652E+001  0.1250000E+03  0.7546771E-02  0.1235069E+00
         21   -1    0    0  502  501  0.00000000000E+00  0.00000000000E+00  0.96544039344E+01  0.96544039344E+01  0.00000000000E+00 0.  1.
         21   -1    0    0  501  502 -0.00000000000E+00 -0.00000000000E+00 -0.40460809663E+03  0.40460809663E+03  0.00000000000E+00 0.  1.
         25    1    1    2    0    0  0.00000000000E+00  0.00000000000E+00 -0.39495369269E+03  0.41426250056E+03  0.12500000000E+03 0.  0.
<mgrwt>
<rscale>  2 0.12500000E+03</rscale>
<asrwt>0</asrwt>
<pdfrwt beam="1">  1       21 0.14852929E-02 0.12500000E+03</pdfrwt>
<pdfrwt beam="2">  1       21 0.62247401E-01 0.12500000E+03</pdfrwt>
<totfact> 0.47109502E+06</totfact>
</mgrwt>
</event>
<event>
 3    0  0.1551139E+001  0.1250000E+03  0.7546771E-02  0.1235069E+00
         21   -1    0    0  502  501  0.00000000000E+00  0.00000000000E+00  0.31475711527E+03  0.31475711527E+03  0.00000000000E+00 0. -1.
         21   -1    0    0  501  502 -0.00000000000E+00 -0.00000000000E+00 -0.12410362818E+02  0.12410362818E+02  0.00000000000E+00 0. -1.
         25    1    1    2    0    0  0.00000000000E+00  0.00000000000E+00  0.30234675245E+03  0.32716747809E+03  0.12500000000E+03 0.  0.
<mgrwt>
<rscale>  2 0.12500000E+03</rscale>
<asrwt>0</asrwt>
<pdfrwt beam="1">  1       21 0.48424165E-01 0.12500000E+03</pdfrwt>
<pdfrwt beam="2">  1       21 0.19092868E-02 0.12500000E+03</pdfrwt>
<totfact> 0.53270203E+06</totfact>
</mgrwt>
</event>
<event>
 3    0  0.1368989E+001  0.1250000E+03  0.7546771E-02  0.1235069E+00
         21   -1    0    0  502  501  0.00000000000E+00  0.00000000000E+00  0.22976166784E+01  0.22976166784E+01  0.00000000000E+00 0. -1.
         21   -1    0    0  501  502 -0.00000000000E+00 -0.00000000000E+00 -0.17001312868E+04  0.17001312868E+04  0.00000000000E+00 0. -1.
         25    1    1    2    0    0  0.00000000000E+00  0.00000000000E+00 -0.16978336701E+04  0.17024289034E+04  0.12500000000E+03 0.  0.
<mgrwt>
<rscale>  2 0.12500000E+03</rscale>
<asrwt>0</asrwt>
<pdfrwt beam="1">  1       21 0.35348089E-03 0.12500000E+03</pdfrwt>
<pdfrwt beam="2">  1       21 0.26155762E+00 0.12500000E+03</pdfrwt>
<totfact> 0.11239501E+06</totfact>
</mgrwt>
</event>
<event>
 3    0  0.1631855E+001  0.1250000E+03  0.7546771E-02  0.1235069E+00
         21   -1    0    0  502  501  0.00000000000E+00  0.00000000000E+00  0.21903503302E+02  0.21903503302E+02  0.00000000000E+00 0. -1.
         21   -1    0    0  501  502 -0.00000000000E+00 -0.00000000000E+00 -0.17833905135E+03  0.17833905135E+03  0.00000000000E+00 0. -1.
         25    1    1    2    0    0  0.00000000000E+00  0.00000000000E+00 -0.15643554804E+03  0.20024255465E+03  0.12500000000E+03 0.  0.
<mgrwt>
<rscale>  2 0.12500000E+03</rscale>
<asrwt>0</asrwt>
<pdfrwt beam="1">  1       21 0.33697697E-02 0.12500000E+03</pdfrwt>
<pdfrwt beam="2">  1       21 0.27436777E-01 0.12500000E+03</pdfrwt>
<totfact> 0.64900979E+06</totfact>
</mgrwt>
</event>
<event>
 3    0  0.1368989E+001  0.1250000E+03  0.7546771E-02  0.1235069E+00
         21   -1    0    0  502  501  0.00000000000E+00  0.00000000000E+00  0.17826759963E+01  0.17826759963E+01  0.00000000000E+00 0.  1.
         21   -1    0    0  501  502 -0.00000000000E+00 -0.00000000000E+00 -0.21912282480E+04  0.21912282480E+04  0.00000000000E+00 0.  1.
         25    1    1    2    0    0  0.00000000000E+00  0.00000000000E+00 -0.21894455720E+04  0.21930109240E+04  0.12500000000E+03 0.  0.
<mgrwt>
<rscale>  2 0.12500000E+03</rscale>
<asrwt>0</asrwt>
<pdfrwt beam="1">  1       21 0.27425705E-03 0.12500000E+03</pdfrwt>
<pdfrwt beam="2">  1       21 0.33711301E+00 0.12500000E+03</pdfrwt>
<totfact> 0.62145629E+05</totfact>
</mgrwt>
</event>
<event>
 3    0  0.1475614E+001  0.1250000E+03  0.7546771E-02  0.1235069E+00
         21   -1    0    0  502  501  0.00000000000E+00  0.00000000000E+00  0.42269688209E+03  0.42269688209E+03  0.00000000000E+00 0. -1.
         21   -1    0    0  501  502 -0.00000000000E+00 -0.00000000000E+00 -0.92412557687E+01  0.92412557687E+01  0.00000000000E+00 0. -1.
         25    1    1    2    0    0  0.00000000000E+00  0.00000000000E+00  0.41345562632E+03  0.43193813785E+03  0.12500000000E+03 0.  0.
<mgrwt>
<rscale>  2 0.12500000E+03</rscale>
<asrwt>0</asrwt>
<pdfrwt beam="1">  1       21 0.65030275E-01 0.12500000E+03</pdfrwt>
<pdfrwt beam="2">  1       21 0.14217320E-02 0.12500000E+03</pdfrwt>
<totfact> 0.45992652E+06</totfact>
</mgrwt>
</event>
<event>
 3    0  0.1695663E+001  0.1250000E+03  0.7546771E-02  0.1235069E+00
         21   -1    0    0  502  501  0.00000000000E+00  0.00000000000E+00  0.10641908914E+03  0.10641908914E+03  0.00000000000E+00 0.  1.
         21   -1    0    0  501  502 -0.00000000000E+00 -0.00000000000E+00 -0.36706290493E+02  0.36706290493E+02  0.00000000000E+00 0.  1.
         25    1    1    2    0    0  0.00000000000E+00  0.00000000000E+00  0.69712798648E+02  0.14312537963E+03  0.12500000000E+03 0.  0.
<mgrwt>
<rscale>  2 0.12500000E+03</rscale>
<asrwt>0</asrwt>
<pdfrwt beam="1">  1       21 0.16372167E-01 0.12500000E+03</pdfrwt>
<pdfrwt beam="2">  1       21 0.56471216E-02 0.12500000E+03</pdfrwt>
<totfact> 0.71633877E+06</totfact>
</mgrwt>
</event>
<event>
 3    0  0.1712394E+001  0.1250000E+03  0.7546771E-02  0.1235069E+00
         21   -1    0    0  502  501  0.00000000000E+00  0.00000000000E+00  0.64746439855E+02  0.64746439855E+02  0.00000000000E+00 0.  1.
         21   -1    0    0  501  502 -0.00000000000E+00 -0.00000000000E+00 -0.60331502531E+02  0.60331502531E+02  0.00000000000E+00 0.  1.
         25    1    1    2    0    0  0.00000000000E+00  0.00000000000E+00  0.44149373235E+01  0.12507794239E+03  0.12500000000E+03 0.  0.
<mgrwt>
<rscale>  2 0.12500000E+03</rscale>
<asrwt>0</asrwt>
<pdfrwt beam="1">  1       21 0.99609908E-02 0.12500000E+03</pdfrwt>
<pdfrwt beam="2">  1       21 0.92817696E-02 0.12500000E+03</pdfrwt>
<totfact> 0.74033054E+06</totfact>
</mgrwt>
</event>
<event>
 3    0  0.1700237E+001  0.1250000E+03  0.7546771E-02  0.1235069E+00
         21   -1    0    0  502  501  0.00000000000E+00  0.00000000000E+00  0.38731200796E+02  0.38731200796E+02  0.00000000000E+00 0.  1.
         21   -1    0    0  501  502 -0.00000000000E+00 -0.00000000000E+00 -0.10085538067E+03  0.10085538067E+03  0.00000000000E+00 0.  1.
         25    1    1    2    0    0  0.00000000000E+00  0.00000000000E+00 -0.62124179872E+02  0.13958658146E+03  0.12500000000E+03 0.  0.
<mgrwt>
<rscale>  2 0.12500000E+03</rscale>
<asrwt>0</asrwt>
<pdfrwt beam="1">  1       21 0.59586463E-02 0.12500000E+03</pdfrwt>
<pdfrwt beam="2">  1       21 0.15516212E-01 0.12500000E+03</pdfrwt>
<totfact> 0.72093325E+06</totfact>
</mgrwt>
</event>
<event>
 3    0  0.1368989E+001  0.1250000E+03  0.7546771E-02  0.1235069E+00
         21   -1    0    0  502  501  0.00000000000E+00  0.00000000000E+00  0.26303184235E+01  0.26303184235E+01  0.00000000000E+00 0.  1.
         21   -1    0    0  501  502 -0.00000000000E+00 -0.00000000000E+00 -0.14850863550E+04  0.14850863550E+04  0.00000000000E+00 0.  1.
         25    1    1    2    0    0  0.00000000000E+00  0.00000000000E+00 -0.14824560366E+04  0.14877166734E+04  0.12500000000E+03 0.  0.
<mgrwt>
<rscale>  2 0.12500000E+03</rscale>
<asrwt>0</asrwt>
<pdfrwt beam="1">  1       21 0.40466444E-03 0.12500000E+03</pdfrwt>
<pdfrwt beam="2">  1       21 0.22847479E+00 0.12500000E+03</pdfrwt>
<totfact> 0.14176419E+06</totfact>
</mgrwt>
</event>
<event>
 3    0  0.1395834E+001  0.1250000E+03  0.7546771E-02  0.1235069E+00
         21   -1    0    0  502  501  0.00000000000E+00  0.00000000000E+00  0.57853466746E+01  0.57853466746E+01  0.00000000000E+00 0.  1.
         21   -1    0    0  501  502 -0.00000000000E+00 -0.00000000000E+00 -0.67519722148E+03  0.67519722148E+03  0.00000000000E+00 0.  1.
         25    1    1    2    0    0  0.00000000000E+00  0.00000000000E+00 -0.66941187481E+03  0.68098256816E+03  0.12500000000E+03 0.  0.
<mgrwt>
<rscale>  2 0.12500000E+03</rscale>
<asrwt>0</asrwt>
<pdfrwt beam="1">  1       21 0.89005389E-03 0.12500000E+03</pdfrwt>
<pdfrwt beam="2">  1       21 0.10387643E+00 0.12500000E+03</pdfrwt>
<totfact> 0.33656323E+06</totfact>
</mgrwt>
</event>
<event>
 3    0  0.1637152E+001  0.1250000E+03  0.7546771E-02  0.1235069E+00
         21   -1    0    0  502  501  0.00000000000E+00  0.00000000000E+00  0.15395896265E+03  0.15395896265E+03  0.00000000000E+00 0. -1.
         21   -1    0    0  501  502 -0.00000000000E+00 -0.00000000000E+00 -0.25372020783E+02  0.25372020783E+02  0.00000000000E+00 0. -1.
         25    1    1    2    0    0  0.00000000000E+00  0.00000000000E+00  0.12858694186E+03  0.17933098343E+03  0.12500000000E+03 0.  0.
<mgrwt>
<rscale>  2 0.12500000E+03</rscale>
<asrwt>0</asrwt>
<pdfrwt beam="1">  1       21 0.23685994E-01 0.12500000E+03</pdfrwt>
<pdfrwt beam="2">  1       21 0.39033879E-02 0.12500000E+03</pdfrwt>
<totfact> 0.67228367E+06</totfact>
</mgrwt>
</event>
<event>
 3    0  0.1368989E+001  0.1250000E+03  0.7546771E-02  0.1235069E+00
         21   -1    0    0  502  501  0.00000000000E+00  0.00000000000E+00  0.11148351873E+04  0.11148351873E+04  0.00000000000E+00 0.  1.
         21   -1    0    0  501  502 -0.00000000000E+00 -0.00000000000E+00 -0.35038811516E+01  0.35038811516E+01  0.00000000000E+00 0.  1.
         25    1    1    2    0    0  0.00000000000E+00  0.00000000000E+00  0.11113313062E+04  0.11183390685E+04  0.12500000000E+03 0.  0.
<mgrwt>
<rscale>  2 0.12500000E+03</rscale>
<asrwt>0</asrwt>
<pdfrwt beam="1">  1       21 0.17151282E+00 0.12500000E+03</pdfrwt>
<pdfrwt beam="2">  1       21 0.53905953E-03 0.12500000E+03</pdfrwt>
<totfact> 0.20848143E+06</totfact>
</mgrwt>
</event>
<event>
 3    0  0.1686782E+001  0.1250000E+03  0.7546771E-02  0.1235069E+00
         21   -1    0    0  502  501  0.00000000000E+00  0.00000000000E+00  0.51082373934E+02  0.51082373934E+02  0.00000000000E+00 0. -1.
         21   -1    0    0  501  502 -0.00000000000E+00 -0.00000000000E+00 -0.76469625414E+02  0.76469625414E+02  0.00000000000E+00 0. -1.
         25    1    1    2    0    0  0.00000000000E+00  0.00000000000E+00 -0.25387251480E+02  0.12755199935E+03  0.12500000000E+03 0.  0.
<mgrwt>
<rscale>  2 0.12500000E+03</rscale>
<asrwt>0</asrwt>
<pdfrwt beam="1">  1       21 0.78588268E-02 0.12500000E+03</pdfrwt>
<pdfrwt beam="2">  1       21 0.11764558E-01 0.12500000E+03</pdfrwt>
<totfact> 0.73694170E+06</totfact>
</mgrwt>
</event>
<event>
 3    0  0.1368989E+001  0.1250000E+03  0.7546771E-02  0.1235069E+00
         21   -1    0    0  502  501  0.00000000000E+00  0.00000000000E+00  0.18168263309E+04  0.18168263309E+04  0.00000000000E+00 0.  1.
         21   -1    0    0  501  502 -0.00000000000E+00 -0.00000000000E+00 -0.21500403938E+01  0.21500403938E+01  0.00000000000E+00 0.  1.
         25    1    1    2    0    0  0.00000000000E+00  0.00000000000E+00  0.18146762905E+04  0.18189763713E+04  0.12500000000E+03 0.  0.
<mgrwt>
<rscale>  2 0.12500000E+03</rscale>
<asrwt>0</asrwt>
<pdfrwt beam="1">  1       21 0.27951052E+00 0.12500000E+03</pdfrwt>
<pdfrwt beam="2">  1       21 0.33077690E-03 0.12500000E+03</pdfrwt>
<totfact> 0.98533624E+05</totfact>
</mgrwt>
</event>
<event>
 3    0  0.1699541E+001  0.1250000E+03  0.7546771E-02  0.1235069E+00
         21   -1    0    0  502  501  0.00000000000E+00  0.00000000000E+00  0.98659027507E+02  0.98659027507E+02  0.00000000000E+00 0.  1.
         21   -1    0    0  501  502 -0.00000000000E+00 -0.00000000000E+00 -0.39593437101E+02  0.39593437101E+02  0.00000000000E+00 0.  1.
         25    1    1    2    0    0  0.00000000000E+00  0.00000000000E+00  0.59065590406E+02  0.13825246461E+03  0.12500000000E+03 0.  0.
<mgrwt>
<rscale>  2 0.12500000E+03</rscale>
<asrwt>0</asrwt>
<pdfrwt beam="1">  1       21 0.15178312E-01 0.12500000E+03</pdfrwt>
<pdfrwt beam="2">  1       21 0.60912981E-02 0.12500000E+03</pdfrwt>
<totfact> 0.72268274E+06</totfact>
</mgrwt>
</event>
<event>
 3    0  0.1709628E+001  0.1250000E+03  0.7546771E-02  0.1235069E+00
         21   -1    0    0  502  501  0.00000000000E+00  0.00000000000E+00  0.52342206212E+02  0.52342206212E+02  0.00000000000E+00 0.  1.
         21   -1    0    0  501  502 -0.00000000000E+00 -0.00000000000E+00 -0.74629066726E+02  0.74629066726E+02  0.00000000000E+00 0.  1.
         25    1    1    2    0    0  0.00000000000E+00  0.00000000000E+00 -0.22286860515E+02  0.12697127294E+03  0.12500000000E+03 0.  0.
<mgrwt>
<rscale>  2 0.12500000E+03</rscale>
<asrwt>0</asrwt>
<pdfrwt beam="1">  1       21 0.80526472E-02 0.12500000E+03</pdfrwt>
<pdfrwt beam="2">  1       21 0.11481395E-01 0.12500000E+03</pdfrwt>
<totfact> 0.73773047E+06</totfact>
</mgrwt>
</event>
<event>
 3    0  0.1649403E+001  0.1250000E+03  0.7546771E-02  0.1235069E+00
         21   -1    0    0  502  501  0.00000000000E+00  0.00000000000E+00  0.28578118760E+02  0.28578118760E+02  0.00000000000E+00 0. -1.
         21   -1    0    0  501  502 -0.00000000000E+00 -0.00000000000E+00 -0.13668674390E+03  0.13668674390E+03  0.00000000000E+00 0. -1.
         25    1    1    2    0    0  0.00000000000E+00  0.00000000000E+00 -0.10810862514E+03  0.16526486266E+03  0.12500000000E+03 0.  0.
<mgrwt>
<rscale>  2 0.12500000E+03</rscale>
<asrwt>0</asrwt>
<pdfrwt beam="1">  1       21 0.43966337E-02 0.12500000E+03</pdfrwt>
<pdfrwt beam="2">  1       21 0.21028730E-01 0.12500000E+03</pdfrwt>
<totfact> 0.68881841E+06</totfact>
</mgrwt>
</event>
<event>
 3    0  0.1600944E+001  0.1250000E+03  0.7546771E-02  0.1235069E+00
         21   -1    0    0  502  501  0.00000000000E+00  0.00000000000E+00  0.14484709470E+02  0.14484709470E+02  0.00000000000E+00 0.  1.
         21   -1    0    0  501  502 -0.00000000000E+00 -0.00000000000E+00 -0.26968093548E+03  0.26968093548E+03  0.00000000000E+00 0.  1.
         25    1    1    2    0    0  0.00000000000E+00  0.00000000000E+00 -0.25519622601E+03  0.28416564495E+03  0.12500000000E+03 0.  0.
<mgrwt>
<rscale>  2 0.12500000E+03</rscale>
<asrwt>0</asrwt>
<pdfrwt beam="1">  1       21 0.22284168E-02 0.12500000E+03</pdfrwt>
<pdfrwt beam="2">  1       21 0.41489376E-01 0.12500000E+03</pdfrwt>
<totfact> 0.56798289E+06</totfact>
</mgrwt>
</event>
<event>
 3    0  0.1604492E+001  0.1250000E+03  0.7546771E-02  0.1235069E+00
         21   -1    0    0  502  501  0.00000000000E+00  0.00000000000E+00  0.21567423618E+03  0.21567423618E+03  0.00000000000E+00 0. -1.
         21   -1    0    0  501  502 -0.00000000000E+00 -0.00000000000E+00 -0.18111806348E+02  0.18111806348E+02  0.00000000000E+00 0. -1.
         25    1    1    2    0    0  0.00000000000E+00  0.00000000000E+00  0.19756242984E+03  0.23378604253E+03  0.12500000000E+03 0.  0.
<mgrwt>
<rscale>  2 0.12500000E+03</rscale>
<asrwt>0</asrwt>
<pdfrwt beam="1">  1       21 0.33180650E-01 0.12500000E+03</pdfrwt>
<pdfrwt beam="2">  1       21 0.27864319E-02 0.12500000E+03</pdfrwt>
<totfact> 0.61439209E+06</totfact>
</mgrwt>
</event>
<event>
 3    0  0.1711764E+001  0.1250000E+03  0.7546771E-02  0.1235069E+00
         21   -1    0    0  502  501  0.00000000000E+00  0.00000000000E+00  0.57883173148E+02  0.57883173148E+02  0.00000000000E+00 0.  1.
         21   -1    0    0  501  502 -0.00000000000E+00 -0.00000000000E+00 -0.67485070143E+02  0.67485070143E+02  0.00000000000E+00 0.  1.
         25    1    1    2    0    0  0.00000000000E+00  0.00000000000E+00 -0.96018969953E+01  0.12536824329E+03  0.12500000000E+03 0.  0.
<mgrwt>
<rscale>  2 0.12500000E+03</rscale>
<asrwt>0</asrwt>
<pdfrwt beam="1">  1       21 0.89051036E-02 0.12500000E+03</pdfrwt>
<pdfrwt beam="2">  1       21 0.10382318E-01 0.12500000E+03</pdfrwt>
<totfact> 0.73993860E+06</totfact>
</mgrwt>
</event>
<event>
 3    0  0.1499703E+001  0.1250000E+03  0.7546771E-02  0.1235069E+00
         21   -1    0    0  502  501  0.00000000000E+00  0.00000000000E+00  0.99935447830E+01  0.99935447830E+01  0.00000000000E+00 0. -1.
         21   -1    0    0  501  502 -0.00000000000E+00 -0.00000000000E+00 -0.39087731979E+03  0.39087731979E+03  0.00000000000E+00 0. -1.
         25    1    1    2    0    0  0.00000000000E+00  0.00000000000E+00 -0.38088377501E+03  0.40087086457E+03  0.12500000000E+03 0.  0.
<mgrwt>
<rscale>  2 0.12500000E+03</rscale>
<asrwt>0</asrwt>
<pdfrwt beam="1">  1       21 0.15374685E-02 0.12500000E+03</pdfrwt>
<pdfrwt beam="2">  1       21 0.60134968E-01 0.12500000E+03</pdfrwt>
<totfact> 0.47983643E+06</totfact>
</mgrwt>
</event>
<event>
 3    0  0.1468540E+001  0.1250000E+03  0.7546771E-02  0.1235069E+00
         21   -1    0    0  502  501  0.00000000000E+00  0.00000000000E+00  0.48661930517E+03  0.48661930517E+03  0.00000000000E+00 0.  1.
         21   -1    0    0  501  502 -0.00000000000E+00 -0.00000000000E+00 -0.80273223000E+01  0.80273223000E+01  0.00000000000E+00 0.  1.
         25    1    1    2    0    0  0.00000000000E+00  0.00000000000E+00  0.47859198287E+03  0.49464662747E+03  0.12500000000E+03 0.  0.
<mgrwt>
<rscale>  2 0.12500000E+03</rscale>
<asrwt>0</asrwt>
<pdfrwt beam="1">  1       21 0.74864485E-01 0.12500000E+03</pdfrwt>
<pdfrwt beam="2">  1       21 0.12349730E-02 0.12500000E+03</pdfrwt>
<totfact> 0.42335900E+06</totfact>
</mgrwt>
</event>
<event>
 3    0  0.1489700E+001  0.1250000E+03  0.7546771E-02  0.1235069E+00
         21   -1    0    0  502  501  0.00000000000E+00  0.00000000000E+00  0.86117450214E+01  0.86117450214E+01  0.00000000000E+00 0.  1.
         21   -1    0    0  501  502 -0.00000000000E+00 -0.00000000000E+00 -0.45359564064E+03  0.45359564064E+03  0.00000000000E+00 0.  1.
         25    1    1    2    0    0  0.00000000000E+00  0.00000000000E+00 -0.44498389562E+03  0.46220738566E+03  0.12500000000E+03 0.  0.
<mgrwt>
<rscale>  2 0.12500000E+03</rscale>
<asrwt>0</asrwt>
<pdfrwt beam="1">  1       21 0.13248841E-02 0.12500000E+03</pdfrwt>
<pdfrwt beam="2">  1       21 0.69783932E-01 0.12500000E+03</pdfrwt>
<totfact> 0.44170708E+06</totfact>
</mgrwt>
</event>
<event>
 3    0  0.1379360E+001  0.1250000E+03  0.7546771E-02  0.1235069E+00
         21   -1    0    0  502  501  0.00000000000E+00  0.00000000000E+00  0.61912527039E+01  0.61912527039E+01  0.00000000000E+00 0. -1.
         21   -1    0    0  501  502 -0.00000000000E+00 -0.00000000000E+00 -0.63093047349E+03  0.63093047349E+03  0.00000000000E+00 0. -1.
         25    1    1    2    0    0  0.00000000000E+00  0.00000000000E+00 -0.62473922079E+03  0.63712172619E+03  0.12500000000E+03 0.  0.
<mgrwt>
<rscale>  2 0.12500000E+03</rscale>
<asrwt>0</asrwt>
<pdfrwt beam="1">  1       21 0.95250060E-03 0.12500000E+03</pdfrwt>
<pdfrwt beam="2">  1       21 0.97066208E-01 0.12500000E+03</pdfrwt>
<totfact> 0.35465874E+06</totfact>
</mgrwt>
</event>
