<event>
 5    0  0.1358010E+000  0.1250002E+03  0.7546771E-02  0.1235069E+00
         21   -1    0    0  503  502  0.00000000000E+00  0.00000000000E+00  0.42205153646E+03  0.42205153646E+03  0.00000000000E+00 0. -1.
         21   -1    0    0  502  503 -0.00000000000E+00 -0.00000000000E+00 -0.92554125045E+01  0.92554125045E+01  0.00000000000E+00 0. -1.
         25    2    1    2    0    0  0.00000000000E+00  0.00000000000E+00  0.41279612395E+03  0.43130694896E+03  0.12500017709E+03 0.  0.
          4    1    3    3  501    0 -0.60233773462E+02 -0.13956248436E+02  0.17534894551E+03  0.18593692352E+03  0.15500000000E+01 0. -1.
         -4    1    3    3    0  501  0.60233773462E+02  0.13956248436E+02  0.23744717844E+03  0.24537002544E+03  0.15500000000E+01 0. -1.
<mgrwt>
<rscale>  2 0.12500018E+03</rscale>
<asrwt>0</asrwt>
<pdfrwt beam="1">  1       21 0.64930991E-01 0.12500018E+03</pdfrwt>
<pdfrwt beam="2">  1       21 0.14239099E-02 0.12500018E+03</pdfrwt>
<totfact> 0.46031631E+06</totfact>
</mgrwt>
</event>
<event>
 5    0  0.1481571E+000  0.1249986E+03  0.7546771E-02  0.1235071E+00
         21   -1    0    0  503  502  0.00000000000E+00  0.00000000000E+00  0.98321529484E+02  0.98321529484E+02  0.00000000000E+00 0. -1.
         21   -1    0    0  502  503 -0.00000000000E+00 -0.00000000000E+00 -0.39728447420E+02  0.39728447420E+02  0.00000000000E+00 0. -1.
         25    2    1    2    0    0  0.00000000000E+00  0.00000000000E+00  0.58593082064E+02  0.13804997690E+03  0.12499858742E+03 0.  0.
          4    1    3    3  501    0 -0.48566698945E+02 -0.15175561388E+02  0.69341764916E+02  0.86021536673E+02  0.15500000000E+01 0. -1.
         -4    1    3    3    0  501  0.48566698945E+02  0.15175561388E+02 -0.10748682852E+02  0.52028440231E+02  0.15500000000E+01 0. -1.
<mgrwt>
<rscale>  2 0.12499859E+03</rscale>
<asrwt>0</asrwt>
<pdfrwt beam="1">  1       21 0.15126389E-01 0.12499859E+03</pdfrwt>
<pdfrwt beam="2">  1       21 0.61120689E-02 0.12499859E+03</pdfrwt>
<totfact> 0.72297515E+06</totfact>
</mgrwt>
</event>
<event>
 5    0  0.1409989E+000  0.1250016E+03  0.7546771E-02  0.1235067E+00
         21   -1    0    0  503  502  0.00000000000E+00  0.00000000000E+00  0.15858257606E+02  0.15858257606E+02  0.00000000000E+00 0.  1.
         21   -1    0    0  502  503 -0.00000000000E+00 -0.00000000000E+00 -0.24632921205E+03  0.24632921205E+03  0.00000000000E+00 0.  1.
         25    2    1    2    0    0  0.00000000000E+00  0.00000000000E+00 -0.23047095444E+03  0.26218746965E+03  0.12500163360E+03 0.  0.
          4    1    3    3  501    0  0.24019687996E+02 -0.52544925278E+02 -0.16513747045E+03  0.17495914160E+03  0.15500000000E+01 0. -1.
         -4    1    3    3    0  501 -0.24019687996E+02  0.52544925278E+02 -0.65333483988E+02  0.87228328048E+02  0.15500000000E+01 0. -1.
<mgrwt>
<rscale>  2 0.12500163E+03</rscale>
<asrwt>0</asrwt>
<pdfrwt beam="1">  1       21 0.24397322E-02 0.12500163E+03</pdfrwt>
<pdfrwt beam="2">  1       21 0.37896798E-01 0.12500163E+03</pdfrwt>
<totfact> 0.58746941E+06</totfact>
</mgrwt>
</event>
<event>
 5    0  0.1613216E+000  0.1249995E+03  0.7546771E-02  0.1235070E+00
         21   -1    0    0  503  502  0.00000000000E+00  0.00000000000E+00  0.85015979449E+02  0.85015979449E+02  0.00000000000E+00 0.  1.
         21   -1    0    0  502  503 -0.00000000000E+00 -0.00000000000E+00 -0.45946895759E+02  0.45946895759E+02  0.00000000000E+00 0.  1.
         25    2    1    2    0    0  0.00000000000E+00  0.00000000000E+00  0.39069083690E+02  0.13096287521E+03  0.12499952553E+03 0.  0.
          4    1    3    3  501    0 -0.54268288397E+02 -0.10263884094E+02 -0.11072553105E+02  0.56350673239E+02  0.15500000000E+01 0.  1.
         -4    1    3    3    0  501  0.54268288397E+02  0.10263884094E+02  0.50141636795E+02  0.74612201969E+02  0.15500000000E+01 0.  1.
<mgrwt>
<rscale>  2 0.12499953E+03</rscale>
<asrwt>0</asrwt>
<pdfrwt beam="1">  1       21 0.13079381E-01 0.12499953E+03</pdfrwt>
<pdfrwt beam="2">  1       21 0.70687532E-02 0.12499953E+03</pdfrwt>
<totfact> 0.73236561E+06</totfact>
</mgrwt>
</event>
<event>
 5    0  0.1638640E+000  0.1249972E+03  0.7546771E-02  0.1235074E+00
         21   -1    0    0  503  502  0.00000000000E+00  0.00000000000E+00  0.10975675201E+03  0.10975675201E+03  0.00000000000E+00 0. -1.
         21   -1    0    0  502  503 -0.00000000000E+00 -0.00000000000E+00 -0.35588457421E+02  0.35588457421E+02  0.00000000000E+00 0. -1.
         25    2    1    2    0    0  0.00000000000E+00  0.00000000000E+00  0.74168294588E+02  0.14534520943E+03  0.12499717590E+03 0.  0.
          4    1    3    3  501    0  0.46479379345E+02  0.39949219362E+02  0.51201281961E+02  0.79876445879E+02  0.15500000000E+01 0. -1.
         -4    1    3    3    0  501 -0.46479379345E+02 -0.39949219362E+02  0.22967012628E+02  0.65468763551E+02  0.15500000000E+01 0. -1.
<mgrwt>
<rscale>  2 0.12499718E+03</rscale>
<asrwt>0</asrwt>
<pdfrwt beam="1">  1       21 0.16885654E-01 0.12499718E+03</pdfrwt>
<pdfrwt beam="2">  1       21 0.54751473E-02 0.12499718E+03</pdfrwt>
<totfact> 0.71354081E+06</totfact>
</mgrwt>
</event>
<event>
 5    0  0.1487620E+000  0.1249977E+03  0.7546771E-02  0.1235073E+00
         21   -1    0    0  503  502  0.00000000000E+00  0.00000000000E+00  0.35824782895E+03  0.35824782895E+03  0.00000000000E+00 0. -1.
         21   -1    0    0  502  503 -0.00000000000E+00 -0.00000000000E+00 -0.10903371395E+02  0.10903371395E+02  0.00000000000E+00 0. -1.
         25    2    1    2    0    0  0.00000000000E+00  0.00000000000E+00  0.34734445756E+03  0.36915120034E+03  0.12499774607E+03 0.  0.
          4    1    3    3  501    0  0.29862567950E+00  0.55137681395E+02  0.26045261747E+03  0.26622964060E+03  0.15500000000E+01 0.  1.
         -4    1    3    3    0  501 -0.29862567950E+00 -0.55137681395E+02  0.86891840085E+02  0.10292155974E+03  0.15500000000E+01 0.  1.
<mgrwt>
<rscale>  2 0.12499775E+03</rscale>
<asrwt>0</asrwt>
<pdfrwt beam="1">  1       21 0.55115041E-01 0.12499775E+03</pdfrwt>
<pdfrwt beam="2">  1       21 0.16774420E-02 0.12499775E+03</pdfrwt>
<totfact> 0.50157254E+06</totfact>
</mgrwt>
</event>
<event>
 5    0  0.1274235E+000  0.1250003E+03  0.7546771E-02  0.1235069E+00
         21   -1    0    0  503  502  0.00000000000E+00  0.00000000000E+00  0.57331422377E+03  0.57331422377E+03  0.00000000000E+00 0.  1.
         21   -1    0    0  502  503 -0.00000000000E+00 -0.00000000000E+00 -0.68134902501E+01  0.68134902501E+01  0.00000000000E+00 0.  1.
         25    2    1    2    0    0  0.00000000000E+00  0.00000000000E+00  0.56650073352E+03  0.58012771402E+03  0.12500033398E+03 0.  0.
          4    1    3    3  501    0  0.41189017803E+02 -0.22564622049E+02  0.91999614451E+02  0.10330551251E+03  0.15500000000E+01 0. -1.
         -4    1    3    3    0  501 -0.41189017803E+02  0.22564622049E+02  0.47450111906E+03  0.47682220151E+03  0.15500000000E+01 0. -1.
<mgrwt>
<rscale>  2 0.12500033E+03</rscale>
<asrwt>0</asrwt>
<pdfrwt beam="1">  1       21 0.88202150E-01 0.12500033E+03</pdfrwt>
<pdfrwt beam="2">  1       21 0.10482297E-02 0.12500033E+03</pdfrwt>
<totfact> 0.38006727E+06</totfact>
</mgrwt>
</event>
<event>
 5    0  0.1335083E+000  0.1250246E+03  0.7546771E-02  0.1235031E+00
         21   -1    0    0  503  502  0.00000000000E+00  0.00000000000E+00  0.51648184871E+03  0.51648184871E+03  0.00000000000E+00 0. -1.
         21   -1    0    0  502  503 -0.00000000000E+00 -0.00000000000E+00 -0.75661627957E+01  0.75661627957E+01  0.00000000000E+00 0. -1.
         25    2    1    2    0    0  0.00000000000E+00  0.00000000000E+00  0.50891568591E+03  0.52404801150E+03  0.12502456956E+03 0.  0.
          4    1    3    3  501    0 -0.50978854281E+02 -0.15030605511E+02  0.39224613695E+03  0.39583354726E+03  0.15500000000E+01 0.  1.
         -4    1    3    3    0  501  0.50978854281E+02  0.15030605511E+02  0.11666954897E+03  0.12821446425E+03  0.15500000000E+01 0.  1.
<mgrwt>
<rscale>  2 0.12502457E+03</rscale>
<asrwt>0</asrwt>
<pdfrwt beam="1">  1       21 0.79458718E-01 0.12502457E+03</pdfrwt>
<pdfrwt beam="2">  1       21 0.11640254E-02 0.12502457E+03</pdfrwt>
<totfact> 0.40744312E+06</totfact>
</mgrwt>
</event>
<event>
 5    0  0.1386769E+000  0.1250599E+03  0.7546771E-02  0.1234976E+00
         21   -1    0    0  503  502  0.00000000000E+00  0.00000000000E+00  0.17273962598E+02  0.17273962598E+02  0.00000000000E+00 0. -1.
         21   -1    0    0  502  503 -0.00000000000E+00 -0.00000000000E+00 -0.22635195835E+03  0.22635195835E+03  0.00000000000E+00 0. -1.
         25    2    1    2    0    0  0.00000000000E+00  0.00000000000E+00 -0.20907799575E+03  0.24362592095E+03  0.12505990985E+03 0.  0.
          4    1    3    3  501    0  0.34943439418E+02 -0.30099169632E+02 -0.18674190944E+03  0.19235890209E+03  0.15500000000E+01 0. -1.
         -4    1    3    3    0  501 -0.34943439418E+02  0.30099169632E+02 -0.22336086306E+02  0.51267018856E+02  0.15500000000E+01 0. -1.
<mgrwt>
<rscale>  2 0.12505991E+03</rscale>
<asrwt>0</asrwt>
<pdfrwt beam="1">  1       21 0.26575327E-02 0.12505991E+03</pdfrwt>
<pdfrwt beam="2">  1       21 0.34823378E-01 0.12505991E+03</pdfrwt>
<totfact> 0.60392250E+06</totfact>
</mgrwt>
</event>
<event>
 5    0  0.1582979E+000  0.1249957E+03  0.7546771E-02  0.1235076E+00
         21   -1    0    0  503  502  0.00000000000E+00  0.00000000000E+00  0.31543377279E+02  0.31543377279E+02  0.00000000000E+00 0. -1.
         21   -1    0    0  502  503 -0.00000000000E+00 -0.00000000000E+00 -0.12382889537E+03  0.12382889537E+03  0.00000000000E+00 0. -1.
         25    2    1    2    0    0  0.00000000000E+00  0.00000000000E+00 -0.92285518087E+02  0.15537227265E+03  0.12499570496E+03 0.  0.
          4    1    3    3  501    0 -0.96695004090E+01 -0.36486714401E+02 -0.10802971590E+03  0.11444475341E+03  0.15500000000E+01 0.  1.
         -4    1    3    3    0  501  0.96695004090E+01  0.36486714401E+02  0.15744197812E+02  0.40927519235E+02  0.15500000000E+01 0.  1.
<mgrwt>
<rscale>  2 0.12499570E+03</rscale>
<asrwt>0</asrwt>
<pdfrwt beam="1">  1       21 0.48528274E-02 0.12499570E+03</pdfrwt>
<pdfrwt beam="2">  1       21 0.19050599E-01 0.12499570E+03</pdfrwt>
<totfact> 0.70097078E+06</totfact>
</mgrwt>
</event>
<event>
 5    0  0.1272815E+000  0.1250014E+03  0.7546771E-02  0.1235067E+00
         21   -1    0    0  503  502  0.00000000000E+00  0.00000000000E+00  0.52370505237E+01  0.52370505237E+01  0.00000000000E+00 0.  1.
         21   -1    0    0  502  503 -0.00000000000E+00 -0.00000000000E+00 -0.74590394789E+03  0.74590394789E+03  0.00000000000E+00 0.  1.
         25    2    1    2    0    0  0.00000000000E+00  0.00000000000E+00 -0.74066689737E+03  0.75114099842E+03  0.12500138657E+03 0.  0.
          4    1    3    3  501    0 -0.49207588930E+01  0.53953283663E+02 -0.55736527507E+03  0.55999430626E+03  0.15500000000E+01 0. -1.
         -4    1    3    3    0  501  0.49207588930E+01 -0.53953283663E+02 -0.18330162230E+03  0.19114669216E+03  0.15500000000E+01 0. -1.
<mgrwt>
<rscale>  2 0.12500139E+03</rscale>
<asrwt>0</asrwt>
<pdfrwt beam="1">  1       21 0.80570062E-03 0.12500139E+03</pdfrwt>
<pdfrwt beam="2">  1       21 0.11475438E+00 0.12500139E+03</pdfrwt>
<totfact> 0.31027720E+06</totfact>
</mgrwt>
</event>
<event>
 5    0  0.1642151E+000  0.1249961E+03  0.7546771E-02  0.1235075E+00
         21   -1    0    0  503  502  0.00000000000E+00  0.00000000000E+00  0.11380090625E+03  0.11380090625E+03  0.00000000000E+00 0. -1.
         21   -1    0    0  502  503 -0.00000000000E+00 -0.00000000000E+00 -0.34323137584E+02  0.34323137584E+02  0.00000000000E+00 0. -1.
         25    2    1    2    0    0  0.00000000000E+00  0.00000000000E+00  0.79477768662E+02  0.14812404383E+03  0.12499606653E+03 0.  0.
          4    1    3    3  501    0 -0.66257748638E+01 -0.60621694353E+02  0.55844433079E+02  0.82703651217E+02  0.15500000000E+01 0.  1.
         -4    1    3    3    0  501  0.66257748638E+01  0.60621694353E+02  0.23633335583E+02  0.65420392612E+02  0.15500000000E+01 0.  1.
<mgrwt>
<rscale>  2 0.12499607E+03</rscale>
<asrwt>0</asrwt>
<pdfrwt beam="1">  1       21 0.17507832E-01 0.12499607E+03</pdfrwt>
<pdfrwt beam="2">  1       21 0.52804828E-02 0.12499607E+03</pdfrwt>
<totfact> 0.71002768E+06</totfact>
</mgrwt>
</event>
<event>
 5    0  0.1222151E+000  0.1250035E+03  0.7546771E-02  0.1235064E+00
         21   -1    0    0  503  502  0.00000000000E+00  0.00000000000E+00  0.41262368704E+01  0.41262368704E+01  0.00000000000E+00 0. -1.
         21   -1    0    0  502  503 -0.00000000000E+00 -0.00000000000E+00 -0.94673841536E+03  0.94673841536E+03  0.00000000000E+00 0. -1.
         25    2    1    2    0    0  0.00000000000E+00  0.00000000000E+00 -0.94261217849E+03  0.95086465223E+03  0.12500347125E+03 0.  0.
          4    1    3    3  501    0 -0.59402983691E+02  0.13430749872E+02 -0.36509376981E+03  0.37014181440E+03  0.15500000000E+01 0. -1.
         -4    1    3    3    0  501  0.59402983691E+02 -0.13430749872E+02 -0.57751840868E+03  0.58072283783E+03  0.15500000000E+01 0. -1.
<mgrwt>
<rscale>  2 0.12500347E+03</rscale>
<asrwt>0</asrwt>
<pdfrwt beam="1">  1       21 0.63480635E-03 0.12500347E+03</pdfrwt>
<pdfrwt beam="2">  1       21 0.14565191E+00 0.12500347E+03</pdfrwt>
<totfact> 0.24886157E+06</totfact>
</mgrwt>
</event>
<event>
 5    0  0.1523316E+000  0.1250640E+03  0.7546771E-02  0.1234969E+00
         21   -1    0    0  503  502  0.00000000000E+00  0.00000000000E+00  0.10622023463E+03  0.10622023463E+03  0.00000000000E+00 0.  1.
         21   -1    0    0  502  503 -0.00000000000E+00 -0.00000000000E+00 -0.36812693276E+02  0.36812693276E+02  0.00000000000E+00 0.  1.
         25    2    1    2    0    0  0.00000000000E+00  0.00000000000E+00  0.69407541350E+02  0.14303292790E+03  0.12506403027E+03 0.  0.
          4    1    3    3  501    0  0.62342659471E+02 -0.24234404419E+00  0.39967731899E+02  0.74070831058E+02  0.15500000000E+01 0. -1.
         -4    1    3    3    0  501 -0.62342659471E+02  0.24234404419E+00  0.29439809451E+02  0.68962096844E+02  0.15500000000E+01 0. -1.
<mgrwt>
<rscale>  2 0.12506403E+03</rscale>
<asrwt>0</asrwt>
<pdfrwt beam="1">  1       21 0.16341574E-01 0.12506403E+03</pdfrwt>
<pdfrwt beam="2">  1       21 0.56634913E-02 0.12506403E+03</pdfrwt>
<totfact> 0.71529071E+06</totfact>
</mgrwt>
</event>
<event>
 5    0  0.1366362E+000  0.1249974E+03  0.7546771E-02  0.1235073E+00
         21   -1    0    0  503  502  0.00000000000E+00  0.00000000000E+00  0.85767456311E+01  0.85767456311E+01  0.00000000000E+00 0. -1.
         21   -1    0    0  502  503 -0.00000000000E+00 -0.00000000000E+00 -0.45542805135E+03  0.45542805135E+03  0.00000000000E+00 0. -1.
         25    2    1    2    0    0  0.00000000000E+00  0.00000000000E+00 -0.44685130572E+03  0.46400479698E+03  0.12499744877E+03 0.  0.
          4    1    3    3  501    0 -0.21490256153E+02 -0.24488336161E+02 -0.42132619479E+03  0.42258688413E+03  0.15500000000E+01 0.  1.
         -4    1    3    3    0  501  0.21490256153E+02  0.24488336161E+02 -0.25525110926E+02  0.41417912855E+02  0.15500000000E+01 0.  1.
<mgrwt>
<rscale>  2 0.12499745E+03</rscale>
<asrwt>0</asrwt>
<pdfrwt beam="1">  1       21 0.13194990E-02 0.12499745E+03</pdfrwt>
<pdfrwt beam="2">  1       21 0.70065871E-01 0.12499745E+03</pdfrwt>
<totfact> 0.44068738E+06</totfact>
</mgrwt>
</event>
<event>
 5    0  0.1546766E+000  0.1249988E+03  0.7546771E-02  0.1235071E+00
         21   -1    0    0  503  502  0.00000000000E+00  0.00000000000E+00  0.43118855526E+02  0.43118855526E+02  0.00000000000E+00 0. -1.
         21   -1    0    0  502  503 -0.00000000000E+00 -0.00000000000E+00 -0.90590907907E+02  0.90590907907E+02  0.00000000000E+00 0. -1.
         25    2    1    2    0    0  0.00000000000E+00  0.00000000000E+00 -0.47472052381E+02  0.13370976343E+03  0.12499882032E+03 0.  0.
          4    1    3    3  501    0  0.21755413817E+02 -0.28948419195E+02 -0.78200540782E+02  0.86191856244E+02  0.15500000000E+01 0.  1.
         -4    1    3    3    0  501 -0.21755413817E+02  0.28948419195E+02  0.30728488401E+02  0.47517907190E+02  0.15500000000E+01 0.  1.
<mgrwt>
<rscale>  2 0.12499882E+03</rscale>
<asrwt>0</asrwt>
<pdfrwt beam="1">  1       21 0.66336702E-02 0.12499882E+03</pdfrwt>
<pdfrwt beam="2">  1       21 0.13937063E-01 0.12499882E+03</pdfrwt>
<totfact> 0.72869960E+06</totfact>
</mgrwt>
</event>
<event>
 5    0  0.1644120E+000  0.1250010E+03  0.7546771E-02  0.1235068E+00
         21   -1    0    0  503  502  0.00000000000E+00  0.00000000000E+00  0.12657626547E+03  0.12657626547E+03  0.00000000000E+00 0. -1.
         21   -1    0    0  502  503 -0.00000000000E+00 -0.00000000000E+00 -0.30861341555E+02  0.30861341555E+02  0.00000000000E+00 0. -1.
         25    2    1    2    0    0  0.00000000000E+00  0.00000000000E+00  0.95714923914E+02  0.15743760702E+03  0.12500101378E+03 0.  0.
          4    1    3    3  501    0 -0.50696785058E+02 -0.36512542391E+02  0.46897357993E+02  0.78135103851E+02  0.15500000000E+01 0.  1.
         -4    1    3    3    0  501  0.50696785058E+02  0.36512542391E+02  0.48817565921E+02  0.79302503173E+02  0.15500000000E+01 0.  1.
<mgrwt>
<rscale>  2 0.12500101E+03</rscale>
<asrwt>0</asrwt>
<pdfrwt beam="1">  1       21 0.19473271E-01 0.12500101E+03</pdfrwt>
<pdfrwt beam="2">  1       21 0.47478988E-02 0.12500101E+03</pdfrwt>
<totfact> 0.69832155E+06</totfact>
</mgrwt>
</event>
<event>
 5    0  0.1262827E+000  0.1249909E+03  0.7546771E-02  0.1235084E+00
         21   -1    0    0  503  502  0.00000000000E+00  0.00000000000E+00  0.79203283372E+01  0.79203283372E+01  0.00000000000E+00 0.  1.
         21   -1    0    0  502  503 -0.00000000000E+00 -0.00000000000E+00 -0.49312102162E+03  0.49312102162E+03  0.00000000000E+00 0.  1.
         25    2    1    2    0    0  0.00000000000E+00  0.00000000000E+00 -0.48520069328E+03  0.50104134996E+03  0.12499088609E+03 0.  0.
          4    1    3    3  501    0 -0.55234264519E+02 -0.17174205708E+02 -0.33724975089E+03  0.34217769403E+03  0.15500000000E+01 0.  1.
         -4    1    3    3    0  501  0.55234264519E+02  0.17174205708E+02 -0.14795094239E+03  0.15886365593E+03  0.15500000000E+01 0.  1.
<mgrwt>
<rscale>  2 0.12499089E+03</rscale>
<asrwt>0</asrwt>
<pdfrwt beam="1">  1       21 0.12185121E-02 0.12499089E+03</pdfrwt>
<pdfrwt beam="2">  1       21 0.75864770E-01 0.12499089E+03</pdfrwt>
<totfact> 0.41997182E+06</totfact>
</mgrwt>
</event>
<event>
 5    0  0.1578583E+000  0.1249973E+03  0.7546771E-02  0.1235074E+00
         21   -1    0    0  503  502  0.00000000000E+00  0.00000000000E+00  0.53045365962E+02  0.53045365962E+02  0.00000000000E+00 0. -1.
         21   -1    0    0  502  503 -0.00000000000E+00 -0.00000000000E+00 -0.73636610770E+02  0.73636610770E+02  0.00000000000E+00 0. -1.
         25    2    1    2    0    0  0.00000000000E+00  0.00000000000E+00 -0.20591244808E+02  0.12668197673E+03  0.12499729544E+03 0.  0.
          4    1    3    3  501    0  0.12529141403E+02  0.18039340702E+02  0.48984433567E+02  0.53705441336E+02  0.15500000000E+01 0. -1.
         -4    1    3    3    0  501 -0.12529141403E+02 -0.18039340702E+02 -0.69575678374E+02  0.72976535397E+02  0.15500000000E+01 0. -1.
<mgrwt>
<rscale>  2 0.12499730E+03</rscale>
<asrwt>0</asrwt>
<pdfrwt beam="1">  1       21 0.81608255E-02 0.12499730E+03</pdfrwt>
<pdfrwt beam="2">  1       21 0.11328709E-01 0.12499730E+03</pdfrwt>
<totfact> 0.73817591E+06</totfact>
</mgrwt>
</event>
<event>
 5    0  0.1244969E+000  0.1249956E+03  0.7546771E-02  0.1235076E+00
         21   -1    0    0  503  502  0.00000000000E+00  0.00000000000E+00  0.63266624235E+03  0.63266624235E+03  0.00000000000E+00 0.  1.
         21   -1    0    0  502  503 -0.00000000000E+00 -0.00000000000E+00 -0.61738322942E+01  0.61738322942E+01  0.00000000000E+00 0.  1.
         25    2    1    2    0    0  0.00000000000E+00  0.00000000000E+00  0.62649241006E+03  0.63884007465E+03  0.12499560438E+03 0.  0.
          4    1    3    3  501    0  0.31934488842E+02 -0.50207958072E+02  0.21588091839E+03  0.22393665188E+03  0.15500000000E+01 0.  1.
         -4    1    3    3    0  501 -0.31934488842E+02  0.50207958072E+02  0.41061149167E+03  0.41490342277E+03  0.15500000000E+01 0.  1.
<mgrwt>
<rscale>  2 0.12499560E+03</rscale>
<asrwt>0</asrwt>
<pdfrwt beam="1">  1       21 0.97333217E-01 0.12499560E+03</pdfrwt>
<pdfrwt beam="2">  1       21 0.94982085E-03 0.12499560E+03</pdfrwt>
<totfact> 0.35396842E+06</totfact>
</mgrwt>
</event>
<event>
 5    0  0.1621374E+000  0.1249998E+03  0.7546771E-02  0.1235070E+00
         21   -1    0    0  503  502  0.00000000000E+00  0.00000000000E+00  0.44387989232E+02  0.44387989232E+02  0.00000000000E+00 0.  1.
         21   -1    0    0  502  503 -0.00000000000E+00 -0.00000000000E+00 -0.88002136199E+02  0.88002136199E+02  0.00000000000E+00 0.  1.
         25    2    1    2    0    0  0.00000000000E+00  0.00000000000E+00 -0.43614146967E+02  0.13239012543E+03  0.12499980598E+03 0.  0.
          4    1    3    3  501    0  0.50789970813E+02  0.36244516858E+02 -0.18367086739E+02  0.65061805330E+02  0.15500000000E+01 0. -1.
         -4    1    3    3    0  501 -0.50789970813E+02 -0.36244516858E+02 -0.25247060228E+02  0.67328320101E+02  0.15500000000E+01 0. -1.
<mgrwt>
<rscale>  2 0.12499981E+03</rscale>
<asrwt>0</asrwt>
<pdfrwt beam="1">  1       21 0.68289215E-02 0.12499981E+03</pdfrwt>
<pdfrwt beam="2">  1       21 0.13538790E-01 0.12499981E+03</pdfrwt>
<totfact> 0.73044308E+06</totfact>
</mgrwt>
</event>
<event>
 5    0  0.1500668E+000  0.1249854E+03  0.7546771E-02  0.1235092E+00
         21   -1    0    0  503  502  0.00000000000E+00  0.00000000000E+00  0.19798878939E+02  0.19798878939E+02  0.00000000000E+00 0. -1.
         21   -1    0    0  502  503 -0.00000000000E+00 -0.00000000000E+00 -0.19725054018E+03  0.19725054018E+03  0.00000000000E+00 0. -1.
         25    2    1    2    0    0  0.00000000000E+00  0.00000000000E+00 -0.17745166124E+03  0.21704941912E+03  0.12498543220E+03 0.  0.
          4    1    3    3  501    0  0.47408902056E+02  0.82080298082E+01 -0.19523743788E+02  0.51947616105E+02  0.15500000000E+01 0.  1.
         -4    1    3    3    0  501 -0.47408902056E+02 -0.82080298082E+01 -0.15792791745E+03  0.16510180301E+03  0.15500000000E+01 0.  1.
<mgrwt>
<rscale>  2 0.12498543E+03</rscale>
<asrwt>0</asrwt>
<pdfrwt beam="1">  1       21 0.30459814E-02 0.12498543E+03</pdfrwt>
<pdfrwt beam="2">  1       21 0.30346237E-01 0.12498543E+03</pdfrwt>
<totfact> 0.63148656E+06</totfact>
</mgrwt>
</event>
<event>
 5    0  0.1387068E+000  0.1249998E+03  0.7546771E-02  0.1235070E+00
         21   -1    0    0  503  502  0.00000000000E+00  0.00000000000E+00  0.74117981804E+01  0.74117981804E+01  0.00000000000E+00 0.  1.
         21   -1    0    0  502  503 -0.00000000000E+00 -0.00000000000E+00 -0.52702936594E+03  0.52702936594E+03  0.00000000000E+00 0.  1.
         25    2    1    2    0    0  0.00000000000E+00  0.00000000000E+00 -0.51961756776E+03  0.53444116412E+03  0.12499976473E+03 0.  0.
          4    1    3    3  501    0  0.51195376805E+02  0.32969427414E+02 -0.19996912223E+03  0.20904067091E+03  0.15500000000E+01 0.  1.
         -4    1    3    3    0  501 -0.51195376805E+02 -0.32969427414E+02 -0.31964844553E+03  0.32540049321E+03  0.15500000000E+01 0.  1.
<mgrwt>
<rscale>  2 0.12499976E+03</rscale>
<asrwt>0</asrwt>
<pdfrwt beam="1">  1       21 0.11402764E-02 0.12499976E+03</pdfrwt>
<pdfrwt beam="2">  1       21 0.81081458E-01 0.12499976E+03</pdfrwt>
<totfact> 0.40236025E+06</totfact>
</mgrwt>
</event>
<event>
 5    0  0.1502853E+000  0.1250068E+03  0.7546771E-02  0.1235059E+00
         21   -1    0    0  503  502  0.00000000000E+00  0.00000000000E+00  0.87183001236E+02  0.87183001236E+02  0.00000000000E+00 0. -1.
         21   -1    0    0  502  503 -0.00000000000E+00 -0.00000000000E+00 -0.44810075498E+02  0.44810075498E+02  0.00000000000E+00 0. -1.
         25    2    1    2    0    0  0.00000000000E+00  0.00000000000E+00  0.42372925738E+02  0.13199307673E+03  0.12500682969E+03 0.  0.
          4    1    3    3  501    0 -0.35780542187E+02 -0.41553427173E+02 -0.10443296695E+02  0.55842631160E+02  0.15500000000E+01 0. -1.
         -4    1    3    3    0  501  0.35780542187E+02  0.41553427173E+02  0.52816222434E+02  0.76150445574E+02  0.15500000000E+01 0. -1.
<mgrwt>
<rscale>  2 0.12500683E+03</rscale>
<asrwt>0</asrwt>
<pdfrwt beam="1">  1       21 0.13412769E-01 0.12500683E+03</pdfrwt>
<pdfrwt beam="2">  1       21 0.68938578E-02 0.12500683E+03</pdfrwt>
<totfact> 0.73084423E+06</totfact>
</mgrwt>
</event>
<event>
 5    0  0.1378431E+000  0.1250047E+03  0.7546771E-02  0.1235062E+00
         21   -1    0    0  503  502  0.00000000000E+00  0.00000000000E+00  0.33522662467E+03  0.33522662467E+03  0.00000000000E+00 0.  1.
         21   -1    0    0  502  503 -0.00000000000E+00 -0.00000000000E+00 -0.11653449464E+02  0.11653449464E+02  0.00000000000E+00 0.  1.
         25    2    1    2    0    0  0.00000000000E+00  0.00000000000E+00  0.32357317520E+03  0.34688007413E+03  0.12500474438E+03 0.  0.
          4    1    3    3  501    0  0.14967016313E+02  0.58177872516E+02  0.11408775056E+03  0.12894608856E+03  0.15500000000E+01 0.  1.
         -4    1    3    3    0  501 -0.14967016313E+02 -0.58177872516E+02  0.20948542464E+03  0.21793398557E+03  0.15500000000E+01 0.  1.
<mgrwt>
<rscale>  2 0.12500474E+03</rscale>
<asrwt>0</asrwt>
<pdfrwt beam="1">  1       21 0.51573320E-01 0.12500474E+03</pdfrwt>
<pdfrwt beam="2">  1       21 0.17928386E-02 0.12500474E+03</pdfrwt>
<totfact> 0.51763525E+06</totfact>
</mgrwt>
</event>
<event>
 5    0  0.1500338E+000  0.1250055E+03  0.7546771E-02  0.1235061E+00
         21   -1    0    0  503  502  0.00000000000E+00  0.00000000000E+00  0.16994718791E+03  0.16994718791E+03  0.00000000000E+00 0. -1.
         21   -1    0    0  502  503 -0.00000000000E+00 -0.00000000000E+00 -0.22987092669E+02  0.22987092669E+02  0.00000000000E+00 0. -1.
         25    2    1    2    0    0  0.00000000000E+00  0.00000000000E+00  0.14696009524E+03  0.19293428058E+03  0.12500546800E+03 0.  0.
          4    1    3    3  501    0 -0.60785555622E+02  0.10404565559E+02  0.57965124628E+02  0.84649258295E+02  0.15500000000E+01 0. -1.
         -4    1    3    3    0  501  0.60785555622E+02 -0.10404565559E+02  0.88994970613E+02  0.10828502228E+03  0.15500000000E+01 0. -1.
<mgrwt>
<rscale>  2 0.12500547E+03</rscale>
<asrwt>0</asrwt>
<pdfrwt beam="1">  1       21 0.26145720E-01 0.12500547E+03</pdfrwt>
<pdfrwt beam="2">  1       21 0.35364759E-02 0.12500547E+03</pdfrwt>
<totfact> 0.65688722E+06</totfact>
</mgrwt>
</event>
<event>
 5    0  0.1519474E+000  0.1250038E+03  0.7546771E-02  0.1235063E+00
         21   -1    0    0  503  502  0.00000000000E+00  0.00000000000E+00  0.16936540881E+02  0.16936540881E+02  0.00000000000E+00 0. -1.
         21   -1    0    0  502  503 -0.00000000000E+00 -0.00000000000E+00 -0.23065447092E+03  0.23065447092E+03  0.00000000000E+00 0. -1.
         25    2    1    2    0    0  0.00000000000E+00  0.00000000000E+00 -0.21371793004E+03  0.24759101180E+03  0.12500382196E+03 0.  0.
          4    1    3    3  501    0 -0.16972435098E+02 -0.33827010996E+02 -0.83865940752E+01  0.38795201846E+02  0.15500000000E+01 0.  1.
         -4    1    3    3    0  501  0.16972435098E+02  0.33827010996E+02 -0.20533133597E+03  0.20879580996E+03  0.15500000000E+01 0.  1.
<mgrwt>
<rscale>  2 0.12500382E+03</rscale>
<asrwt>0</asrwt>
<pdfrwt beam="1">  1       21 0.26056219E-02 0.12500382E+03</pdfrwt>
<pdfrwt beam="2">  1       21 0.35485300E-01 0.12500382E+03</pdfrwt>
<totfact> 0.60099946E+06</totfact>
</mgrwt>
</event>
<event>
 5    0  0.1222151E+000  0.1250029E+03  0.7546771E-02  0.1235065E+00
         21   -1    0    0  503  502  0.00000000000E+00  0.00000000000E+00  0.55767508707E+01  0.55767508707E+01  0.00000000000E+00 0.  1.
         21   -1    0    0  502  503 -0.00000000000E+00 -0.00000000000E+00 -0.70048494191E+03  0.70048494191E+03  0.00000000000E+00 0.  1.
         25    2    1    2    0    0  0.00000000000E+00  0.00000000000E+00 -0.69490819104E+03  0.70606169278E+03  0.12500288012E+03 0.  0.
          4    1    3    3  501    0  0.42402558822E+02  0.29621578635E+02 -0.14947008768E+03  0.15817434851E+03  0.15500000000E+01 0. -1.
         -4    1    3    3    0  501 -0.42402558822E+02 -0.29621578635E+02 -0.54543810336E+03  0.54788734427E+03  0.15500000000E+01 0. -1.
<mgrwt>
<rscale>  2 0.12500288E+03</rscale>
<asrwt>0</asrwt>
<pdfrwt beam="1">  1       21 0.85796173E-03 0.12500288E+03</pdfrwt>
<pdfrwt beam="2">  1       21 0.10776691E+00 0.12500288E+03</pdfrwt>
<totfact> 0.32675416E+06</totfact>
</mgrwt>
</event>
<event>
 5    0  0.1325671E+000  0.1249959E+03  0.7546771E-02  0.1235076E+00
         21   -1    0    0  503  502  0.00000000000E+00  0.00000000000E+00  0.54646297349E+03  0.54646297349E+03  0.00000000000E+00 0. -1.
         21   -1    0    0  502  503 -0.00000000000E+00 -0.00000000000E+00 -0.71477726155E+01  0.71477726155E+01  0.00000000000E+00 0. -1.
         25    2    1    2    0    0  0.00000000000E+00  0.00000000000E+00  0.53931520088E+03  0.55361074611E+03  0.12499588917E+03 0.  0.
          4    1    3    3  501    0  0.33794760952E+02 -0.19898585473E+02  0.48507210363E+03  0.48665736180E+03  0.15500000000E+01 0. -1.
         -4    1    3    3    0  501 -0.33794760952E+02  0.19898585473E+02  0.54243097245E+02  0.66953384309E+02  0.15500000000E+01 0. -1.
<mgrwt>
<rscale>  2 0.12499589E+03</rscale>
<asrwt>0</asrwt>
<pdfrwt beam="1">  1       21 0.84071194E-01 0.12499589E+03</pdfrwt>
<pdfrwt beam="2">  1       21 0.10996578E-02 0.12499589E+03</pdfrwt>
<totfact> 0.39282272E+06</totfact>
</mgrwt>
</event>
<event>
 4    0  0.1991295E+000  0.1247889E+03  0.7546771E-02  0.1235400E+00
         21   -1    0    0  503  502  0.00000000000E+00  0.00000000000E+00  0.23440943998E+02  0.23440943998E+02  0.00000000000E+00 0. -1.
         21   -1    0    0  502  503 -0.00000000000E+00 -0.00000000000E+00 -0.16607984199E+03  0.16607984199E+03  0.00000000000E+00 0. -1.
          4    1    1    2  501    0 -0.46209302784E+02  0.41423134413E+02 -0.80863322350E+02  0.10194339179E+03  0.15500000000E+01 0.  1.
         -4    1    1    2    0  501  0.46209302784E+02 -0.41423134413E+02 -0.61775575645E+02  0.87577394199E+02  0.15500000000E+01 0.  1.
<mgrwt>
<rscale>  2 0.12478891E+03</rscale>
<asrwt>0</asrwt>
<pdfrwt beam="1">  1       21 0.36062989E-02 0.12478891E+03</pdfrwt>
<pdfrwt beam="2">  1       21 0.25550746E-01 0.12478891E+03</pdfrwt>
<totfact> 0.66430443E+06</totfact>
</mgrwt>
</event>
<event>
 5    0  0.1471957E+000  0.1249942E+03  0.7546771E-02  0.1235078E+00
         21   -1    0    0  503  502  0.00000000000E+00  0.00000000000E+00  0.54575326233E+02  0.54575326233E+02  0.00000000000E+00 0. -1.
         21   -1    0    0  502  503 -0.00000000000E+00 -0.00000000000E+00 -0.71568766193E+02  0.71568766193E+02  0.00000000000E+00 0. -1.
         25    2    1    2    0    0  0.00000000000E+00  0.00000000000E+00 -0.16993439960E+02  0.12614409243E+03  0.12499422008E+03 0.  0.
          4    1    3    3  501    0 -0.20113428344E+02 -0.48861164960E+01  0.50995239327E+02  0.55057615897E+02  0.15500000000E+01 0. -1.
         -4    1    3    3    0  501  0.20113428344E+02  0.48861164960E+01 -0.67988679287E+02  0.71086476529E+02  0.15500000000E+01 0. -1.
<mgrwt>
<rscale>  2 0.12499422E+03</rscale>
<asrwt>0</asrwt>
<pdfrwt beam="1">  1       21 0.83962041E-02 0.12499422E+03</pdfrwt>
<pdfrwt beam="2">  1       21 0.11010579E-01 0.12499422E+03</pdfrwt>
<totfact> 0.73897093E+06</totfact>
</mgrwt>
</event>
<event>
 5    0  0.1481565E+000  0.1250110E+03  0.7546771E-02  0.1235052E+00
         21   -1    0    0  503  502  0.00000000000E+00  0.00000000000E+00  0.96322883309E+01  0.96322883309E+01  0.00000000000E+00 0. -1.
         21   -1    0    0  502  503 -0.00000000000E+00 -0.00000000000E+00 -0.40560853824E+03  0.40560853824E+03  0.00000000000E+00 0. -1.
         25    2    1    2    0    0  0.00000000000E+00  0.00000000000E+00 -0.39597624991E+03  0.41524082657E+03  0.12501101375E+03 0.  0.
          4    1    3    3  501    0 -0.96308197816E+01 -0.60978892145E+02 -0.16589386716E+03  0.17701512828E+03  0.15500000000E+01 0.  1.
         -4    1    3    3    0  501  0.96308197816E+01  0.60978892145E+02 -0.23008238274E+03  0.23822569829E+03  0.15500000000E+01 0.  1.
<mgrwt>
<rscale>  2 0.12501101E+03</rscale>
<asrwt>0</asrwt>
<pdfrwt beam="1">  1       21 0.14818907E-02 0.12501101E+03</pdfrwt>
<pdfrwt beam="2">  1       21 0.62401308E-01 0.12501101E+03</pdfrwt>
<totfact> 0.47033667E+06</totfact>
</mgrwt>
</event>
<event>
 5    0  0.1535955E+000  0.1250076E+03  0.7546771E-02  0.1235057E+00
         21   -1    0    0  503  502  0.00000000000E+00  0.00000000000E+00  0.46754437380E+02  0.46754437380E+02  0.00000000000E+00 0. -1.
         21   -1    0    0  502  503 -0.00000000000E+00 -0.00000000000E+00 -0.83558339634E+02  0.83558339634E+02  0.00000000000E+00 0. -1.
         25    2    1    2    0    0  0.00000000000E+00  0.00000000000E+00 -0.36803902254E+02  0.13031277701E+03  0.12500757030E+03 0.  0.
          4    1    3    3  501    0 -0.48211004470E+02  0.15497479213E+02 -0.56559320543E+02  0.75933076154E+02  0.15500000000E+01 0.  1.
         -4    1    3    3    0  501  0.48211004470E+02 -0.15497479213E+02  0.19755418289E+02  0.54379700861E+02  0.15500000000E+01 0.  1.
<mgrwt>
<rscale>  2 0.12500757E+03</rscale>
<asrwt>0</asrwt>
<pdfrwt beam="1">  1       21 0.71929904E-02 0.12500757E+03</pdfrwt>
<pdfrwt beam="2">  1       21 0.12855129E-01 0.12500757E+03</pdfrwt>
<totfact> 0.73308973E+06</totfact>
</mgrwt>
</event>
<event>
 5    0  0.1589856E+000  0.1250337E+03  0.7546771E-02  0.1235017E+00
         21   -1    0    0  503  502  0.00000000000E+00  0.00000000000E+00  0.10818026718E+03  0.10818026718E+03  0.00000000000E+00 0. -1.
         21   -1    0    0  502  503 -0.00000000000E+00 -0.00000000000E+00 -0.36128158027E+02  0.36128158027E+02  0.00000000000E+00 0. -1.
         25    2    1    2    0    0  0.00000000000E+00  0.00000000000E+00  0.72052109151E+02  0.14430842521E+03  0.12503365608E+03 0.  0.
          4    1    3    3  501    0  0.57790195002E+02  0.23448424983E+02  0.31349794745E+02  0.69819391311E+02  0.15500000000E+01 0.  1.
         -4    1    3    3    0  501 -0.57790195002E+02 -0.23448424983E+02  0.40702314406E+02  0.74489033894E+02  0.15500000000E+01 0.  1.
<mgrwt>
<rscale>  2 0.12503366E+03</rscale>
<asrwt>0</asrwt>
<pdfrwt beam="1">  1       21 0.16643118E-01 0.12503366E+03</pdfrwt>
<pdfrwt beam="2">  1       21 0.55581782E-02 0.12503366E+03</pdfrwt>
<totfact> 0.71420483E+06</totfact>
</mgrwt>
</event>
<event>
 5    0  0.1575321E+000  0.1249993E+03  0.7546771E-02  0.1235070E+00
         21   -1    0    0  503  502  0.00000000000E+00  0.00000000000E+00  0.22202351920E+03  0.22202351920E+03  0.00000000000E+00 0. -1.
         21   -1    0    0  502  503 -0.00000000000E+00 -0.00000000000E+00 -0.17593664030E+02  0.17593664030E+02  0.00000000000E+00 0. -1.
         25    2    1    2    0    0  0.00000000000E+00  0.00000000000E+00  0.20442985517E+03  0.23961718323E+03  0.12499931526E+03 0.  0.
          4    1    3    3  501    0  0.48698723776E+02 -0.38677508486E+02  0.11376274424E+03  0.12966063334E+03  0.15500000000E+01 0. -1.
         -4    1    3    3    0  501 -0.48698723776E+02  0.38677508486E+02  0.90667110927E+02  0.10995654989E+03  0.15500000000E+01 0. -1.
<mgrwt>
<rscale>  2 0.12499932E+03</rscale>
<asrwt>0</asrwt>
<pdfrwt beam="1">  1       21 0.34157462E-01 0.12499932E+03</pdfrwt>
<pdfrwt beam="2">  1       21 0.27067177E-02 0.12499932E+03</pdfrwt>
<totfact> 0.60870779E+06</totfact>
</mgrwt>
</event>
<event>
 5    0  0.1502047E+000  0.1249968E+03  0.7546771E-02  0.1235074E+00
         21   -1    0    0  503  502  0.00000000000E+00  0.00000000000E+00  0.24044846170E+03  0.24044846170E+03  0.00000000000E+00 0. -1.
         21   -1    0    0  502  503 -0.00000000000E+00 -0.00000000000E+00 -0.16244846197E+02  0.16244846197E+02  0.00000000000E+00 0. -1.
         25    2    1    2    0    0  0.00000000000E+00  0.00000000000E+00  0.22420361551E+03  0.25669330790E+03  0.12499677242E+03 0.  0.
          4    1    3    3  501    0  0.54853408427E+02  0.28093452669E+02  0.91007903981E+02  0.10992260726E+03  0.15500000000E+01 0. -1.
         -4    1    3    3    0  501 -0.54853408427E+02 -0.28093452669E+02  0.13319571152E+03  0.14677070064E+03  0.15500000000E+01 0. -1.
<mgrwt>
<rscale>  2 0.12499677E+03</rscale>
<asrwt>0</asrwt>
<pdfrwt beam="1">  1       21 0.36992068E-01 0.12499677E+03</pdfrwt>
<pdfrwt beam="2">  1       21 0.24992073E-02 0.12499677E+03</pdfrwt>
<totfact> 0.59258505E+06</totfact>
</mgrwt>
</event>
<event>
 5    0  0.1222151E+000  0.1249964E+03  0.7546771E-02  0.1235075E+00
         21   -1    0    0  503  502  0.00000000000E+00  0.00000000000E+00  0.28843726622E+01  0.28843726622E+01  0.00000000000E+00 0. -1.
         21   -1    0    0  502  503 -0.00000000000E+00 -0.00000000000E+00 -0.13542028204E+04  0.13542028204E+04  0.00000000000E+00 0. -1.
         25    2    1    2    0    0  0.00000000000E+00  0.00000000000E+00 -0.13513184478E+04  0.13570871931E+04  0.12499640946E+03 0.  0.
          4    1    3    3  501    0 -0.32661348115E+01 -0.41910265986E+02 -0.11774932960E+04  0.11782444579E+04  0.15500000000E+01 0.  1.
         -4    1    3    3    0  501  0.32661348115E+01  0.41910265986E+02 -0.17382515183E+03  0.17884273521E+03  0.15500000000E+01 0.  1.
<mgrwt>
<rscale>  2 0.12499641E+03</rscale>
<asrwt>0</asrwt>
<pdfrwt beam="1">  1       21 0.44374869E-03 0.12499641E+03</pdfrwt>
<pdfrwt beam="2">  1       21 0.20833934E+00 0.12499641E+03</pdfrwt>
<totfact> 0.16258857E+06</totfact>
</mgrwt>
</event>
<event>
 5    0  0.1618946E+000  0.1249975E+03  0.7546771E-02  0.1235073E+00
         21   -1    0    0  503  502  0.00000000000E+00  0.00000000000E+00  0.38594514767E+02  0.38594514767E+02  0.00000000000E+00 0.  1.
         21   -1    0    0  502  503 -0.00000000000E+00 -0.00000000000E+00 -0.10120858896E+03  0.10120858896E+03  0.00000000000E+00 0.  1.
         25    2    1    2    0    0  0.00000000000E+00  0.00000000000E+00 -0.62614074194E+02  0.13980310373E+03  0.12499754208E+03 0.  0.
          4    1    3    3  501    0  0.47783478494E+02  0.40097042390E+02 -0.27327463128E+02  0.68119207030E+02  0.15500000000E+01 0. -1.
         -4    1    3    3    0  501 -0.47783478494E+02 -0.40097042390E+02 -0.35286611066E+02  0.71683896699E+02  0.15500000000E+01 0. -1.
<mgrwt>
<rscale>  2 0.12499754E+03</rscale>
<asrwt>0</asrwt>
<pdfrwt beam="1">  1       21 0.59376177E-02 0.12499754E+03</pdfrwt>
<pdfrwt beam="2">  1       21 0.15570552E-01 0.12499754E+03</pdfrwt>
<totfact> 0.72069536E+06</totfact>
</mgrwt>
</event>
<event>
 5    0  0.1222151E+000  0.1250015E+03  0.7546771E-02  0.1235067E+00
         21   -1    0    0  503  502  0.00000000000E+00  0.00000000000E+00  0.94350960542E+03  0.94350960542E+03  0.00000000000E+00 0.  1.
         21   -1    0    0  502  503 -0.00000000000E+00 -0.00000000000E+00 -0.41402252854E+01  0.41402252854E+01  0.00000000000E+00 0.  1.
         25    2    1    2    0    0  0.00000000000E+00  0.00000000000E+00  0.93936938013E+03  0.94764983070E+03  0.12500147720E+03 0.  0.
          4    1    3    3  501    0 -0.38135930095E+02  0.21629743737E+01  0.84454061372E+03  0.84540539290E+03  0.15500000000E+01 0.  1.
         -4    1    3    3    0  501  0.38135930095E+02 -0.21629743737E+01  0.94828766413E+02  0.10224443780E+03  0.15500000000E+01 0.  1.
<mgrwt>
<rscale>  2 0.12500148E+03</rscale>
<asrwt>0</asrwt>
<pdfrwt beam="1">  1       21 0.14515515E+00 0.12500148E+03</pdfrwt>
<pdfrwt beam="2">  1       21 0.63695849E-03 0.12500148E+03</pdfrwt>
<totfact> 0.24973550E+06</totfact>
</mgrwt>
</event>
<event>
 5    0  0.1395152E+000  0.1249998E+03  0.7546771E-02  0.1235070E+00
         21   -1    0    0  503  502  0.00000000000E+00  0.00000000000E+00  0.34648071193E+03  0.34648071193E+03  0.00000000000E+00 0. -1.
         21   -1    0    0  502  503 -0.00000000000E+00 -0.00000000000E+00 -0.11274038142E+02  0.11274038142E+02  0.00000000000E+00 0. -1.
         25    2    1    2    0    0  0.00000000000E+00  0.00000000000E+00  0.33520667379E+03  0.35775475008E+03  0.12499978819E+03 0.  0.
          4    1    3    3  501    0  0.56441088829E+02  0.88027752662E+01  0.95156393521E+02  0.11099651836E+03  0.15500000000E+01 0. -1.
         -4    1    3    3    0  501 -0.56441088829E+02 -0.88027752662E+01  0.24005028027E+03  0.24675823171E+03  0.15500000000E+01 0. -1.
<mgrwt>
<rscale>  2 0.12499979E+03</rscale>
<asrwt>0</asrwt>
<pdfrwt beam="1">  1       21 0.53304717E-01 0.12499979E+03</pdfrwt>
<pdfrwt beam="2">  1       21 0.17344677E-02 0.12499979E+03</pdfrwt>
<totfact> 0.50971046E+06</totfact>
</mgrwt>
</event>
<event>
 5    0  0.1222151E+000  0.1249988E+03  0.7546771E-02  0.1235071E+00
         21   -1    0    0  503  502  0.00000000000E+00  0.00000000000E+00  0.10814436324E+04  0.10814436324E+04  0.00000000000E+00 0. -1.
         21   -1    0    0  502  503 -0.00000000000E+00 -0.00000000000E+00 -0.36119995311E+01  0.36119995311E+01  0.00000000000E+00 0. -1.
         25    2    1    2    0    0  0.00000000000E+00  0.00000000000E+00  0.10778316329E+04  0.10850556320E+04  0.12499878229E+03 0.  0.
          4    1    3    3  501    0 -0.38195852717E+02  0.46586415650E+02  0.68274936471E+03  0.68540376042E+03  0.15500000000E+01 0.  1.
         -4    1    3    3    0  501  0.38195852717E+02 -0.46586415650E+02  0.39508226818E+03  0.39965187153E+03  0.15500000000E+01 0.  1.
<mgrwt>
<rscale>  2 0.12499878E+03</rscale>
<asrwt>0</asrwt>
<pdfrwt beam="1">  1       21 0.16637569E+00 0.12499878E+03</pdfrwt>
<pdfrwt beam="2">  1       21 0.55569310E-03 0.12499878E+03</pdfrwt>
<totfact> 0.21587551E+06</totfact>
</mgrwt>
</event>
<event>
 5    0  0.1325757E+000  0.1249962E+03  0.7546771E-02  0.1235075E+00
         21   -1    0    0  503  502  0.00000000000E+00  0.00000000000E+00  0.46855074348E+03  0.46855074348E+03  0.00000000000E+00 0.  1.
         21   -1    0    0  502  503 -0.00000000000E+00 -0.00000000000E+00 -0.83363697404E+01  0.83363697404E+01  0.00000000000E+00 0.  1.
         25    2    1    2    0    0  0.00000000000E+00  0.00000000000E+00  0.46021437374E+03  0.47688711323E+03  0.12499619578E+03 0.  0.
          4    1    3    3  501    0 -0.35186063924E+02 -0.43834371758E+02  0.33417921190E+03  0.33887705648E+03  0.15500000000E+01 0.  1.
         -4    1    3    3    0  501  0.35186063924E+02  0.43834371758E+02  0.12603516184E+03  0.13801005674E+03  0.15500000000E+01 0.  1.
<mgrwt>
<rscale>  2 0.12499620E+03</rscale>
<asrwt>0</asrwt>
<pdfrwt beam="1">  1       21 0.72084709E-01 0.12499620E+03</pdfrwt>
<pdfrwt beam="2">  1       21 0.12825188E-02 0.12499620E+03</pdfrwt>
<totfact> 0.43330039E+06</totfact>
</mgrwt>
</event>
<event>
 5    0  0.1222151E+000  0.1249998E+03  0.7546771E-02  0.1235070E+00
         21   -1    0    0  503  502  0.00000000000E+00  0.00000000000E+00  0.34185632695E+01  0.34185632695E+01  0.00000000000E+00 0. -1.
         21   -1    0    0  502  503 -0.00000000000E+00 -0.00000000000E+00 -0.11426545675E+04  0.11426545675E+04  0.00000000000E+00 0. -1.
         25    2    1    2    0    0  0.00000000000E+00  0.00000000000E+00 -0.11392360042E+04  0.11460731308E+04  0.12499979095E+03 0.  0.
          4    1    3    3  501    0  0.54489361441E+02 -0.22082459738E+02 -0.76348759554E+03  0.76574959130E+03  0.15500000000E+01 0.  1.
         -4    1    3    3    0  501 -0.54489361441E+02  0.22082459738E+02 -0.37574840868E+03  0.38032353945E+03  0.15500000000E+01 0.  1.
<mgrwt>
<rscale>  2 0.12499979E+03</rscale>
<asrwt>0</asrwt>
<pdfrwt beam="1">  1       21 0.52593292E-03 0.12499979E+03</pdfrwt>
<pdfrwt beam="2">  1       21 0.17579298E+00 0.12499979E+03</pdfrwt>
<totfact> 0.20252374E+06</totfact>
</mgrwt>
</event>
<event>
 5    0  0.1691625E+000  0.1249976E+03  0.7546771E-02  0.1235073E+00
         21   -1    0    0  503  502  0.00000000000E+00  0.00000000000E+00  0.71275254439E+02  0.71275254439E+02  0.00000000000E+00 0. -1.
         21   -1    0    0  502  503 -0.00000000000E+00 -0.00000000000E+00 -0.54803039325E+02  0.54803039325E+02  0.00000000000E+00 0. -1.
         25    2    1    2    0    0  0.00000000000E+00  0.00000000000E+00  0.16472215113E+02  0.12607829376E+03  0.12499760913E+03 0.  0.
          4    1    3    3  501    0  0.57344934644E+02  0.22570985919E+02  0.18611298511E+02  0.64394672660E+02  0.15500000000E+01 0.  1.
         -4    1    3    3    0  501 -0.57344934644E+02 -0.22570985919E+02 -0.21390833978E+01  0.61683621104E+02  0.15500000000E+01 0.  1.
<mgrwt>
<rscale>  2 0.12499761E+03</rscale>
<asrwt>0</asrwt>
<pdfrwt beam="1">  1       21 0.10965424E-01 0.12499761E+03</pdfrwt>
<pdfrwt beam="2">  1       21 0.84312368E-02 0.12499761E+03</pdfrwt>
<totfact> 0.73899758E+06</totfact>
</mgrwt>
</event>
<event>
 5    0  0.1523949E+000  0.1249855E+03  0.7546771E-02  0.1235092E+00
         21   -1    0    0  503  502  0.00000000000E+00  0.00000000000E+00  0.26535143170E+02  0.26535143170E+02  0.00000000000E+00 0.  1.
         21   -1    0    0  502  503 -0.00000000000E+00 -0.00000000000E+00 -0.14717629657E+03  0.14717629657E+03  0.00000000000E+00 0.  1.
         25    2    1    2    0    0  0.00000000000E+00  0.00000000000E+00 -0.12064115340E+03  0.17371143974E+03  0.12498550477E+03 0.  0.
          4    1    3    3  501    0 -0.28591853815E+02  0.52619335787E+02 -0.85052652742E+02  0.10403194145E+03  0.15500000000E+01 0. -1.
         -4    1    3    3    0  501  0.28591853815E+02 -0.52619335787E+02 -0.35588500660E+02  0.69679498293E+02  0.15500000000E+01 0. -1.
<mgrwt>
<rscale>  2 0.12498550E+03</rscale>
<asrwt>0</asrwt>
<pdfrwt beam="1">  1       21 0.40823298E-02 0.12498550E+03</pdfrwt>
<pdfrwt beam="2">  1       21 0.22642507E-01 0.12498550E+03</pdfrwt>
<totfact> 0.67905343E+06</totfact>
</mgrwt>
</event>
<event>
 5    0  0.1437711E+000  0.1249917E+03  0.7546771E-02  0.1235082E+00
         21   -1    0    0  503  502  0.00000000000E+00  0.00000000000E+00  0.95151778455E+02  0.95151778455E+02  0.00000000000E+00 0. -1.
         21   -1    0    0  502  503 -0.00000000000E+00 -0.00000000000E+00 -0.41047367472E+02  0.41047367472E+02  0.00000000000E+00 0. -1.
         25    2    1    2    0    0  0.00000000000E+00  0.00000000000E+00  0.54104410983E+02  0.13619914593E+03  0.12499167998E+03 0.  0.
          4    1    3    3  501    0 -0.37554925420E+02 -0.32843892122E+02  0.68030501171E+02  0.84377990392E+02  0.15500000000E+01 0. -1.
         -4    1    3    3    0  501  0.37554925420E+02  0.32843892122E+02 -0.13926090188E+02  0.51821155535E+02  0.15500000000E+01 0. -1.
<mgrwt>
<rscale>  2 0.12499168E+03</rscale>
<asrwt>0</asrwt>
<pdfrwt beam="1">  1       21 0.14638735E-01 0.12499168E+03</pdfrwt>
<pdfrwt beam="2">  1       21 0.63149796E-02 0.12499168E+03</pdfrwt>
<totfact> 0.72553478E+06</totfact>
</mgrwt>
</event>
<event>
 5    0  0.1553281E+000  0.1249938E+03  0.7546771E-02  0.1235079E+00
         21   -1    0    0  503  502  0.00000000000E+00  0.00000000000E+00  0.78197099710E+02  0.78197099710E+02  0.00000000000E+00 0. -1.
         21   -1    0    0  502  503 -0.00000000000E+00 -0.00000000000E+00 -0.49948913608E+02  0.49948913608E+02  0.00000000000E+00 0. -1.
         25    2    1    2    0    0  0.00000000000E+00  0.00000000000E+00  0.28248186102E+02  0.12814601332E+03  0.12499376269E+03 0.  0.
          4    1    3    3  501    0  0.62378427217E+01 -0.47362576182E+02 -0.27157164520E+02  0.54973069672E+02  0.15500000000E+01 0.  1.
         -4    1    3    3    0  501 -0.62378427217E+01  0.47362576182E+02  0.55405350622E+02  0.73172943647E+02  0.15500000000E+01 0.  1.
<mgrwt>
<rscale>  2 0.12499376E+03</rscale>
<asrwt>0</asrwt>
<pdfrwt beam="1">  1       21 0.12030323E-01 0.12499376E+03</pdfrwt>
<pdfrwt beam="2">  1       21 0.76844483E-02 0.12499376E+03</pdfrwt>
<totfact> 0.73625568E+06</totfact>
</mgrwt>
</event>
<event>
 5    0  0.1222151E+000  0.1249891E+03  0.7546771E-02  0.1235086E+00
         21   -1    0    0  503  502  0.00000000000E+00  0.00000000000E+00  0.10456606762E+04  0.10456606762E+04  0.00000000000E+00 0.  1.
         21   -1    0    0  502  503 -0.00000000000E+00 -0.00000000000E+00 -0.37350263263E+01  0.37350263263E+01  0.00000000000E+00 0.  1.
         25    2    1    2    0    0  0.00000000000E+00  0.00000000000E+00  0.10419256499E+04  0.10493957026E+04  0.12498912199E+03 0.  0.
          4    1    3    3  501    0 -0.18713747107E+02  0.42569085440E+02  0.17065807223E+03  0.17688671935E+03  0.15500000000E+01 0. -1.
         -4    1    3    3    0  501  0.18713747107E+02 -0.42569085440E+02  0.87126757769E+03  0.87250898322E+03  0.15500000000E+01 0. -1.
<mgrwt>
<rscale>  2 0.12498912E+03</rscale>
<asrwt>0</asrwt>
<pdfrwt beam="1">  1       21 0.16087064E+00 0.12498912E+03</pdfrwt>
<pdfrwt beam="2">  1       21 0.57462027E-03 0.12498912E+03</pdfrwt>
<totfact> 0.22419409E+06</totfact>
</mgrwt>
</event>
<event>
 5    0  0.1300431E+000  0.1250061E+03  0.7546771E-02  0.1235060E+00
         21   -1    0    0  503  502  0.00000000000E+00  0.00000000000E+00  0.39434452751E+03  0.39434452751E+03  0.00000000000E+00 0. -1.
         21   -1    0    0  502  503 -0.00000000000E+00 -0.00000000000E+00 -0.99066413261E+01  0.99066413261E+01  0.00000000000E+00 0. -1.
         25    2    1    2    0    0  0.00000000000E+00  0.00000000000E+00  0.38443788618E+03  0.40425116883E+03  0.12500607654E+03 0.  0.
          4    1    3    3  501    0  0.99200544585E+01  0.27604914435E+02  0.13805573126E+02  0.32456665429E+02  0.15500000000E+01 0.  1.
         -4    1    3    3    0  501 -0.99200544585E+01 -0.27604914435E+02  0.37063231305E+03  0.37179450340E+03  0.15500000000E+01 0.  1.
<mgrwt>
<rscale>  2 0.12500608E+03</rscale>
<asrwt>0</asrwt>
<pdfrwt beam="1">  1       21 0.60668377E-01 0.12500608E+03</pdfrwt>
<pdfrwt beam="2">  1       21 0.15240990E-02 0.12500608E+03</pdfrwt>
<totfact> 0.47753401E+06</totfact>
</mgrwt>
</event>
<event>
 5    0  0.1471296E+000  0.1250006E+03  0.7546771E-02  0.1235068E+00
         21   -1    0    0  503  502  0.00000000000E+00  0.00000000000E+00  0.22024425467E+03  0.22024425467E+03  0.00000000000E+00 0.  1.
         21   -1    0    0  502  503 -0.00000000000E+00 -0.00000000000E+00 -0.17736170922E+02  0.17736170922E+02  0.00000000000E+00 0.  1.
         25    2    1    2    0    0  0.00000000000E+00  0.00000000000E+00  0.20250808375E+03  0.23798042559E+03  0.12500063592E+03 0.  0.
          4    1    3    3  501    0  0.39454998703E+02  0.19648279419E+02  0.18556476384E+03  0.19073394005E+03  0.15500000000E+01 0. -1.
         -4    1    3    3    0  501 -0.39454998703E+02 -0.19648279419E+02  0.16943319907E+02  0.47246485544E+02  0.15500000000E+01 0. -1.
<mgrwt>
<rscale>  2 0.12500064E+03</rscale>
<asrwt>0</asrwt>
<pdfrwt beam="1">  1       21 0.33883730E-01 0.12500064E+03</pdfrwt>
<pdfrwt beam="2">  1       21 0.27286418E-02 0.12500064E+03</pdfrwt>
<totfact> 0.61027663E+06</totfact>
</mgrwt>
</event>
<event>
 5    0  0.1574597E+000  0.1249855E+03  0.7546771E-02  0.1235092E+00
         21   -1    0    0  503  502  0.00000000000E+00  0.00000000000E+00  0.18305495131E+03  0.18305495131E+03  0.00000000000E+00 0. -1.
         21   -1    0    0  502  503 -0.00000000000E+00 -0.00000000000E+00 -0.21334266118E+02  0.21334266118E+02  0.00000000000E+00 0. -1.
         25    2    1    2    0    0  0.00000000000E+00  0.00000000000E+00  0.16172068519E+03  0.20438921743E+03  0.12498548788E+03 0.  0.
          4    1    3    3  501    0  0.51568637666E+02 -0.32684606070E+02  0.10251392851E+03  0.11932776669E+03  0.15500000000E+01 0. -1.
         -4    1    3    3    0  501 -0.51568637666E+02  0.32684606070E+02  0.59206756676E+02  0.85061450733E+02  0.15500000000E+01 0. -1.
<mgrwt>
<rscale>  2 0.12498549E+03</rscale>
<asrwt>0</asrwt>
<pdfrwt beam="1">  1       21 0.28162299E-01 0.12498549E+03</pdfrwt>
<pdfrwt beam="2">  1       21 0.32821949E-02 0.12498549E+03</pdfrwt>
<totfact> 0.64478409E+06</totfact>
</mgrwt>
</event>
<event>
 5    0  0.1222151E+000  0.1250021E+03  0.7546771E-02  0.1235066E+00
         21   -1    0    0  503  502  0.00000000000E+00  0.00000000000E+00  0.48406611489E+01  0.48406611489E+01  0.00000000000E+00 0. -1.
         21   -1    0    0  502  503 -0.00000000000E+00 -0.00000000000E+00 -0.80699339327E+03  0.80699339327E+03  0.00000000000E+00 0. -1.
         25    2    1    2    0    0  0.00000000000E+00  0.00000000000E+00 -0.80215273212E+03  0.81183405442E+03  0.12500210504E+03 0.  0.
          4    1    3    3  501    0  0.33869675569E+02 -0.43774668370E+02 -0.58937418537E+03  0.59196934836E+03  0.15500000000E+01 0. -1.
         -4    1    3    3    0  501 -0.33869675569E+02  0.43774668370E+02 -0.21277854675E+03  0.21986470606E+03  0.15500000000E+01 0. -1.
<mgrwt>
<rscale>  2 0.12500211E+03</rscale>
<asrwt>0</asrwt>
<pdfrwt beam="1">  1       21 0.74471744E-03 0.12500211E+03</pdfrwt>
<pdfrwt beam="2">  1       21 0.12415277E+00 0.12500211E+03</pdfrwt>
<totfact> 0.28972958E+06</totfact>
</mgrwt>
</event>
<event>
 5    0  0.1579317E+000  0.1250077E+03  0.7546771E-02  0.1235057E+00
         21   -1    0    0  503  502  0.00000000000E+00  0.00000000000E+00  0.91361492298E+02  0.91361492298E+02  0.00000000000E+00 0. -1.
         21   -1    0    0  502  503 -0.00000000000E+00 -0.00000000000E+00 -0.42761229396E+02  0.42761229396E+02  0.00000000000E+00 0. -1.
         25    2    1    2    0    0  0.00000000000E+00  0.00000000000E+00  0.48600262902E+02  0.13412272169E+03  0.12500767545E+03 0.  0.
          4    1    3    3  501    0 -0.62103132804E+02  0.47230537380E+01  0.18911904526E+02  0.65108900877E+02  0.15500000000E+01 0.  1.
         -4    1    3    3    0  501  0.62103132804E+02 -0.47230537380E+01  0.29688358376E+02  0.69013820817E+02  0.15500000000E+01 0.  1.
<mgrwt>
<rscale>  2 0.12500768E+03</rscale>
<asrwt>0</asrwt>
<pdfrwt beam="1">  1       21 0.14055614E-01 0.12500768E+03</pdfrwt>
<pdfrwt beam="2">  1       21 0.65786507E-02 0.12500768E+03</pdfrwt>
<totfact> 0.72798587E+06</totfact>
</mgrwt>
</event>
<event>
 5    0  0.1417810E+000  0.1249892E+03  0.7546771E-02  0.1235086E+00
         21   -1    0    0  503  502  0.00000000000E+00  0.00000000000E+00  0.31564725289E+03  0.31564725289E+03  0.00000000000E+00 0. -1.
         21   -1    0    0  502  503 -0.00000000000E+00 -0.00000000000E+00 -0.12373218117E+02  0.12373218117E+02  0.00000000000E+00 0. -1.
         25    2    1    2    0    0  0.00000000000E+00  0.00000000000E+00  0.30327403477E+03  0.32802047100E+03  0.12498915646E+03 0.  0.
          4    1    3    3  501    0  0.47580369028E+02 -0.80414524397E+01  0.25577653777E+03  0.26029328890E+03  0.15500000000E+01 0.  1.
         -4    1    3    3    0  501 -0.47580369028E+02  0.80414524397E+01  0.47497497003E+02  0.67727182104E+02  0.15500000000E+01 0.  1.
<mgrwt>
<rscale>  2 0.12498916E+03</rscale>
<asrwt>0</asrwt>
<pdfrwt beam="1">  1       21 0.48561110E-01 0.12498916E+03</pdfrwt>
<pdfrwt beam="2">  1       21 0.19035723E-02 0.12498916E+03</pdfrwt>
<totfact> 0.53218293E+06</totfact>
</mgrwt>
</event>
<event>
 5    0  0.1222151E+000  0.1249962E+03  0.7546771E-02  0.1235075E+00
         21   -1    0    0  503  502  0.00000000000E+00  0.00000000000E+00  0.11965345026E+04  0.11965345026E+04  0.00000000000E+00 0.  1.
         21   -1    0    0  502  503 -0.00000000000E+00 -0.00000000000E+00 -0.32644402008E+01  0.32644402008E+01  0.00000000000E+00 0.  1.
         25    2    1    2    0    0  0.00000000000E+00  0.00000000000E+00  0.11932700624E+04  0.11997989428E+04  0.12499624525E+03 0.  0.
          4    1    3    3  501    0 -0.39430778595E+02  0.10255620668E+02  0.10512973304E+04  0.10520876596E+04  0.15500000000E+01 0. -1.
         -4    1    3    3    0  501  0.39430778595E+02 -0.10255620668E+02  0.14197273196E+03  0.14771128317E+03  0.15500000000E+01 0. -1.
<mgrwt>
<rscale>  2 0.12499625E+03</rscale>
<asrwt>0</asrwt>
<pdfrwt beam="1">  1       21 0.18408188E+00 0.12499625E+03</pdfrwt>
<pdfrwt beam="2">  1       21 0.50222253E-03 0.12499625E+03</pdfrwt>
<totfact> 0.19149198E+06</totfact>
</mgrwt>
</event>
<event>
 5    0  0.1432427E+000  0.1249967E+03  0.7546771E-02  0.1235074E+00
         21   -1    0    0  503  502  0.00000000000E+00  0.00000000000E+00  0.21998077795E+03  0.21998077795E+03  0.00000000000E+00 0.  1.
         21   -1    0    0  502  503 -0.00000000000E+00 -0.00000000000E+00 -0.17756293915E+02  0.17756293915E+02  0.00000000000E+00 0.  1.
         25    2    1    2    0    0  0.00000000000E+00  0.00000000000E+00  0.20222448404E+03  0.23773707187E+03  0.12499669354E+03 0.  0.
          4    1    3    3  501    0  0.26293826528E+02  0.29454839220E+02  0.90162112509E+01  0.40529587122E+02  0.15500000000E+01 0. -1.
         -4    1    3    3    0  501 -0.26293826528E+02 -0.29454839220E+02  0.19320827279E+03  0.19720748475E+03  0.15500000000E+01 0. -1.
<mgrwt>
<rscale>  2 0.12499669E+03</rscale>
<asrwt>0</asrwt>
<pdfrwt beam="1">  1       21 0.33843195E-01 0.12499669E+03</pdfrwt>
<pdfrwt beam="2">  1       21 0.27317377E-02 0.12499669E+03</pdfrwt>
<totfact> 0.61057425E+06</totfact>
</mgrwt>
</event>
<event>
 5    0  0.1529103E+000  0.1249992E+03  0.7546771E-02  0.1235070E+00
         21   -1    0    0  503  502  0.00000000000E+00  0.00000000000E+00  0.22083781166E+02  0.22083781166E+02  0.00000000000E+00 0.  1.
         21   -1    0    0  502  503 -0.00000000000E+00 -0.00000000000E+00 -0.17688102147E+03  0.17688102147E+03  0.00000000000E+00 0.  1.
         25    2    1    2    0    0  0.00000000000E+00  0.00000000000E+00 -0.15479724031E+03  0.19896480264E+03  0.12499922833E+03 0.  0.
          4    1    3    3  501    0 -0.41168125825E+02 -0.45361309466E+02 -0.96979872558E+02  0.11471687392E+03  0.15500000000E+01 0. -1.
         -4    1    3    3    0  501  0.41168125825E+02  0.45361309466E+02 -0.57817367750E+02  0.84247928722E+02  0.15500000000E+01 0. -1.
<mgrwt>
<rscale>  2 0.12499923E+03</rscale>
<asrwt>0</asrwt>
<pdfrwt beam="1">  1       21 0.33975049E-02 0.12499923E+03</pdfrwt>
<pdfrwt beam="2">  1       21 0.27212464E-01 0.12499923E+03</pdfrwt>
<totfact> 0.65040866E+06</totfact>
</mgrwt>
</event>
<event>
 5    0  0.1222151E+000  0.1250041E+03  0.7546771E-02  0.1235063E+00
         21   -1    0    0  503  502  0.00000000000E+00  0.00000000000E+00  0.14864573015E+02  0.14864573015E+02  0.00000000000E+00 0. -1.
         21   -1    0    0  502  503 -0.00000000000E+00 -0.00000000000E+00 -0.26280639357E+03  0.26280639357E+03  0.00000000000E+00 0. -1.
         25    2    1    2    0    0  0.00000000000E+00  0.00000000000E+00 -0.24794182056E+03  0.27767096659E+03  0.12500407715E+03 0.  0.
          4    1    3    3  501    0 -0.20919939892E+02 -0.75361532310E+01 -0.25367752935E+03  0.25465492119E+03  0.15500000000E+01 0.  1.
         -4    1    3    3    0  501  0.20919939892E+02  0.75361532310E+01  0.57357087862E+01  0.23016045400E+02  0.15500000000E+01 0.  1.
<mgrwt>
<rscale>  2 0.12500408E+03</rscale>
<asrwt>0</asrwt>
<pdfrwt beam="1">  1       21 0.22868574E-02 0.12500408E+03</pdfrwt>
<pdfrwt beam="2">  1       21 0.40431752E-01 0.12500408E+03</pdfrwt>
<totfact> 0.57358515E+06</totfact>
</mgrwt>
</event>
<event>
 5    0  0.1553591E+000  0.1249975E+03  0.7546771E-02  0.1235073E+00
         21   -1    0    0  503  502  0.00000000000E+00  0.00000000000E+00  0.61702775231E+02  0.61702775231E+02  0.00000000000E+00 0.  1.
         21   -1    0    0  502  503 -0.00000000000E+00 -0.00000000000E+00 -0.63305031646E+02  0.63305031646E+02  0.00000000000E+00 0.  1.
         25    2    1    2    0    0  0.00000000000E+00  0.00000000000E+00 -0.16022564150E+01  0.12500780688E+03  0.12499753819E+03 0.  0.
          4    1    3    3  501    0  0.14084064222E+01 -0.50927092601E+02  0.35370078691E+02  0.62040288007E+02  0.15500000000E+01 0.  1.
         -4    1    3    3    0  501 -0.14084064222E+01  0.50927092601E+02 -0.36972335106E+02  0.62967518869E+02  0.15500000000E+01 0.  1.
<mgrwt>
<rscale>  2 0.12499754E+03</rscale>
<asrwt>0</asrwt>
<pdfrwt beam="1">  1       21 0.94927347E-02 0.12499754E+03</pdfrwt>
<pdfrwt beam="2">  1       21 0.97392356E-02 0.12499754E+03</pdfrwt>
<totfact> 0.74047187E+06</totfact>
</mgrwt>
</event>
<event>
 5    0  0.1458654E+000  0.1250019E+03  0.7546771E-02  0.1235066E+00
         21   -1    0    0  503  502  0.00000000000E+00  0.00000000000E+00  0.13155937826E+03  0.13155937826E+03  0.00000000000E+00 0. -1.
         21   -1    0    0  502  503 -0.00000000000E+00 -0.00000000000E+00 -0.29692802321E+02  0.29692802321E+02  0.00000000000E+00 0. -1.
         25    2    1    2    0    0  0.00000000000E+00  0.00000000000E+00  0.10186657594E+03  0.16125218059E+03  0.12500186578E+03 0.  0.
          4    1    3    3  501    0 -0.26116822046E+02  0.56352684119E+02  0.42160284360E+02  0.75083989495E+02  0.15500000000E+01 0. -1.
         -4    1    3    3    0  501  0.26116822046E+02 -0.56352684119E+02  0.59706291583E+02  0.86168191091E+02  0.15500000000E+01 0. -1.
<mgrwt>
<rscale>  2 0.12500187E+03</rscale>
<asrwt>0</asrwt>
<pdfrwt beam="1">  1       21 0.20239904E-01 0.12500187E+03</pdfrwt>
<pdfrwt beam="2">  1       21 0.45681235E-02 0.12500187E+03</pdfrwt>
<totfact> 0.69363526E+06</totfact>
</mgrwt>
</event>
<event>
 5    0  0.1222151E+000  0.1250008E+03  0.7546771E-02  0.1235068E+00
         21   -1    0    0  503  502  0.00000000000E+00  0.00000000000E+00  0.11753351957E+04  0.11753351957E+04  0.00000000000E+00 0.  1.
         21   -1    0    0  502  503 -0.00000000000E+00 -0.00000000000E+00 -0.33235604598E+01  0.33235604598E+01  0.00000000000E+00 0.  1.
         25    2    1    2    0    0  0.00000000000E+00  0.00000000000E+00  0.11720116353E+04  0.11786587562E+04  0.12500076133E+03 0.  0.
          4    1    3    3  501    0  0.34961941404E+02  0.37703229679E+01  0.10729899528E+04  0.10735671353E+04  0.15500000000E+01 0.  1.
         -4    1    3    3    0  501 -0.34961941404E+02 -0.37703229679E+01  0.99021682432E+02  0.10509162085E+03  0.15500000000E+01 0.  1.
<mgrwt>
<rscale>  2 0.12500076E+03</rscale>
<asrwt>0</asrwt>
<pdfrwt beam="1">  1       21 0.18082047E+00 0.12500076E+03</pdfrwt>
<pdfrwt beam="2">  1       21 0.51131793E-03 0.12500076E+03</pdfrwt>
<totfact> 0.19573606E+06</totfact>
</mgrwt>
</event>
<event>
 5    0  0.1543459E+000  0.1250015E+03  0.7546771E-02  0.1235067E+00
         21   -1    0    0  503  502  0.00000000000E+00  0.00000000000E+00  0.14340278277E+03  0.14340278277E+03  0.00000000000E+00 0.  1.
         21   -1    0    0  502  503 -0.00000000000E+00 -0.00000000000E+00 -0.27240342835E+02  0.27240342835E+02  0.00000000000E+00 0.  1.
         25    2    1    2    0    0  0.00000000000E+00  0.00000000000E+00  0.11616243993E+03  0.17064312560E+03  0.12500145545E+03 0.  0.
          4    1    3    3  501    0  0.69698025432E+01  0.55907370155E+02  0.94958061864E+02  0.11042485317E+03  0.15500000000E+01 0. -1.
         -4    1    3    3    0  501 -0.69698025432E+01 -0.55907370155E+02  0.21204378069E+02  0.60218272430E+02  0.15500000000E+01 0. -1.
<mgrwt>
<rscale>  2 0.12500146E+03</rscale>
<asrwt>0</asrwt>
<pdfrwt beam="1">  1       21 0.22061966E-01 0.12500146E+03</pdfrwt>
<pdfrwt beam="2">  1       21 0.41908221E-02 0.12500146E+03</pdfrwt>
<totfact> 0.68238957E+06</totfact>
</mgrwt>
</event>
<event>
 5    0  0.1323726E+000  0.1249984E+03  0.7546771E-02  0.1235072E+00
         21   -1    0    0  503  502  0.00000000000E+00  0.00000000000E+00  0.66857503657E+01  0.66857503657E+01  0.00000000000E+00 0. -1.
         21   -1    0    0  502  503 -0.00000000000E+00 -0.00000000000E+00 -0.58425024108E+03  0.58425024108E+03  0.00000000000E+00 0. -1.
         25    2    1    2    0    0  0.00000000000E+00  0.00000000000E+00 -0.57756449072E+03  0.59093599145E+03  0.12499842020E+03 0.  0.
          4    1    3    3  501    0  0.33000614275E+02 -0.48303541071E+02 -0.39251676566E+03  0.39685524621E+03  0.15500000000E+01 0.  1.
         -4    1    3    3    0  501 -0.33000614275E+02  0.48303541071E+02 -0.18504772506E+03  0.19408074524E+03  0.15500000000E+01 0.  1.
<mgrwt>
<rscale>  2 0.12499842E+03</rscale>
<asrwt>0</asrwt>
<pdfrwt beam="1">  1       21 0.10285766E-02 0.12499842E+03</pdfrwt>
<pdfrwt beam="2">  1       21 0.89884689E-01 0.12499842E+03</pdfrwt>
<totfact> 0.37507234E+06</totfact>
</mgrwt>
</event>
<event>
 5    0  0.1589195E+000  0.1249975E+03  0.7546771E-02  0.1235073E+00
         21   -1    0    0  503  502  0.00000000000E+00  0.00000000000E+00  0.31548066248E+02  0.31548066248E+02  0.00000000000E+00 0. -1.
         21   -1    0    0  502  503 -0.00000000000E+00 -0.00000000000E+00 -0.12381401417E+03  0.12381401417E+03  0.00000000000E+00 0. -1.
         25    2    1    2    0    0  0.00000000000E+00  0.00000000000E+00 -0.92265947924E+02  0.15536208042E+03  0.12499748352E+03 0.  0.
          4    1    3    3  501    0  0.10349325250E+02 -0.49088693987E+02  0.15450040948E+00  0.50191979248E+02  0.15500000000E+01 0.  1.
         -4    1    3    3    0  501 -0.10349325250E+02  0.49088693987E+02 -0.92420448334E+02  0.10517010117E+03  0.15500000000E+01 0.  1.
<mgrwt>
<rscale>  2 0.12499748E+03</rscale>
<asrwt>0</asrwt>
<pdfrwt beam="1">  1       21 0.48535486E-02 0.12499748E+03</pdfrwt>
<pdfrwt beam="2">  1       21 0.19048310E-01 0.12499748E+03</pdfrwt>
<totfact> 0.70095171E+06</totfact>
</mgrwt>
</event>
<event>
 5    0  0.1555892E+000  0.1250002E+03  0.7546771E-02  0.1235069E+00
         21   -1    0    0  503  502  0.00000000000E+00  0.00000000000E+00  0.26581214715E+02  0.26581214715E+02  0.00000000000E+00 0. -1.
         21   -1    0    0  502  503 -0.00000000000E+00 -0.00000000000E+00 -0.14695576312E+03  0.14695576312E+03  0.00000000000E+00 0. -1.
         25    2    1    2    0    0  0.00000000000E+00  0.00000000000E+00 -0.12037454840E+03  0.17353697783E+03  0.12500020309E+03 0.  0.
          4    1    3    3  501    0  0.46954141702E+02  0.22557268570E+02 -0.12289367449E+02  0.53543933742E+02  0.15500000000E+01 0.  1.
         -4    1    3    3    0  501 -0.46954141702E+02 -0.22557268570E+02 -0.10808518095E+03  0.11999304409E+03  0.15500000000E+01 0.  1.
<mgrwt>
<rscale>  2 0.12500020E+03</rscale>
<asrwt>0</asrwt>
<pdfrwt beam="1">  1       21 0.40894176E-02 0.12500020E+03</pdfrwt>
<pdfrwt beam="2">  1       21 0.22608579E-01 0.12500020E+03</pdfrwt>
<totfact> 0.67900450E+06</totfact>
</mgrwt>
</event>
<event>
 5    0  0.1464510E+000  0.1250020E+03  0.7546771E-02  0.1235066E+00
         21   -1    0    0  503  502  0.00000000000E+00  0.00000000000E+00  0.12643868604E+03  0.12643868604E+03  0.00000000000E+00 0.  1.
         21   -1    0    0  502  503 -0.00000000000E+00 -0.00000000000E+00 -0.30895387432E+02  0.30895387432E+02  0.00000000000E+00 0.  1.
         25    2    1    2    0    0  0.00000000000E+00  0.00000000000E+00  0.95543298606E+02  0.15733407347E+03  0.12500195505E+03 0.  0.
          4    1    3    3  501    0  0.13922186815E+02 -0.49319430853E+02  0.92762745197E+02  0.10598850382E+03  0.15500000000E+01 0. -1.
         -4    1    3    3    0  501 -0.13922186815E+02  0.49319430853E+02  0.27805534088E+01  0.51345569650E+02  0.15500000000E+01 0. -1.
<mgrwt>
<rscale>  2 0.12500196E+03</rscale>
<asrwt>0</asrwt>
<pdfrwt beam="1">  1       21 0.19452105E-01 0.12500196E+03</pdfrwt>
<pdfrwt beam="2">  1       21 0.47531366E-02 0.12500196E+03</pdfrwt>
<totfact> 0.69843247E+06</totfact>
</mgrwt>
</event>
<event>
 5    0  0.1427594E+000  0.1250083E+03  0.7546771E-02  0.1235056E+00
         21   -1    0    0  503  502  0.00000000000E+00  0.00000000000E+00  0.17001417027E+02  0.17001417027E+02  0.00000000000E+00 0. -1.
         21   -1    0    0  502  503 -0.00000000000E+00 -0.00000000000E+00 -0.22979068603E+03  0.22979068603E+03  0.00000000000E+00 0. -1.
         25    2    1    2    0    0  0.00000000000E+00  0.00000000000E+00 -0.21278926900E+03  0.24679210305E+03  0.12500827624E+03 0.  0.
          4    1    3    3  501    0  0.75535595266E+01 -0.33378731380E+02 -0.31836975984E+01  0.34405441437E+02  0.15500000000E+01 0.  1.
         -4    1    3    3    0  501 -0.75535595266E+01  0.33378731380E+02 -0.20960557140E+03  0.21238666161E+03  0.15500000000E+01 0.  1.
<mgrwt>
<rscale>  2 0.12500828E+03</rscale>
<asrwt>0</asrwt>
<pdfrwt beam="1">  1       21 0.26156026E-02 0.12500828E+03</pdfrwt>
<pdfrwt beam="2">  1       21 0.35352414E-01 0.12500828E+03</pdfrwt>
<totfact> 0.60168972E+06</totfact>
</mgrwt>
</event>
<event>
 5    0  0.1222151E+000  0.1250058E+03  0.7546771E-02  0.1235060E+00
         21   -1    0    0  503  502  0.00000000000E+00  0.00000000000E+00  0.27520354714E+03  0.27520354714E+03  0.00000000000E+00 0. -1.
         21   -1    0    0  502  503 -0.00000000000E+00 -0.00000000000E+00 -0.14195361855E+02  0.14195361855E+02  0.00000000000E+00 0. -1.
         25    2    1    2    0    0  0.00000000000E+00  0.00000000000E+00  0.26100818529E+03  0.28939890900E+03  0.12500582283E+03 0.  0.
          4    1    3    3  501    0 -0.94938298923E+01  0.21558119887E+02  0.26448575535E+03  0.26553719631E+03  0.15500000000E+01 0.  1.
         -4    1    3    3    0  501  0.94938298923E+01 -0.21558119887E+02 -0.34775700610E+01  0.23861712692E+02  0.15500000000E+01 0.  1.
<mgrwt>
<rscale>  2 0.12500582E+03</rscale>
<asrwt>0</asrwt>
<pdfrwt beam="1">  1       21 0.42339003E-01 0.12500582E+03</pdfrwt>
<pdfrwt beam="2">  1       21 0.21839020E-02 0.12500582E+03</pdfrwt>
<totfact> 0.56340589E+06</totfact>
</mgrwt>
</event>
<event>
 5    0  0.1379269E+000  0.1249976E+03  0.7546771E-02  0.1235073E+00
         21   -1    0    0  503  502  0.00000000000E+00  0.00000000000E+00  0.34558612040E+03  0.34558612040E+03  0.00000000000E+00 0.  1.
         21   -1    0    0  502  503 -0.00000000000E+00 -0.00000000000E+00 -0.11302831835E+02  0.11302831835E+02  0.00000000000E+00 0.  1.
         25    2    1    2    0    0  0.00000000000E+00  0.00000000000E+00  0.33428328857E+03  0.35688895224E+03  0.12499762883E+03 0.  0.
          4    1    3    3  501    0 -0.31074725463E+01 -0.38958403158E+02  0.27960417356E+02  0.48079111899E+02  0.15500000000E+01 0.  1.
         -4    1    3    3    0  501  0.31074725463E+01  0.38958403158E+02  0.30632287121E+03  0.30880984034E+03  0.15500000000E+01 0.  1.
<mgrwt>
<rscale>  2 0.12499763E+03</rscale>
<asrwt>0</asrwt>
<pdfrwt beam="1">  1       21 0.53167087E-01 0.12499763E+03</pdfrwt>
<pdfrwt beam="2">  1       21 0.17388975E-02 0.12499763E+03</pdfrwt>
<totfact> 0.51036687E+06</totfact>
</mgrwt>
</event>
<event>
 5    0  0.1434270E+000  0.1250027E+03  0.7546771E-02  0.1235065E+00
         21   -1    0    0  503  502  0.00000000000E+00  0.00000000000E+00  0.36258849354E+02  0.36258849354E+02  0.00000000000E+00 0.  1.
         21   -1    0    0  502  503 -0.00000000000E+00 -0.00000000000E+00 -0.10773705693E+03  0.10773705693E+03  0.00000000000E+00 0.  1.
         25    2    1    2    0    0  0.00000000000E+00  0.00000000000E+00 -0.71478207580E+02  0.14399590629E+03  0.12500274745E+03 0.  0.
          4    1    3    3  501    0 -0.11527892231E+02  0.31209112790E+02  0.25184557693E+02  0.41756023118E+02  0.15500000000E+01 0.  1.
         -4    1    3    3    0  501  0.11527892231E+02 -0.31209112790E+02 -0.96662765273E+02  0.10223988317E+03  0.15500000000E+01 0.  1.
<mgrwt>
<rscale>  2 0.12500275E+03</rscale>
<asrwt>0</asrwt>
<pdfrwt beam="1">  1       21 0.55782845E-02 0.12500275E+03</pdfrwt>
<pdfrwt beam="2">  1       21 0.16574932E-01 0.12500275E+03</pdfrwt>
<totfact> 0.71516842E+06</totfact>
</mgrwt>
</event>
<event>
 5    0  0.1303579E+000  0.1249965E+03  0.7546771E-02  0.1235075E+00
         21   -1    0    0  503  502  0.00000000000E+00  0.00000000000E+00  0.63125661505E+03  0.63125661505E+03  0.00000000000E+00 0.  1.
         21   -1    0    0  502  503 -0.00000000000E+00 -0.00000000000E+00 -0.61877115088E+01  0.61877115088E+01  0.00000000000E+00 0.  1.
         25    2    1    2    0    0  0.00000000000E+00  0.00000000000E+00  0.62506890354E+03  0.63744432656E+03  0.12499654110E+03 0.  0.
          4    1    3    3  501    0 -0.59793321853E+02  0.11438410466E+02  0.24085646409E+03  0.24843574092E+03  0.15500000000E+01 0.  1.
         -4    1    3    3    0  501  0.59793321853E+02 -0.11438410466E+02  0.38421243945E+03  0.38900858564E+03  0.15500000000E+01 0.  1.
<mgrwt>
<rscale>  2 0.12499654E+03</rscale>
<asrwt>0</asrwt>
<pdfrwt beam="1">  1       21 0.97116352E-01 0.12499654E+03</pdfrwt>
<pdfrwt beam="2">  1       21 0.95195611E-03 0.12499654E+03</pdfrwt>
<totfact> 0.35455223E+06</totfact>
</mgrwt>
</event>
<event>
 5    0  0.1445822E+000  0.1250000E+03  0.7546771E-02  0.1235069E+00
         21   -1    0    0  503  502  0.00000000000E+00  0.00000000000E+00  0.54753381890E+02  0.54753381890E+02  0.00000000000E+00 0. -1.
         21   -1    0    0  502  503 -0.00000000000E+00 -0.00000000000E+00 -0.71342678056E+02  0.71342678056E+02  0.00000000000E+00 0. -1.
         25    2    1    2    0    0  0.00000000000E+00  0.00000000000E+00 -0.16589296165E+02  0.12609605995E+03  0.12500004635E+03 0.  0.
          4    1    3    3  501    0 -0.75479585417E+00 -0.30651205451E+02 -0.63212638631E+02  0.70273083717E+02  0.15500000000E+01 0. -1.
         -4    1    3    3    0  501  0.75479585417E+00  0.30651205451E+02  0.46623342466E+02  0.55822976229E+02  0.15500000000E+01 0. -1.
<mgrwt>
<rscale>  2 0.12500005E+03</rscale>
<asrwt>0</asrwt>
<pdfrwt beam="1">  1       21 0.84235973E-02 0.12500005E+03</pdfrwt>
<pdfrwt beam="2">  1       21 0.10975797E-01 0.12500005E+03</pdfrwt>
<totfact> 0.73892717E+06</totfact>
</mgrwt>
</event>
<event>
 4    0  0.1951734E+000  0.1248785E+03  0.7546771E-02  0.1235259E+00
         21   -1    0    0  503  502  0.00000000000E+00  0.00000000000E+00  0.30805466022E+02  0.30805466022E+02  0.00000000000E+00 0. -1.
         21   -1    0    0  502  503 -0.00000000000E+00 -0.00000000000E+00 -0.12655748020E+03  0.12655748020E+03  0.00000000000E+00 0. -1.
          4    1    1    2  501    0 -0.53933078328E+02 -0.16490102744E+02 -0.14167658604E+02  0.58170658212E+02  0.15500000000E+01 0.  1.
         -4    1    1    2    0  501  0.53933078328E+02  0.16490102744E+02 -0.81584355575E+02  0.99192288012E+02  0.15500000000E+01 0.  1.
<mgrwt>
<rscale>  2 0.12487854E+03</rscale>
<asrwt>0</asrwt>
<pdfrwt beam="1">  1       21 0.47393025E-02 0.12487854E+03</pdfrwt>
<pdfrwt beam="2">  1       21 0.19470381E-01 0.12487854E+03</pdfrwt>
<totfact> 0.70059329E+06</totfact>
</mgrwt>
</event>
<event>
 5    0  0.1658318E+000  0.1249998E+03  0.7546771E-02  0.1235070E+00
         21   -1    0    0  503  502  0.00000000000E+00  0.00000000000E+00  0.56717678049E+02  0.56717678049E+02  0.00000000000E+00 0.  1.
         21   -1    0    0  502  503 -0.00000000000E+00 -0.00000000000E+00 -0.68871578555E+02  0.68871578555E+02  0.00000000000E+00 0.  1.
         25    2    1    2    0    0  0.00000000000E+00  0.00000000000E+00 -0.12153900506E+02  0.12558925660E+03  0.12499977631E+03 0.  0.
          4    1    3    3  501    0  0.57409252957E+02 -0.24641588245E+02 -0.69774597715E+01  0.62881775112E+02  0.15500000000E+01 0. -1.
         -4    1    3    3    0  501 -0.57409252957E+02  0.24641588245E+02 -0.51764407347E+01  0.62707481492E+02  0.15500000000E+01 0. -1.
<mgrwt>
<rscale>  2 0.12499978E+03</rscale>
<asrwt>0</asrwt>
<pdfrwt beam="1">  1       21 0.87257966E-02 0.12499978E+03</pdfrwt>
<pdfrwt beam="2">  1       21 0.10595627E-01 0.12499978E+03</pdfrwt>
<totfact> 0.73963361E+06</totfact>
</mgrwt>
</event>
<event>
 5    0  0.1534300E+000  0.1250045E+03  0.7546771E-02  0.1235062E+00
         21   -1    0    0  503  502  0.00000000000E+00  0.00000000000E+00  0.12367710637E+03  0.12367710637E+03  0.00000000000E+00 0.  1.
         21   -1    0    0  502  503 -0.00000000000E+00 -0.00000000000E+00 -0.31586511238E+02  0.31586511238E+02  0.00000000000E+00 0.  1.
         25    2    1    2    0    0  0.00000000000E+00  0.00000000000E+00  0.92090595131E+02  0.15526361761E+03  0.12500445288E+03 0.  0.
          4    1    3    3  501    0 -0.51490569851E+02  0.35248627493E+02  0.42043364636E+02  0.75258165893E+02  0.15500000000E+01 0.  1.
         -4    1    3    3    0  501  0.51490569851E+02 -0.35248627493E+02  0.50047230496E+02  0.80005451714E+02  0.15500000000E+01 0.  1.
<mgrwt>
<rscale>  2 0.12500445E+03</rscale>
<asrwt>0</asrwt>
<pdfrwt beam="1">  1       21 0.19027247E-01 0.12500445E+03</pdfrwt>
<pdfrwt beam="2">  1       21 0.48594633E-02 0.12500445E+03</pdfrwt>
<totfact> 0.70094970E+06</totfact>
</mgrwt>
</event>
<event>
 5    0  0.1384051E+000  0.1249943E+03  0.7546771E-02  0.1235078E+00
         21   -1    0    0  503  502  0.00000000000E+00  0.00000000000E+00  0.52573626015E+03  0.52573626015E+03  0.00000000000E+00 0. -1.
         21   -1    0    0  502  503 -0.00000000000E+00 -0.00000000000E+00 -0.74293779640E+01  0.74293779640E+01  0.00000000000E+00 0. -1.
         25    2    1    2    0    0  0.00000000000E+00  0.00000000000E+00  0.51830688219E+03  0.53316563812E+03  0.12499429405E+03 0.  0.
          4    1    3    3  501    0 -0.21294692817E+02 -0.48472311089E+02  0.11765244749E+03  0.12902530676E+03  0.15500000000E+01 0.  1.
         -4    1    3    3    0  501  0.21294692817E+02  0.48472311089E+02  0.40065443469E+03  0.40414033135E+03  0.15500000000E+01 0.  1.
<mgrwt>
<rscale>  2 0.12499429E+03</rscale>
<asrwt>0</asrwt>
<pdfrwt beam="1">  1       21 0.80882472E-01 0.12499429E+03</pdfrwt>
<pdfrwt beam="2">  1       21 0.11429816E-02 0.12499429E+03</pdfrwt>
<totfact> 0.40306440E+06</totfact>
</mgrwt>
</event>
<event>
 5    0  0.1487427E+000  0.1249999E+03  0.7546771E-02  0.1235069E+00
         21   -1    0    0  503  502  0.00000000000E+00  0.00000000000E+00  0.10077531810E+02  0.10077531810E+02  0.00000000000E+00 0. -1.
         21   -1    0    0  502  503 -0.00000000000E+00 -0.00000000000E+00 -0.38761900832E+03  0.38761900832E+03  0.00000000000E+00 0. -1.
         25    2    1    2    0    0  0.00000000000E+00  0.00000000000E+00 -0.37754147651E+03  0.39769654013E+03  0.12499988618E+03 0.  0.
          4    1    3    3  501    0 -0.13049157476E+02  0.61102055061E+02 -0.18977049685E+03  0.19979736139E+03  0.15500000000E+01 0.  1.
         -4    1    3    3    0  501  0.13049157476E+02 -0.61102055061E+02 -0.18777097966E+03  0.19789917874E+03  0.15500000000E+01 0.  1.
<mgrwt>
<rscale>  2 0.12499989E+03</rscale>
<asrwt>0</asrwt>
<pdfrwt beam="1">  1       21 0.15503895E-02 0.12499989E+03</pdfrwt>
<pdfrwt beam="2">  1       21 0.59633694E-01 0.12499989E+03</pdfrwt>
<totfact> 0.48194650E+06</totfact>
</mgrwt>
</event>
<event>
 5    0  0.1287318E+000  0.1250009E+03  0.7546771E-02  0.1235068E+00
         21   -1    0    0  503  502  0.00000000000E+00  0.00000000000E+00  0.51642487372E+01  0.51642487372E+01  0.00000000000E+00 0.  1.
         21   -1    0    0  502  503 -0.00000000000E+00 -0.00000000000E+00 -0.75641321032E+03  0.75641321032E+03  0.00000000000E+00 0.  1.
         25    2    1    2    0    0  0.00000000000E+00  0.00000000000E+00 -0.75124896158E+03  0.76157745906E+03  0.12500089546E+03 0.  0.
          4    1    3    3  501    0 -0.17417543840E+02  0.58871733830E+02 -0.30492655078E+03  0.31104960335E+03  0.15500000000E+01 0. -1.
         -4    1    3    3    0  501  0.17417543840E+02 -0.58871733830E+02 -0.44632241081E+03  0.45052785570E+03  0.15500000000E+01 0. -1.
<mgrwt>
<rscale>  2 0.12500090E+03</rscale>
<asrwt>0</asrwt>
<pdfrwt beam="1">  1       21 0.79450005E-03 0.12500090E+03</pdfrwt>
<pdfrwt beam="2">  1       21 0.11637123E+00 0.12500090E+03</pdfrwt>
<totfact> 0.30665117E+06</totfact>
</mgrwt>
</event>
<event>
 5    0  0.1222151E+000  0.1250003E+03  0.7546771E-02  0.1235069E+00
         21   -1    0    0  503  502  0.00000000000E+00  0.00000000000E+00  0.85251643649E+03  0.85251643649E+03  0.00000000000E+00 0. -1.
         21   -1    0    0  502  503 -0.00000000000E+00 -0.00000000000E+00 -0.45820446183E+01  0.45820446183E+01  0.00000000000E+00 0. -1.
         25    2    1    2    0    0  0.00000000000E+00  0.00000000000E+00  0.84793439187E+03  0.85709848111E+03  0.12500029360E+03 0.  0.
          4    1    3    3  501    0  0.87106781452E+01 -0.61314102080E+02  0.36718798267E+03  0.37237711012E+03  0.15500000000E+01 0. -1.
         -4    1    3    3    0  501 -0.87106781452E+01  0.61314102080E+02  0.48074640920E+03  0.48472137099E+03  0.15500000000E+01 0. -1.
<mgrwt>
<rscale>  2 0.12500029E+03</rscale>
<asrwt>0</asrwt>
<pdfrwt beam="1">  1       21 0.13115625E+00 0.12500029E+03</pdfrwt>
<pdfrwt beam="2">  1       21 0.70493062E-03 0.12500029E+03</pdfrwt>
<totfact> 0.27555914E+06</totfact>
</mgrwt>
</event>
<event>
 4    0  0.1910496E+000  0.1242065E+03  0.7546771E-02  0.1236315E+00
         21   -1    0    0  503  502  0.00000000000E+00  0.00000000000E+00  0.12436963274E+03  0.12436963274E+03  0.00000000000E+00 0.  1.
         21   -1    0    0  502  503 -0.00000000000E+00 -0.00000000000E+00 -0.31010877902E+02  0.31010877902E+02  0.00000000000E+00 0.  1.
          4    1    1    2  501    0  0.42792458180E+02 -0.34892753952E+02  0.82188650667E+02  0.99025630793E+02  0.15500000000E+01 0. -1.
         -4    1    1    2    0  501 -0.42792458180E+02  0.34892753952E+02  0.11170104168E+02  0.56354879847E+02  0.15500000000E+01 0. -1.
<mgrwt>
<rscale>  2 0.12420647E+03</rscale>
<asrwt>0</asrwt>
<pdfrwt beam="1">  1       21 0.19133789E-01 0.12420647E+03</pdfrwt>
<pdfrwt beam="2">  1       21 0.47709044E-02 0.12420647E+03</pdfrwt>
<totfact> 0.71521573E+06</totfact>
</mgrwt>
</event>
<event>
 5    0  0.1463377E+000  0.1250008E+03  0.7546771E-02  0.1235068E+00
         21   -1    0    0  503  502  0.00000000000E+00  0.00000000000E+00  0.39424358644E+02  0.39424358644E+02  0.00000000000E+00 0. -1.
         21   -1    0    0  502  503 -0.00000000000E+00 -0.00000000000E+00 -0.99083370503E+02  0.99083370503E+02  0.00000000000E+00 0. -1.
         25    2    1    2    0    0  0.00000000000E+00  0.00000000000E+00 -0.59659011859E+02  0.13850772915E+03  0.12500077335E+03 0.  0.
          4    1    3    3  501    0  0.34431198776E+02 -0.83483413237E+01 -0.86856065172E+02  0.93816740559E+02  0.15500000000E+01 0. -1.
         -4    1    3    3    0  501 -0.34431198776E+02  0.83483413237E+01  0.27197053313E+02  0.44690988587E+02  0.15500000000E+01 0. -1.
<mgrwt>
<rscale>  2 0.12500077E+03</rscale>
<asrwt>0</asrwt>
<pdfrwt beam="1">  1       21 0.60652860E-02 0.12500077E+03</pdfrwt>
<pdfrwt beam="2">  1       21 0.15243595E-01 0.12500077E+03</pdfrwt>
<totfact> 0.72233301E+06</totfact>
</mgrwt>
</event>
<event>
 5    0  0.1222151E+000  0.1250005E+03  0.7546771E-02  0.1235068E+00
         21   -1    0    0  503  502  0.00000000000E+00  0.00000000000E+00  0.12946082609E+04  0.12946082609E+04  0.00000000000E+00 0.  1.
         21   -1    0    0  502  503 -0.00000000000E+00 -0.00000000000E+00 -0.30173467925E+01  0.30173467925E+01  0.00000000000E+00 0.  1.
         25    2    1    2    0    0  0.00000000000E+00  0.00000000000E+00  0.12915909141E+04  0.12976256077E+04  0.12500051333E+03 0.  0.
          4    1    3    3  501    0  0.49375636986E+02  0.27052503884E+02  0.36453304315E+03  0.36885841937E+03  0.15500000000E+01 0.  1.
         -4    1    3    3    0  501 -0.49375636986E+02 -0.27052503884E+02  0.92705787093E+03  0.92876718829E+03  0.15500000000E+01 0.  1.
<mgrwt>
<rscale>  2 0.12500051E+03</rscale>
<asrwt>0</asrwt>
<pdfrwt beam="1">  1       21 0.19917006E+00 0.12500051E+03</pdfrwt>
<pdfrwt beam="2">  1       21 0.46420823E-03 0.12500051E+03</pdfrwt>
<totfact> 0.17294857E+06</totfact>
</mgrwt>
</event>
<event>
 5    0  0.1222151E+000  0.1250075E+03  0.7546771E-02  0.1235058E+00
         21   -1    0    0  503  502  0.00000000000E+00  0.00000000000E+00  0.13606674347E+01  0.13606674347E+01  0.00000000000E+00 0.  1.
         21   -1    0    0  502  503 -0.00000000000E+00 -0.00000000000E+00 -0.28711775238E+04  0.28711775238E+04  0.00000000000E+00 0.  1.
         25    2    1    2    0    0  0.00000000000E+00  0.00000000000E+00 -0.28698168563E+04  0.28725381912E+04  0.12500748387E+03 0.  0.
          4    1    3    3  501    0 -0.34832987822E+02  0.18122711728E+02 -0.25518228314E+04  0.25521253761E+04  0.15500000000E+01 0. -1.
         -4    1    3    3    0  501  0.34832987822E+02 -0.18122711728E+02 -0.31799402489E+03  0.32041281511E+03  0.15500000000E+01 0. -1.
<mgrwt>
<rscale>  2 0.12500748E+03</rscale>
<asrwt>0</asrwt>
<pdfrwt beam="1">  1       21 0.20933410E-03 0.12500748E+03</pdfrwt>
<pdfrwt beam="2">  1       21 0.44171824E+00 0.12500748E+03</pdfrwt>
<totfact> 0.21856515E+05</totfact>
</mgrwt>
</event>
<event>
 5    0  0.1251349E+000  0.1250000E+03  0.7546771E-02  0.1235069E+00
         21   -1    0    0  503  502  0.00000000000E+00  0.00000000000E+00  0.68868434139E+03  0.68868434139E+03  0.00000000000E+00 0. -1.
         21   -1    0    0  502  503 -0.00000000000E+00 -0.00000000000E+00 -0.56720438664E+01  0.56720438664E+01  0.00000000000E+00 0. -1.
         25    2    1    2    0    0  0.00000000000E+00  0.00000000000E+00  0.68301229752E+03  0.69435638525E+03  0.12499996471E+03 0.  0.
          4    1    3    3  501    0 -0.42290302729E+02 -0.12160494978E+02  0.58789989890E+03  0.58954647058E+03  0.15500000000E+01 0.  1.
         -4    1    3    3    0  501  0.42290302729E+02  0.12160494978E+02  0.95112398617E+02  0.10480991467E+03  0.15500000000E+01 0.  1.
<mgrwt>
<rscale>  2 0.12499996E+03</rscale>
<asrwt>0</asrwt>
<pdfrwt beam="1">  1       21 0.10595137E+00 0.12499996E+03</pdfrwt>
<pdfrwt beam="2">  1       21 0.87262268E-03 0.12499996E+03</pdfrwt>
<totfact> 0.33128903E+06</totfact>
</mgrwt>
</event>
<event>
 5    0  0.1548279E+000  0.1249998E+03  0.7546771E-02  0.1235070E+00
         21   -1    0    0  503  502  0.00000000000E+00  0.00000000000E+00  0.67422668557E+02  0.67422668557E+02  0.00000000000E+00 0. -1.
         21   -1    0    0  502  503 -0.00000000000E+00 -0.00000000000E+00 -0.57936542504E+02  0.57936542504E+02  0.00000000000E+00 0. -1.
         25    2    1    2    0    0  0.00000000000E+00  0.00000000000E+00  0.94861260531E+01  0.12535921106E+03  0.12499978084E+03 0.  0.
          4    1    3    3  501    0 -0.32414938116E+02  0.33781611046E+02  0.46237249389E+02  0.65819535010E+02  0.15500000000E+01 0. -1.
         -4    1    3    3    0  501  0.32414938116E+02 -0.33781611046E+02 -0.36751123336E+02  0.59539676052E+02  0.15500000000E+01 0. -1.
<mgrwt>
<rscale>  2 0.12499978E+03</rscale>
<asrwt>0</asrwt>
<pdfrwt beam="1">  1       21 0.10372718E-01 0.12499978E+03</pdfrwt>
<pdfrwt beam="2">  1       21 0.89133142E-02 0.12499978E+03</pdfrwt>
<totfact> 0.73995494E+06</totfact>
</mgrwt>
</event>
<event>
 5    0  0.1222151E+000  0.1250011E+03  0.7546771E-02  0.1235068E+00
         21   -1    0    0  503  502  0.00000000000E+00  0.00000000000E+00  0.16590956388E+04  0.16590956388E+04  0.00000000000E+00 0.  1.
         21   -1    0    0  502  503 -0.00000000000E+00 -0.00000000000E+00 -0.23544878509E+01  0.23544878509E+01  0.00000000000E+00 0.  1.
         25    2    1    2    0    0  0.00000000000E+00  0.00000000000E+00  0.16567411510E+04  0.16614501267E+04  0.12500112840E+03 0.  0.
          4    1    3    3  501    0  0.38584222011E+02 -0.27492548697E+02  0.13697983012E+04  0.13706182440E+04  0.15500000000E+01 0. -1.
         -4    1    3    3    0  501 -0.38584222011E+02  0.27492548697E+02  0.28694284982E+03  0.29083188269E+03  0.15500000000E+01 0. -1.
<mgrwt>
<rscale>  2 0.12500113E+03</rscale>
<asrwt>0</asrwt>
<pdfrwt beam="1">  1       21 0.25524455E+00 0.12500113E+03</pdfrwt>
<pdfrwt beam="2">  1       21 0.36223023E-03 0.12500113E+03</pdfrwt>
<totfact> 0.11759066E+06</totfact>
</mgrwt>
</event>
<event>
 5    0  0.1615539E+000  0.1250089E+03  0.7546771E-02  0.1235055E+00
         21   -1    0    0  503  502  0.00000000000E+00  0.00000000000E+00  0.34776244722E+02  0.34776244722E+02  0.00000000000E+00 0. -1.
         21   -1    0    0  502  503 -0.00000000000E+00 -0.00000000000E+00 -0.11234126425E+03  0.11234126425E+03  0.00000000000E+00 0. -1.
         25    2    1    2    0    0  0.00000000000E+00  0.00000000000E+00 -0.77565019526E+02  0.14711750897E+03  0.12500891645E+03 0.  0.
          4    1    3    3  501    0 -0.36357253311E+01  0.57716582555E+02 -0.10933448559E+02  0.58875845624E+02  0.15500000000E+01 0.  1.
         -4    1    3    3    0  501  0.36357253311E+01 -0.57716582555E+02 -0.66631570967E+02  0.88241663346E+02  0.15500000000E+01 0.  1.
<mgrwt>
<rscale>  2 0.12500892E+03</rscale>
<asrwt>0</asrwt>
<pdfrwt beam="1">  1       21 0.53501915E-02 0.12500892E+03</pdfrwt>
<pdfrwt beam="2">  1       21 0.17283271E-01 0.12500892E+03</pdfrwt>
<totfact> 0.71107055E+06</totfact>
</mgrwt>
</event>
<event>
 5    0  0.1511582E+000  0.1249577E+03  0.7546771E-02  0.1235135E+00
         21   -1    0    0  503  502  0.00000000000E+00  0.00000000000E+00  0.50429340755E+02  0.50429340755E+02  0.00000000000E+00 0. -1.
         21   -1    0    0  502  503 -0.00000000000E+00 -0.00000000000E+00 -0.77407484498E+02  0.77407484498E+02  0.00000000000E+00 0. -1.
         25    2    1    2    0    0  0.00000000000E+00  0.00000000000E+00 -0.26978143743E+02  0.12783682525E+03  0.12495772746E+03 0.  0.
          4    1    3    3  501    0  0.36094205519E+02 -0.40060173963E+01  0.38498766659E+02  0.52947118729E+02  0.15500000000E+01 0.  1.
         -4    1    3    3    0  501 -0.36094205519E+02  0.40060173963E+01 -0.65476910402E+02  0.74889706524E+02  0.15500000000E+01 0.  1.
<mgrwt>
<rscale>  2 0.12495773E+03</rscale>
<asrwt>0</asrwt>
<pdfrwt beam="1">  1       21 0.77583602E-02 0.12495773E+03</pdfrwt>
<pdfrwt beam="2">  1       21 0.11908844E-01 0.12495773E+03</pdfrwt>
<totfact> 0.73735158E+06</totfact>
</mgrwt>
</event>
<event>
 5    0  0.1494555E+000  0.1249922E+03  0.7546771E-02  0.1235081E+00
         21   -1    0    0  503  502  0.00000000000E+00  0.00000000000E+00  0.80596924740E+02  0.80596924740E+02  0.00000000000E+00 0.  1.
         21   -1    0    0  502  503 -0.00000000000E+00 -0.00000000000E+00 -0.48460462880E+02  0.48460462880E+02  0.00000000000E+00 0.  1.
         25    2    1    2    0    0  0.00000000000E+00  0.00000000000E+00  0.32136461860E+02  0.12905738762E+03  0.12499222823E+03 0.  0.
          4    1    3    3  501    0  0.42396353113E+02 -0.25695477816E+02  0.55326573186E+02  0.74304377650E+02  0.15500000000E+01 0.  1.
         -4    1    3    3    0  501 -0.42396353113E+02  0.25695477816E+02 -0.23190111325E+02  0.54753009970E+02  0.15500000000E+01 0.  1.
<mgrwt>
<rscale>  2 0.12499223E+03</rscale>
<asrwt>0</asrwt>
<pdfrwt beam="1">  1       21 0.12399527E-01 0.12499223E+03</pdfrwt>
<pdfrwt beam="2">  1       21 0.74554558E-02 0.12499223E+03</pdfrwt>
<totfact> 0.73505759E+06</totfact>
</mgrwt>
</event>
<event>
 5    0  0.1331364E+000  0.1250003E+03  0.7546771E-02  0.1235069E+00
         21   -1    0    0  503  502  0.00000000000E+00  0.00000000000E+00  0.88897345372E+01  0.88897345372E+01  0.00000000000E+00 0. -1.
         21   -1    0    0  502  503 -0.00000000000E+00 -0.00000000000E+00 -0.43941342560E+03  0.43941342560E+03  0.00000000000E+00 0. -1.
         25    2    1    2    0    0  0.00000000000E+00  0.00000000000E+00 -0.43052369106E+03  0.44830316013E+03  0.12500029929E+03 0.  0.
          4    1    3    3  501    0  0.31815176592E+02  0.18721772694E+02 -0.39605267963E+03  0.39777234415E+03  0.15500000000E+01 0.  1.
         -4    1    3    3    0  501 -0.31815176592E+02 -0.18721772694E+02 -0.34471011432E+02  0.50530815979E+02  0.15500000000E+01 0.  1.
<mgrwt>
<rscale>  2 0.12500030E+03</rscale>
<asrwt>0</asrwt>
<pdfrwt beam="1">  1       21 0.13676517E-02 0.12500030E+03</pdfrwt>
<pdfrwt beam="2">  1       21 0.67602056E-01 0.12500030E+03</pdfrwt>
<totfact> 0.44993646E+06</totfact>
</mgrwt>
</event>
<event>
 5    0  0.1222151E+000  0.1249593E+03  0.7546771E-02  0.1235133E+00
         21   -1    0    0  503  502  0.00000000000E+00  0.00000000000E+00  0.82982260238E+02  0.82982260238E+02  0.00000000000E+00 0. -1.
         21   -1    0    0  502  503 -0.00000000000E+00 -0.00000000000E+00 -0.47042649760E+02  0.47042649760E+02  0.00000000000E+00 0. -1.
         25    2    1    2    0    0  0.00000000000E+00  0.00000000000E+00  0.35939610478E+02  0.13002491000E+03  0.12495927984E+03 0.  0.
          4    1    3    3  501    0  0.81670738299E+01 -0.22574790900E+02  0.77969992761E+02  0.81596841546E+02  0.15500000000E+01 0.  1.
         -4    1    3    3    0  501 -0.81670738299E+01  0.22574790900E+02 -0.42030382284E+02  0.48428068452E+02  0.15500000000E+01 0.  1.
<mgrwt>
<rscale>  2 0.12495928E+03</rscale>
<asrwt>0</asrwt>
<pdfrwt beam="1">  1       21 0.12766502E-01 0.12495928E+03</pdfrwt>
<pdfrwt beam="2">  1       21 0.72373307E-02 0.12495928E+03</pdfrwt>
<totfact> 0.73437903E+06</totfact>
</mgrwt>
</event>
<event>
 4    0  0.1503098E+000  0.1251824E+03  0.7546771E-02  0.1234784E+00
         21   -1    0    0  503  502  0.00000000000E+00  0.00000000000E+00  0.21383673257E+02  0.21383673257E+02  0.00000000000E+00 0. -1.
         21   -1    0    0  502  503 -0.00000000000E+00 -0.00000000000E+00 -0.18320795391E+03  0.18320795391E+03  0.00000000000E+00 0. -1.
          4    1    1    2  501    0  0.60422888702E+02  0.11194553384E+02 -0.10018172183E+03  0.11753732766E+03  0.15500000000E+01 0.  1.
         -4    1    1    2    0  501 -0.60422888702E+02 -0.11194553384E+02 -0.61642558830E+02  0.87054299513E+02  0.15500000000E+01 0.  1.
<mgrwt>
<rscale>  2 0.12518241E+03</rscale>
<asrwt>0</asrwt>
<pdfrwt beam="1">  1       21 0.32897959E-02 0.12518241E+03</pdfrwt>
<pdfrwt beam="2">  1       21 0.28185839E-01 0.12518241E+03</pdfrwt>
<totfact> 0.64136536E+06</totfact>
</mgrwt>
</event>
<event>
 5    0  0.1222151E+000  0.1249966E+03  0.7546771E-02  0.1235075E+00
         21   -1    0    0  503  502  0.00000000000E+00  0.00000000000E+00  0.91072089212E+03  0.91072089212E+03  0.00000000000E+00 0.  1.
         21   -1    0    0  502  503 -0.00000000000E+00 -0.00000000000E+00 -0.42889509391E+01  0.42889509391E+01  0.00000000000E+00 0.  1.
         25    2    1    2    0    0  0.00000000000E+00  0.00000000000E+00  0.90643194118E+03  0.91500984305E+03  0.12499659556E+03 0.  0.
          4    1    3    3  501    0 -0.28852674126E+02 -0.43643087389E+02  0.70322665460E+03  0.70517184156E+03  0.15500000000E+01 0.  1.
         -4    1    3    3    0  501  0.28852674126E+02  0.43643087389E+02  0.20320528658E+03  0.20983800150E+03  0.15500000000E+01 0.  1.
<mgrwt>
<rscale>  2 0.12499660E+03</rscale>
<asrwt>0</asrwt>
<pdfrwt beam="1">  1       21 0.14011075E+00 0.12499660E+03</pdfrwt>
<pdfrwt beam="2">  1       21 0.65983933E-03 0.12499660E+03</pdfrwt>
<totfact> 0.25874325E+06</totfact>
</mgrwt>
</event>
<event>
 5    0  0.1541697E+000  0.1249976E+03  0.7546771E-02  0.1235073E+00
         21   -1    0    0  503  502  0.00000000000E+00  0.00000000000E+00  0.86920051956E+02  0.86920051956E+02  0.00000000000E+00 0.  1.
         21   -1    0    0  502  503 -0.00000000000E+00 -0.00000000000E+00 -0.44938989939E+02  0.44938989939E+02  0.00000000000E+00 0.  1.
         25    2    1    2    0    0  0.00000000000E+00  0.00000000000E+00  0.41981062017E+02  0.13185904189E+03  0.12499758942E+03 0.  0.
          4    1    3    3  501    0 -0.43386657631E+02  0.54140965037E+01 -0.26091048023E+02  0.50939766276E+02  0.15500000000E+01 0. -1.
         -4    1    3    3    0  501  0.43386657631E+02 -0.54140965037E+01  0.68072110040E+02  0.80919275619E+02  0.15500000000E+01 0. -1.
<mgrwt>
<rscale>  2 0.12499759E+03</rscale>
<asrwt>0</asrwt>
<pdfrwt beam="1">  1       21 0.13372316E-01 0.12499759E+03</pdfrwt>
<pdfrwt beam="2">  1       21 0.69136908E-02 0.12499759E+03</pdfrwt>
<totfact> 0.73119638E+06</totfact>
</mgrwt>
</event>
<event>
 5    0  0.1560603E+000  0.1249998E+03  0.7546771E-02  0.1235070E+00
         21   -1    0    0  503  502  0.00000000000E+00  0.00000000000E+00  0.20715277071E+02  0.20715277071E+02  0.00000000000E+00 0.  1.
         21   -1    0    0  502  503 -0.00000000000E+00 -0.00000000000E+00 -0.18856788258E+03  0.18856788258E+03  0.00000000000E+00 0.  1.
         25    2    1    2    0    0  0.00000000000E+00  0.00000000000E+00 -0.16785260551E+03  0.20928315965E+03  0.12499977495E+03 0.  0.
          4    1    3    3  501    0 -0.60666184442E+02  0.66693843899E+01 -0.10632440911E+03  0.12260566502E+03  0.15500000000E+01 0. -1.
         -4    1    3    3    0  501  0.60666184442E+02 -0.66693843899E+01 -0.61528196397E+02  0.86677494626E+02  0.15500000000E+01 0. -1.
<mgrwt>
<rscale>  2 0.12499977E+03</rscale>
<asrwt>0</asrwt>
<pdfrwt beam="1">  1       21 0.31869657E-02 0.12499977E+03</pdfrwt>
<pdfrwt beam="2">  1       21 0.29010444E-01 0.12499977E+03</pdfrwt>
<totfact> 0.63935398E+06</totfact>
</mgrwt>
</event>
<event>
 5    0  0.1523162E+000  0.1249961E+03  0.7546771E-02  0.1235075E+00
         21   -1    0    0  503  502  0.00000000000E+00  0.00000000000E+00  0.55619268111E+02  0.55619268111E+02  0.00000000000E+00 0. -1.
         21   -1    0    0  502  503 -0.00000000000E+00 -0.00000000000E+00 -0.70227523511E+02  0.70227523511E+02  0.00000000000E+00 0. -1.
         25    2    1    2    0    0  0.00000000000E+00  0.00000000000E+00 -0.14608255400E+02  0.12584679162E+03  0.12499605528E+03 0.  0.
          4    1    3    3  501    0 -0.84967159622E+01  0.29727663076E+02  0.47357867458E+02  0.56578248861E+02  0.15500000000E+01 0.  1.
         -4    1    3    3    0  501  0.84967159622E+01 -0.29727663076E+02 -0.61966122858E+02  0.69268542760E+02  0.15500000000E+01 0.  1.
<mgrwt>
<rscale>  2 0.12499606E+03</rscale>
<asrwt>0</asrwt>
<pdfrwt beam="1">  1       21 0.85568105E-02 0.12499606E+03</pdfrwt>
<pdfrwt beam="2">  1       21 0.10804234E-01 0.12499606E+03</pdfrwt>
<totfact> 0.73934635E+06</totfact>
</mgrwt>
</event>
<event>
 5    0  0.1441770E+000  0.1250011E+03  0.7546771E-02  0.1235068E+00
         21   -1    0    0  503  502  0.00000000000E+00  0.00000000000E+00  0.16385900120E+03  0.16385900120E+03  0.00000000000E+00 0.  1.
         21   -1    0    0  502  503 -0.00000000000E+00 -0.00000000000E+00 -0.23839504288E+02  0.23839504288E+02  0.00000000000E+00 0.  1.
         25    2    1    2    0    0  0.00000000000E+00  0.00000000000E+00  0.14001949691E+03  0.18769850548E+03  0.12500107778E+03 0.  0.
          4    1    3    3  501    0  0.33409112791E+02 -0.87516083343E+01  0.14819489643E+03  0.15217387849E+03  0.15500000000E+01 0. -1.
         -4    1    3    3    0  501 -0.33409112791E+02  0.87516083343E+01 -0.81753995218E+01  0.35524626997E+02  0.15500000000E+01 0. -1.
<mgrwt>
<rscale>  2 0.12500108E+03</rscale>
<asrwt>0</asrwt>
<pdfrwt beam="1">  1       21 0.25209076E-01 0.12500108E+03</pdfrwt>
<pdfrwt beam="2">  1       21 0.36676161E-02 0.12500108E+03</pdfrwt>
<totfact> 0.66277361E+06</totfact>
</mgrwt>
</event>
<event>
 5    0  0.1497764E+000  0.1249962E+03  0.7546771E-02  0.1235075E+00
         21   -1    0    0  503  502  0.00000000000E+00  0.00000000000E+00  0.26943259858E+02  0.26943259858E+02  0.00000000000E+00 0. -1.
         21   -1    0    0  502  503 -0.00000000000E+00 -0.00000000000E+00 -0.14497187321E+03  0.14497187321E+03  0.00000000000E+00 0. -1.
         25    2    1    2    0    0  0.00000000000E+00  0.00000000000E+00 -0.11802861335E+03  0.17191513307E+03  0.12499623758E+03 0.  0.
          4    1    3    3  501    0  0.31523566222E+02 -0.26831599613E+02 -0.12337689662E+03  0.13014580702E+03  0.15500000000E+01 0.  1.
         -4    1    3    3    0  501 -0.31523566222E+02  0.26831599613E+02  0.53482832625E+01  0.41769326055E+02  0.15500000000E+01 0.  1.
<mgrwt>
<rscale>  2 0.12499624E+03</rscale>
<asrwt>0</asrwt>
<pdfrwt beam="1">  1       21 0.41451169E-02 0.12499624E+03</pdfrwt>
<pdfrwt beam="2">  1       21 0.22303365E-01 0.12499624E+03</pdfrwt>
<totfact> 0.68097833E+06</totfact>
</mgrwt>
</event>
<event>
 5    0  0.1582736E+000  0.1250203E+03  0.7546771E-02  0.1235038E+00
         21   -1    0    0  503  502  0.00000000000E+00  0.00000000000E+00  0.78471143125E+02  0.78471143125E+02  0.00000000000E+00 0.  1.
         21   -1    0    0  502  503 -0.00000000000E+00 -0.00000000000E+00 -0.49795628447E+02  0.49795628447E+02  0.00000000000E+00 0.  1.
         25    2    1    2    0    0  0.00000000000E+00  0.00000000000E+00  0.28675514678E+02  0.12826677157E+03  0.12502031654E+03 0.  0.
          4    1    3    3  501    0 -0.26104257366E+02  0.53302431575E+02  0.34404167352E+02  0.68619462951E+02  0.15500000000E+01 0. -1.
         -4    1    3    3    0  501  0.26104257366E+02 -0.53302431575E+02 -0.57286526741E+01  0.59647308622E+02  0.15500000000E+01 0. -1.
<mgrwt>
<rscale>  2 0.12502032E+03</rscale>
<asrwt>0</asrwt>
<pdfrwt beam="1">  1       21 0.12072484E-01 0.12502032E+03</pdfrwt>
<pdfrwt beam="2">  1       21 0.76608659E-02 0.12502032E+03</pdfrwt>
<totfact> 0.73559391E+06</totfact>
</mgrwt>
</event>
<event>
 5    0  0.1364189E+000  0.1249858E+03  0.7546771E-02  0.1235091E+00
         21   -1    0    0  503  502  0.00000000000E+00  0.00000000000E+00  0.20659589279E+03  0.20659589279E+03  0.00000000000E+00 0.  1.
         21   -1    0    0  502  503 -0.00000000000E+00 -0.00000000000E+00 -0.18903386469E+02  0.18903386469E+02  0.00000000000E+00 0.  1.
         25    2    1    2    0    0  0.00000000000E+00  0.00000000000E+00  0.18769250632E+03  0.22549927926E+03  0.12498579126E+03 0.  0.
          4    1    3    3  501    0 -0.15746218690E+02 -0.24489028435E+02  0.19357301076E+03  0.19575640197E+03  0.15500000000E+01 0. -1.
         -4    1    3    3    0  501  0.15746218690E+02  0.24489028435E+02 -0.58805044434E+01  0.29742877286E+02  0.15500000000E+01 0. -1.
<mgrwt>
<rscale>  2 0.12498579E+03</rscale>
<asrwt>0</asrwt>
<pdfrwt beam="1">  1       21 0.31783982E-01 0.12498579E+03</pdfrwt>
<pdfrwt beam="2">  1       21 0.29082134E-02 0.12498579E+03</pdfrwt>
<totfact> 0.62287098E+06</totfact>
</mgrwt>
</event>
<event>
 5    0  0.1685947E+000  0.1249994E+03  0.7546771E-02  0.1235070E+00
         21   -1    0    0  503  502  0.00000000000E+00  0.00000000000E+00  0.12480208048E+02  0.12480208048E+02  0.00000000000E+00 0.  1.
         21   -1    0    0  502  503 -0.00000000000E+00 -0.00000000000E+00 -0.31299282788E+03  0.31299282788E+03  0.00000000000E+00 0.  1.
         25    2    1    2    0    0  0.00000000000E+00  0.00000000000E+00 -0.30051261983E+03  0.32547303593E+03  0.12499944975E+03 0.  0.
          4    1    3    3  501    0 -0.62347984570E+02 -0.64205613234E+00 -0.16071361965E+03  0.17239186018E+03  0.15500000000E+01 0. -1.
         -4    1    3    3    0  501  0.62347984570E+02  0.64205613234E+00 -0.13979900019E+03  0.15308117575E+03  0.15500000000E+01 0. -1.
<mgrwt>
<rscale>  2 0.12499945E+03</rscale>
<asrwt>0</asrwt>
<pdfrwt beam="1">  1       21 0.19200321E-02 0.12499945E+03</pdfrwt>
<pdfrwt beam="2">  1       21 0.48152741E-01 0.12499945E+03</pdfrwt>
<totfact> 0.53403200E+06</totfact>
</mgrwt>
</event>
<event>
 5    0  0.1302878E+000  0.1250006E+03  0.7546771E-02  0.1235068E+00
         21   -1    0    0  503  502  0.00000000000E+00  0.00000000000E+00  0.76810067898E+01  0.76810067898E+01  0.00000000000E+00 0. -1.
         21   -1    0    0  502  503 -0.00000000000E+00 -0.00000000000E+00 -0.50856457675E+03  0.50856457675E+03  0.00000000000E+00 0. -1.
         25    2    1    2    0    0  0.00000000000E+00  0.00000000000E+00 -0.50088356996E+03  0.51624558354E+03  0.12500060747E+03 0.  0.
          4    1    3    3  501    0 -0.33259878484E+02  0.17232910020E+02 -0.43915946365E+02  0.57742580040E+02  0.15500000000E+01 0.  1.
         -4    1    3    3    0  501  0.33259878484E+02 -0.17232910020E+02 -0.45696762359E+03  0.45850300350E+03  0.15500000000E+01 0.  1.
<mgrwt>
<rscale>  2 0.12500061E+03</rscale>
<asrwt>0</asrwt>
<pdfrwt beam="1">  1       21 0.11816931E-02 0.12500061E+03</pdfrwt>
<pdfrwt beam="2">  1       21 0.78240723E-01 0.12500061E+03</pdfrwt>
<totfact> 0.41175893E+06</totfact>
</mgrwt>
</event>
<event>
 4    0  0.1498638E+000  0.1248722E+03  0.7546771E-02  0.1235269E+00
         21   -1    0    0  503  502  0.00000000000E+00  0.00000000000E+00  0.70582331924E+03  0.70582331924E+03  0.00000000000E+00 0.  1.
         21   -1    0    0  502  503 -0.00000000000E+00 -0.00000000000E+00 -0.55230091128E+01  0.55230091128E+01  0.00000000000E+00 0.  1.
          4    1    1    2  501    0 -0.37873590823E+02  0.27771426415E+02  0.11595121594E+03  0.12511094271E+03  0.15500000000E+01 0. -1.
         -4    1    1    2    0  501  0.37873590823E+02 -0.27771426415E+02  0.58434909419E+03  0.58623538565E+03  0.15500000000E+01 0. -1.
<mgrwt>
<rscale>  2 0.12487223E+03</rscale>
<asrwt>0</asrwt>
<pdfrwt beam="1">  1       21 0.10858813E+00 0.12487223E+03</pdfrwt>
<pdfrwt beam="2">  1       21 0.84969427E-03 0.12487223E+03</pdfrwt>
<totfact> 0.32580350E+06</totfact>
</mgrwt>
</event>
<event>
 5    0  0.1587360E+000  0.1250012E+03  0.7546771E-02  0.1235067E+00
         21   -1    0    0  503  502  0.00000000000E+00  0.00000000000E+00  0.12246926407E+03  0.12246926407E+03  0.00000000000E+00 0. -1.
         21   -1    0    0  502  503 -0.00000000000E+00 -0.00000000000E+00 -0.31896387479E+02  0.31896387479E+02  0.00000000000E+00 0. -1.
         25    2    1    2    0    0  0.00000000000E+00  0.00000000000E+00  0.90572876595E+02  0.15436565155E+03  0.12500123361E+03 0.  0.
          4    1    3    3  501    0 -0.13201478066E+02  0.59943873887E+02  0.30865024722E+02  0.68721170616E+02  0.15500000000E+01 0. -1.
         -4    1    3    3    0  501  0.13201478066E+02 -0.59943873887E+02  0.59707851873E+02  0.85644480937E+02  0.15500000000E+01 0. -1.
<mgrwt>
<rscale>  2 0.12500123E+03</rscale>
<asrwt>0</asrwt>
<pdfrwt beam="1">  1       21 0.18841425E-01 0.12500123E+03</pdfrwt>
<pdfrwt beam="2">  1       21 0.49071366E-02 0.12500123E+03</pdfrwt>
<totfact> 0.70212383E+06</totfact>
</mgrwt>
</event>
<event>
 5    0  0.1562478E+000  0.1249945E+03  0.7546771E-02  0.1235078E+00
         21   -1    0    0  503  502  0.00000000000E+00  0.00000000000E+00  0.21614802812E+03  0.21614802812E+03  0.00000000000E+00 0.  1.
         21   -1    0    0  502  503 -0.00000000000E+00 -0.00000000000E+00 -0.18070504540E+02  0.18070504540E+02  0.00000000000E+00 0.  1.
         25    2    1    2    0    0  0.00000000000E+00  0.00000000000E+00  0.19807752358E+03  0.23421853266E+03  0.12499446265E+03 0.  0.
          4    1    3    3  501    0 -0.44914489355E+02 -0.42450406810E+02  0.11622834565E+03  0.13164641744E+03  0.15500000000E+01 0.  1.
         -4    1    3    3    0  501  0.44914489355E+02  0.42450406810E+02  0.81849177923E+02  0.10257211521E+03  0.15500000000E+01 0.  1.
<mgrwt>
<rscale>  2 0.12499446E+03</rscale>
<asrwt>0</asrwt>
<pdfrwt beam="1">  1       21 0.33253541E-01 0.12499446E+03</pdfrwt>
<pdfrwt beam="2">  1       21 0.27800778E-02 0.12499446E+03</pdfrwt>
<totfact> 0.61405232E+06</totfact>
</mgrwt>
</event>
<event>
 5    0  0.1370005E+000  0.1249996E+03  0.7546771E-02  0.1235070E+00
         21   -1    0    0  503  502  0.00000000000E+00  0.00000000000E+00  0.62129569262E+03  0.62129569262E+03  0.00000000000E+00 0.  1.
         21   -1    0    0  502  503 -0.00000000000E+00 -0.00000000000E+00 -0.62872209399E+01  0.62872209399E+01  0.00000000000E+00 0.  1.
         25    2    1    2    0    0  0.00000000000E+00  0.00000000000E+00  0.61500847168E+03  0.62758291356E+03  0.12499957262E+03 0.  0.
          4    1    3    3  501    0 -0.94100811543E+01  0.61415139679E+02  0.27440893252E+03  0.28135926101E+03  0.15500000000E+01 0. -1.
         -4    1    3    3    0  501  0.94100811543E+01 -0.61415139679E+02  0.34059953916E+03  0.34622365255E+03  0.15500000000E+01 0. -1.
<mgrwt>
<rscale>  2 0.12499957E+03</rscale>
<asrwt>0</asrwt>
<pdfrwt beam="1">  1       21 0.95583904E-01 0.12499957E+03</pdfrwt>
<pdfrwt beam="2">  1       21 0.96726525E-03 0.12499957E+03</pdfrwt>
<totfact> 0.35874603E+06</totfact>
</mgrwt>
</event>
<event>
 5    0  0.1518564E+000  0.1249967E+03  0.7546771E-02  0.1235074E+00
         21   -1    0    0  503  502  0.00000000000E+00  0.00000000000E+00  0.39097845150E+02  0.39097845150E+02  0.00000000000E+00 0. -1.
         21   -1    0    0  502  503 -0.00000000000E+00 -0.00000000000E+00 -0.99904286470E+02  0.99904286470E+02  0.00000000000E+00 0. -1.
         25    2    1    2    0    0  0.00000000000E+00  0.00000000000E+00 -0.60806441319E+02  0.13900213162E+03  0.12499667711E+03 0.  0.
          4    1    3    3  501    0 -0.26707583382E+02  0.53556667552E+02 -0.50359056666E+02  0.78230740362E+02  0.15500000000E+01 0. -1.
         -4    1    3    3    0  501  0.26707583382E+02 -0.53556667552E+02 -0.10447384654E+02  0.60771391258E+02  0.15500000000E+01 0. -1.
<mgrwt>
<rscale>  2 0.12499668E+03</rscale>
<asrwt>0</asrwt>
<pdfrwt beam="1">  1       21 0.60150532E-02 0.12499668E+03</pdfrwt>
<pdfrwt beam="2">  1       21 0.15369890E-01 0.12499668E+03</pdfrwt>
<totfact> 0.72175957E+06</totfact>
</mgrwt>
</event>
<event>
 5    0  0.1222151E+000  0.1249997E+03  0.7546771E-02  0.1235070E+00
         21   -1    0    0  503  502  0.00000000000E+00  0.00000000000E+00  0.16219141282E+02  0.16219141282E+02  0.00000000000E+00 0. -1.
         21   -1    0    0  502  503 -0.00000000000E+00 -0.00000000000E+00 -0.24084089382E+03  0.24084089382E+03  0.00000000000E+00 0. -1.
         25    2    1    2    0    0  0.00000000000E+00  0.00000000000E+00 -0.22462175254E+03  0.25706003510E+03  0.12499971974E+03 0.  0.
          4    1    3    3  501    0  0.22462266545E+02  0.38836290322E+01  0.73227172718E+01  0.23992929813E+02  0.15500000000E+01 0. -1.
         -4    1    3    3    0  501 -0.22462266545E+02 -0.38836290322E+01 -0.23194446981E+03  0.23306710529E+03  0.15500000000E+01 0. -1.
<mgrwt>
<rscale>  2 0.12499972E+03</rscale>
<asrwt>0</asrwt>
<pdfrwt beam="1">  1       21 0.24952528E-02 0.12499972E+03</pdfrwt>
<pdfrwt beam="2">  1       21 0.37052441E-01 0.12499972E+03</pdfrwt>
<totfact> 0.59220212E+06</totfact>
</mgrwt>
</event>
<event>
 5    0  0.1475867E+000  0.1250020E+03  0.7546771E-02  0.1235066E+00
         21   -1    0    0  503  502  0.00000000000E+00  0.00000000000E+00  0.15212282528E+02  0.15212282528E+02  0.00000000000E+00 0.  1.
         21   -1    0    0  502  503 -0.00000000000E+00 -0.00000000000E+00 -0.25679096240E+03  0.25679096240E+03  0.00000000000E+00 0.  1.
         25    2    1    2    0    0  0.00000000000E+00  0.00000000000E+00 -0.24157867988E+03  0.27200324493E+03  0.12500202672E+03 0.  0.
          4    1    3    3  501    0 -0.54838206989E+01 -0.52921810635E+02 -0.19207367337E+03  0.19931254058E+03  0.15500000000E+01 0. -1.
         -4    1    3    3    0  501  0.54838206989E+01  0.52921810635E+02 -0.49505006509E+02  0.72690704356E+02  0.15500000000E+01 0. -1.
<mgrwt>
<rscale>  2 0.12500203E+03</rscale>
<asrwt>0</asrwt>
<pdfrwt beam="1">  1       21 0.23403514E-02 0.12500203E+03</pdfrwt>
<pdfrwt beam="2">  1       21 0.39506298E-01 0.12500203E+03</pdfrwt>
<totfact> 0.57863181E+06</totfact>
</mgrwt>
</event>
<event>
 5    0  0.1460913E+000  0.1249962E+03  0.7546771E-02  0.1235075E+00
         21   -1    0    0  503  502  0.00000000000E+00  0.00000000000E+00  0.79626548603E+02  0.79626548603E+02  0.00000000000E+00 0. -1.
         21   -1    0    0  502  503 -0.00000000000E+00 -0.00000000000E+00 -0.49054181043E+02  0.49054181043E+02  0.00000000000E+00 0. -1.
         25    2    1    2    0    0  0.00000000000E+00  0.00000000000E+00  0.30572367560E+02  0.12868072965E+03  0.12499624204E+03 0.  0.
          4    1    3    3  501    0 -0.22442808655E+02  0.16412403922E+02  0.72886913898E+02  0.78025325250E+02  0.15500000000E+01 0. -1.
         -4    1    3    3    0  501  0.22442808655E+02 -0.16412403922E+02 -0.42314546338E+02  0.50655404397E+02  0.15500000000E+01 0. -1.
<mgrwt>
<rscale>  2 0.12499624E+03</rscale>
<asrwt>0</asrwt>
<pdfrwt beam="1">  1       21 0.12250238E-01 0.12499624E+03</pdfrwt>
<pdfrwt beam="2">  1       21 0.75467971E-02 0.12499624E+03</pdfrwt>
<totfact> 0.73548852E+06</totfact>
</mgrwt>
</event>
<event>
 5    0  0.1222151E+000  0.1250000E+03  0.7546771E-02  0.1235069E+00
         21   -1    0    0  503  502  0.00000000000E+00  0.00000000000E+00  0.58636340124E+01  0.58636340124E+01  0.00000000000E+00 0. -1.
         21   -1    0    0  502  503 -0.00000000000E+00 -0.00000000000E+00 -0.66618274751E+03  0.66618274751E+03  0.00000000000E+00 0. -1.
         25    2    1    2    0    0  0.00000000000E+00  0.00000000000E+00 -0.66031911349E+03  0.67204638152E+03  0.12500002907E+03 0.  0.
          4    1    3    3  501    0  0.39887245005E+02 -0.78144651733E+01 -0.75034458035E+02  0.85350047291E+02  0.15500000000E+01 0. -1.
         -4    1    3    3    0  501 -0.39887245005E+02  0.78144651733E+01 -0.58528465546E+03  0.58669633423E+03  0.15500000000E+01 0. -1.
<mgrwt>
<rscale>  2 0.12500003E+03</rscale>
<asrwt>0</asrwt>
<pdfrwt beam="1">  1       21 0.90209724E-03 0.12500003E+03</pdfrwt>
<pdfrwt beam="2">  1       21 0.10248969E+00 0.12500003E+03</pdfrwt>
<totfact> 0.34015913E+06</totfact>
</mgrwt>
</event>
<event>
 5    0  0.1222151E+000  0.1249969E+03  0.7546771E-02  0.1235074E+00
         21   -1    0    0  503  502  0.00000000000E+00  0.00000000000E+00  0.34357158447E+01  0.34357158447E+01  0.00000000000E+00 0.  1.
         21   -1    0    0  502  503 -0.00000000000E+00 -0.00000000000E+00 -0.11368976425E+04  0.11368976425E+04  0.00000000000E+00 0.  1.
         25    2    1    2    0    0  0.00000000000E+00  0.00000000000E+00 -0.11334619266E+04  0.11403333583E+04  0.12499691587E+03 0.  0.
          4    1    3    3  501    0 -0.46188162503E+02  0.33747700128E+02 -0.79596822239E+03  0.79802259816E+03  0.15500000000E+01 0. -1.
         -4    1    3    3    0  501  0.46188162503E+02 -0.33747700128E+02 -0.33749370425E+03  0.34231076017E+03  0.15500000000E+01 0. -1.
<mgrwt>
<rscale>  2 0.12499692E+03</rscale>
<asrwt>0</asrwt>
<pdfrwt beam="1">  1       21 0.52857164E-03 0.12499692E+03</pdfrwt>
<pdfrwt beam="2">  1       21 0.17490734E+00 0.12499692E+03</pdfrwt>
<totfact> 0.20375986E+06</totfact>
</mgrwt>
</event>
<event>
 5    0  0.1222151E+000  0.1249973E+03  0.7546771E-02  0.1235073E+00
         21   -1    0    0  503  502  0.00000000000E+00  0.00000000000E+00  0.10100822821E+01  0.10100822821E+01  0.00000000000E+00 0. -1.
         21   -1    0    0  502  503 -0.00000000000E+00 -0.00000000000E+00 -0.38670936661E+04  0.38670936661E+04  0.00000000000E+00 0. -1.
         25    2    1    2    0    0  0.00000000000E+00  0.00000000000E+00 -0.38660835838E+04  0.38681037484E+04  0.12499732470E+03 0.  0.
          4    1    3    3  501    0  0.20756447496E+02 -0.56676670698E+02 -0.14334803402E+04  0.14347513245E+04  0.15500000000E+01 0.  1.
         -4    1    3    3    0  501 -0.20756447496E+02  0.56676670698E+02 -0.24326032437E+04  0.24333524239E+04  0.15500000000E+01 0.  1.
<mgrwt>
<rscale>  2 0.12499732E+03</rscale>
<asrwt>0</asrwt>
<pdfrwt beam="1">  1       21 0.15539707E-03 0.12499732E+03</pdfrwt>
<pdfrwt beam="2">  1       21 0.59493828E+00 0.12499732E+03</pdfrwt>
<totfact> 0.27601139E+04</totfact>
</mgrwt>
</event>
<event>
 5    0  0.1461258E+000  0.1250108E+03  0.7546771E-02  0.1235052E+00
         21   -1    0    0  503  502  0.00000000000E+00  0.00000000000E+00  0.11888099742E+02  0.11888099742E+02  0.00000000000E+00 0. -1.
         21   -1    0    0  502  503 -0.00000000000E+00 -0.00000000000E+00 -0.32864190851E+03  0.32864190851E+03  0.00000000000E+00 0. -1.
         25    2    1    2    0    0  0.00000000000E+00  0.00000000000E+00 -0.31675380877E+03  0.34053000825E+03  0.12501084414E+03 0.  0.
          4    1    3    3  501    0 -0.54809472214E+02  0.29513226137E+02 -0.14360272403E+03  0.15652237415E+03  0.15500000000E+01 0. -1.
         -4    1    3    3    0  501  0.54809472214E+02 -0.29513226137E+02 -0.17315108473E+03  0.18400763410E+03  0.15500000000E+01 0. -1.
<mgrwt>
<rscale>  2 0.12501084E+03</rscale>
<asrwt>0</asrwt>
<pdfrwt beam="1">  1       21 0.18289388E-02 0.12501084E+03</pdfrwt>
<pdfrwt beam="2">  1       21 0.50560283E-01 0.12501084E+03</pdfrwt>
<totfact> 0.52231321E+06</totfact>
</mgrwt>
</event>
<event>
 5    0  0.1412138E+000  0.1249978E+03  0.7546771E-02  0.1235073E+00
         21   -1    0    0  503  502  0.00000000000E+00  0.00000000000E+00  0.12692975879E+02  0.12692975879E+02  0.00000000000E+00 0. -1.
         21   -1    0    0  502  503 -0.00000000000E+00 -0.00000000000E+00 -0.30773804264E+03  0.30773804264E+03  0.00000000000E+00 0. -1.
         25    2    1    2    0    0  0.00000000000E+00  0.00000000000E+00 -0.29504506676E+03  0.32043101852E+03  0.12499778481E+03 0.  0.
          4    1    3    3  501    0 -0.25365526237E+02 -0.38377665007E+02 -0.25590266292E+03  0.26000928922E+03  0.15500000000E+01 0.  1.
         -4    1    3    3    0  501  0.25365526237E+02  0.38377665007E+02 -0.39142403842E+02  0.60421729296E+02  0.15500000000E+01 0.  1.
<mgrwt>
<rscale>  2 0.12499778E+03</rscale>
<asrwt>0</asrwt>
<pdfrwt beam="1">  1       21 0.19527656E-02 0.12499778E+03</pdfrwt>
<pdfrwt beam="2">  1       21 0.47344313E-01 0.12499778E+03</pdfrwt>
<totfact> 0.53802194E+06</totfact>
</mgrwt>
</event>
<event>
 5    0  0.1265737E+000  0.1250028E+03  0.7546771E-02  0.1235065E+00
         21   -1    0    0  503  502  0.00000000000E+00  0.00000000000E+00  0.69558031303E+03  0.69558031303E+03  0.00000000000E+00 0.  1.
         21   -1    0    0  502  503 -0.00000000000E+00 -0.00000000000E+00 -0.56160657563E+01  0.56160657563E+01  0.00000000000E+00 0.  1.
         25    2    1    2    0    0  0.00000000000E+00  0.00000000000E+00  0.68996424727E+03  0.70119637879E+03  0.12500279640E+03 0.  0.
          4    1    3    3  501    0  0.46206483558E+02  0.39780607277E+02  0.26837951425E+03  0.27522264080E+03  0.15500000000E+01 0.  1.
         -4    1    3    3    0  501 -0.46206483558E+02 -0.39780607277E+02  0.42158473302E+03  0.42597373799E+03  0.15500000000E+01 0.  1.
<mgrwt>
<rscale>  2 0.12500280E+03</rscale>
<asrwt>0</asrwt>
<pdfrwt beam="1">  1       21 0.10701229E+00 0.12500280E+03</pdfrwt>
<pdfrwt beam="2">  1       21 0.86401067E-03 0.12500280E+03</pdfrwt>
<totfact> 0.32861805E+06</totfact>
</mgrwt>
</event>
<event>
 5    0  0.1424991E+000  0.1250558E+03  0.7546771E-02  0.1234982E+00
         21   -1    0    0  503  502  0.00000000000E+00  0.00000000000E+00  0.47574897826E+02  0.47574897826E+02  0.00000000000E+00 0.  1.
         21   -1    0    0  502  503 -0.00000000000E+00 -0.00000000000E+00 -0.82180733982E+02  0.82180733982E+02  0.00000000000E+00 0.  1.
         25    2    1    2    0    0  0.00000000000E+00  0.00000000000E+00 -0.34605836156E+02  0.12975563181E+03  0.12505582789E+03 0.  0.
          4    1    3    3  501    0  0.22179050124E+02  0.15373888022E+02  0.41199306781E+02  0.49275268407E+02  0.15500000000E+01 0.  1.
         -4    1    3    3    0  501 -0.22179050124E+02 -0.15373888022E+02 -0.75805142938E+02  0.80480363401E+02  0.15500000000E+01 0.  1.
<mgrwt>
<rscale>  2 0.12505583E+03</rscale>
<asrwt>0</asrwt>
<pdfrwt beam="1">  1       21 0.73192151E-02 0.12505583E+03</pdfrwt>
<pdfrwt beam="2">  1       21 0.12643190E-01 0.12505583E+03</pdfrwt>
<totfact> 0.73293074E+06</totfact>
</mgrwt>
</event>
<event>
 5    0  0.1350713E+000  0.1249954E+03  0.7546771E-02  0.1235076E+00
         21   -1    0    0  503  502  0.00000000000E+00  0.00000000000E+00  0.49259642149E+03  0.49259642149E+03  0.00000000000E+00 0. -1.
         21   -1    0    0  502  503 -0.00000000000E+00 -0.00000000000E+00 -0.79293364041E+01  0.79293364041E+01  0.00000000000E+00 0. -1.
         25    2    1    2    0    0  0.00000000000E+00  0.00000000000E+00  0.48466708508E+03  0.50052575789E+03  0.12499540371E+03 0.  0.
          4    1    3    3  501    0 -0.95436136321E+01  0.55422495130E+02  0.13334252571E+03  0.14472513669E+03  0.15500000000E+01 0. -1.
         -4    1    3    3    0  501  0.95436136321E+01 -0.55422495130E+02  0.35132455937E+03  0.35580062120E+03  0.15500000000E+01 0. -1.
<mgrwt>
<rscale>  2 0.12499540E+03</rscale>
<asrwt>0</asrwt>
<pdfrwt beam="1">  1       21 0.75784041E-01 0.12499540E+03</pdfrwt>
<pdfrwt beam="2">  1       21 0.12198983E-02 0.12499540E+03</pdfrwt>
<totfact> 0.42020389E+06</totfact>
</mgrwt>
</event>
<event>
 5    0  0.1222151E+000  0.1249939E+03  0.7546771E-02  0.1235079E+00
         21   -1    0    0  503  502  0.00000000000E+00  0.00000000000E+00  0.10837457413E+04  0.10837457413E+04  0.00000000000E+00 0. -1.
         21   -1    0    0  502  503 -0.00000000000E+00 -0.00000000000E+00 -0.36040447033E+01  0.36040447033E+01  0.00000000000E+00 0. -1.
         25    2    1    2    0    0  0.00000000000E+00  0.00000000000E+00  0.10801416966E+04  0.10873497860E+04  0.12499388943E+03 0.  0.
          4    1    3    3  501    0 -0.45361173380E+02  0.42779336643E+02  0.57460348389E+03  0.57797861024E+03  0.15500000000E+01 0.  1.
         -4    1    3    3    0  501  0.45361173380E+02 -0.42779336643E+02  0.50553821273E+03  0.50937117579E+03  0.15500000000E+01 0.  1.
<mgrwt>
<rscale>  2 0.12499389E+03</rscale>
<asrwt>0</asrwt>
<pdfrwt beam="1">  1       21 0.16672985E+00 0.12499389E+03</pdfrwt>
<pdfrwt beam="2">  1       21 0.55446928E-03 0.12499389E+03</pdfrwt>
<totfact> 0.21538253E+06</totfact>
</mgrwt>
</event>
<event>
 5    0  0.1407280E+000  0.1250025E+03  0.7546771E-02  0.1235065E+00
         21   -1    0    0  503  502  0.00000000000E+00  0.00000000000E+00  0.17223372316E+02  0.17223372316E+02  0.00000000000E+00 0.  1.
         21   -1    0    0  502  503 -0.00000000000E+00 -0.00000000000E+00 -0.22680861704E+03  0.22680861704E+03  0.00000000000E+00 0.  1.
         25    2    1    2    0    0  0.00000000000E+00  0.00000000000E+00 -0.20958524472E+03  0.24403198935E+03  0.12500254806E+03 0.  0.
          4    1    3    3  501    0 -0.19189862302E+01 -0.48168620509E+02 -0.18239433646E+03  0.18866370870E+03  0.15500000000E+01 0. -1.
         -4    1    3    3    0  501  0.19189862302E+01  0.48168620509E+02 -0.27190908265E+02  0.55368280651E+02  0.15500000000E+01 0. -1.
<mgrwt>
<rscale>  2 0.12500255E+03</rscale>
<asrwt>0</asrwt>
<pdfrwt beam="1">  1       21 0.26497499E-02 0.12500255E+03</pdfrwt>
<pdfrwt beam="2">  1       21 0.34893629E-01 0.12500255E+03</pdfrwt>
<totfact> 0.60440782E+06</totfact>
</mgrwt>
</event>
<event>
 5    0  0.1356792E+000  0.1249931E+03  0.7546771E-02  0.1235080E+00
         21   -1    0    0  503  502  0.00000000000E+00  0.00000000000E+00  0.27197455619E+02  0.27197455619E+02  0.00000000000E+00 0.  1.
         21   -1    0    0  502  503 -0.00000000000E+00 -0.00000000000E+00 -0.14360963188E+03  0.14360963188E+03  0.00000000000E+00 0.  1.
         25    2    1    2    0    0  0.00000000000E+00  0.00000000000E+00 -0.11641217626E+03  0.17080708750E+03  0.12499306524E+03 0.  0.
          4    1    3    3  501    0 -0.20770583657E+02 -0.13108072495E+02 -0.13670949036E+03  0.13890689675E+03  0.15500000000E+01 0.  1.
         -4    1    3    3    0  501  0.20770583657E+02  0.13108072495E+02  0.20297314101E+02  0.31900190747E+02  0.15500000000E+01 0.  1.
<mgrwt>
<rscale>  2 0.12499307E+03</rscale>
<asrwt>0</asrwt>
<pdfrwt beam="1">  1       21 0.41842239E-02 0.12499307E+03</pdfrwt>
<pdfrwt beam="2">  1       21 0.22093790E-01 0.12499307E+03</pdfrwt>
<totfact> 0.68234100E+06</totfact>
</mgrwt>
</event>
<event>
 5    0  0.1438339E+000  0.1250089E+03  0.7546771E-02  0.1235055E+00
         21   -1    0    0  503  502  0.00000000000E+00  0.00000000000E+00  0.20958640902E+02  0.20958640902E+02  0.00000000000E+00 0. -1.
         21   -1    0    0  502  503 -0.00000000000E+00 -0.00000000000E+00 -0.18640537321E+03  0.18640537321E+03  0.00000000000E+00 0. -1.
         25    2    1    2    0    0  0.00000000000E+00  0.00000000000E+00 -0.16544673230E+03  0.20736401411E+03  0.12500885215E+03 0.  0.
          4    1    3    3  501    0 -0.66422472841E+01  0.28797033402E+02 -0.17404769008E+03  0.17654571506E+03  0.15500000000E+01 0. -1.
         -4    1    3    3    0  501  0.66422472841E+01 -0.28797033402E+02  0.86009577776E+01  0.30818299052E+02  0.15500000000E+01 0. -1.
<mgrwt>
<rscale>  2 0.12500885E+03</rscale>
<asrwt>0</asrwt>
<pdfrwt beam="1">  1       21 0.32244064E-02 0.12500885E+03</pdfrwt>
<pdfrwt beam="2">  1       21 0.28677749E-01 0.12500885E+03</pdfrwt>
<totfact> 0.64123581E+06</totfact>
</mgrwt>
</event>
<event>
 5    0  0.1531756E+000  0.1250026E+03  0.7546771E-02  0.1235065E+00
         21   -1    0    0  503  502  0.00000000000E+00  0.00000000000E+00  0.97518718023E+02  0.97518718023E+02  0.00000000000E+00 0.  1.
         21   -1    0    0  502  503 -0.00000000000E+00 -0.00000000000E+00 -0.40058047673E+02  0.40058047673E+02  0.00000000000E+00 0.  1.
         25    2    1    2    0    0  0.00000000000E+00  0.00000000000E+00  0.57460670350E+02  0.13757676570E+03  0.12500255126E+03 0.  0.
          4    1    3    3  501    0 -0.29318983459E+02  0.54894056305E+02  0.22597881605E+02  0.66227086315E+02  0.15500000000E+01 0.  1.
         -4    1    3    3    0  501  0.29318983459E+02 -0.54894056305E+02  0.34862788745E+02  0.71349679381E+02  0.15500000000E+01 0.  1.
<mgrwt>
<rscale>  2 0.12500255E+03</rscale>
<asrwt>0</asrwt>
<pdfrwt beam="1">  1       21 0.15002880E-01 0.12500255E+03</pdfrwt>
<pdfrwt beam="2">  1       21 0.61627766E-02 0.12500255E+03</pdfrwt>
<totfact> 0.72352347E+06</totfact>
</mgrwt>
</event>
<event>
 5    0  0.1429312E+000  0.1250001E+03  0.7546771E-02  0.1235069E+00
         21   -1    0    0  503  502  0.00000000000E+00  0.00000000000E+00  0.94760912316E+01  0.94760912316E+01  0.00000000000E+00 0. -1.
         21   -1    0    0  502  503 -0.00000000000E+00 -0.00000000000E+00 -0.41222220071E+03  0.41222220071E+03  0.00000000000E+00 0. -1.
         25    2    1    2    0    0  0.00000000000E+00  0.00000000000E+00 -0.40274610948E+03  0.42169829194E+03  0.12500008291E+03 0.  0.
          4    1    3    3  501    0  0.55440503411E+02  0.28787016981E+02 -0.20551984221E+03  0.21480956638E+03  0.15500000000E+01 0.  1.
         -4    1    3    3    0  501 -0.55440503411E+02 -0.28787016981E+02 -0.19722626727E+03  0.20688872557E+03  0.15500000000E+01 0.  1.
<mgrwt>
<rscale>  2 0.12500008E+03</rscale>
<asrwt>0</asrwt>
<pdfrwt beam="1">  1       21 0.14578604E-02 0.12500008E+03</pdfrwt>
<pdfrwt beam="2">  1       21 0.63418791E-01 0.12500008E+03</pdfrwt>
<totfact> 0.46634565E+06</totfact>
</mgrwt>
</event>
<event>
 5    0  0.1381288E+000  0.1250000E+03  0.7546771E-02  0.1235069E+00
         21   -1    0    0  503  502  0.00000000000E+00  0.00000000000E+00  0.10689925599E+02  0.10689925599E+02  0.00000000000E+00 0. -1.
         21   -1    0    0  502  503 -0.00000000000E+00 -0.00000000000E+00 -0.36541437846E+03  0.36541437846E+03  0.00000000000E+00 0. -1.
         25    2    1    2    0    0  0.00000000000E+00  0.00000000000E+00 -0.35472445286E+03  0.37610430406E+03  0.12500004030E+03 0.  0.
          4    1    3    3  501    0 -0.46509411778E+02 -0.18220250115E+02 -0.29029361577E+03  0.29456389588E+03  0.15500000000E+01 0.  1.
         -4    1    3    3    0  501  0.46509411778E+02  0.18220250115E+02 -0.64430837093E+02  0.81540408183E+02  0.15500000000E+01 0.  1.
<mgrwt>
<rscale>  2 0.12500004E+03</rscale>
<asrwt>0</asrwt>
<pdfrwt beam="1">  1       21 0.16446039E-02 0.12500004E+03</pdfrwt>
<pdfrwt beam="2">  1       21 0.56217597E-01 0.12500004E+03</pdfrwt>
<totfact> 0.49666419E+06</totfact>
</mgrwt>
</event>
<event>
 5    0  0.1537886E+000  0.1250108E+03  0.7546771E-02  0.1235052E+00
         21   -1    0    0  503  502  0.00000000000E+00  0.00000000000E+00  0.26270264031E+03  0.26270264031E+03  0.00000000000E+00 0. -1.
         21   -1    0    0  502  503 -0.00000000000E+00 -0.00000000000E+00 -0.14872038525E+02  0.14872038525E+02  0.00000000000E+00 0. -1.
         25    2    1    2    0    0  0.00000000000E+00  0.00000000000E+00  0.24783060179E+03  0.27757467884E+03  0.12501078013E+03 0.  0.
          4    1    3    3  501    0  0.14088812907E+02 -0.59643477979E+02  0.15098988725E+03  0.16296069362E+03  0.15500000000E+01 0. -1.
         -4    1    3    3    0  501 -0.14088812907E+02  0.59643477979E+02  0.96840714545E+02  0.11461398522E+03  0.15500000000E+01 0. -1.
<mgrwt>
<rscale>  2 0.12501078E+03</rscale>
<asrwt>0</asrwt>
<pdfrwt beam="1">  1       21 0.40415787E-01 0.12501078E+03</pdfrwt>
<pdfrwt beam="2">  1       21 0.22880061E-02 0.12501078E+03</pdfrwt>
<totfact> 0.57357305E+06</totfact>
</mgrwt>
</event>
<event>
 5    0  0.1454688E+000  0.1250002E+03  0.7546771E-02  0.1235069E+00
         21   -1    0    0  503  502  0.00000000000E+00  0.00000000000E+00  0.22154139299E+02  0.22154139299E+02  0.00000000000E+00 0.  1.
         21   -1    0    0  502  503 -0.00000000000E+00 -0.00000000000E+00 -0.17632207128E+03  0.17632207128E+03  0.00000000000E+00 0.  1.
         25    2    1    2    0    0  0.00000000000E+00  0.00000000000E+00 -0.15416793198E+03  0.19847621058E+03  0.12500021966E+03 0.  0.
          4    1    3    3  501    0 -0.36084634604E+02  0.19102228838E+02 -0.19878297850E+01  0.40906600548E+02  0.15500000000E+01 0. -1.
         -4    1    3    3    0  501  0.36084634604E+02 -0.19102228838E+02 -0.15218010220E+03  0.15756961003E+03  0.15500000000E+01 0. -1.
<mgrwt>
<rscale>  2 0.12500022E+03</rscale>
<asrwt>0</asrwt>
<pdfrwt beam="1">  1       21 0.34083290E-02 0.12500022E+03</pdfrwt>
<pdfrwt beam="2">  1       21 0.27126473E-01 0.12500022E+03</pdfrwt>
<totfact> 0.65092193E+06</totfact>
</mgrwt>
</event>
<event>
 5    0  0.1335319E+000  0.1249994E+03  0.7546771E-02  0.1235070E+00
         21   -1    0    0  503  502  0.00000000000E+00  0.00000000000E+00  0.52059568700E+03  0.52059568700E+03  0.00000000000E+00 0.  1.
         21   -1    0    0  502  503 -0.00000000000E+00 -0.00000000000E+00 -0.75033556144E+01  0.75033556144E+01  0.00000000000E+00 0.  1.
         25    2    1    2    0    0  0.00000000000E+00  0.00000000000E+00  0.51309233138E+03  0.52809904261E+03  0.12499943313E+03 0.  0.
          4    1    3    3  501    0 -0.36695635380E+02 -0.19071079767E+02  0.58676257322E+02  0.71802377487E+02  0.15500000000E+01 0. -1.
         -4    1    3    3    0  501  0.36695635380E+02  0.19071079767E+02  0.45441607406E+03  0.45629666512E+03  0.15500000000E+01 0. -1.
<mgrwt>
<rscale>  2 0.12499943E+03</rscale>
<asrwt>0</asrwt>
<pdfrwt beam="1">  1       21 0.80091616E-01 0.12499943E+03</pdfrwt>
<pdfrwt beam="2">  1       21 0.11543628E-02 0.12499943E+03</pdfrwt>
<totfact> 0.40560658E+06</totfact>
</mgrwt>
</event>
<event>
 5    0  0.1531964E+000  0.1250014E+03  0.7546771E-02  0.1235067E+00
         21   -1    0    0  503  502  0.00000000000E+00  0.00000000000E+00  0.18681598351E+03  0.18681598351E+03  0.00000000000E+00 0. -1.
         21   -1    0    0  502  503 -0.00000000000E+00 -0.00000000000E+00 -0.20910085417E+02  0.20910085417E+02  0.00000000000E+00 0. -1.
         25    2    1    2    0    0  0.00000000000E+00  0.00000000000E+00  0.16590589809E+03  0.20772606893E+03  0.12500141075E+03 0.  0.
          4    1    3    3  501    0 -0.29585484911E+02 -0.55030627303E+02  0.83808106818E+02  0.10454602875E+03  0.15500000000E+01 0. -1.
         -4    1    3    3    0  501  0.29585484911E+02  0.55030627303E+02  0.82097791274E+02  0.10318004018E+03  0.15500000000E+01 0. -1.
<mgrwt>
<rscale>  2 0.12500141E+03</rscale>
<asrwt>0</asrwt>
<pdfrwt beam="1">  1       21 0.28740919E-01 0.12500141E+03</pdfrwt>
<pdfrwt beam="2">  1       21 0.32169363E-02 0.12500141E+03</pdfrwt>
<totfact> 0.64097289E+06</totfact>
</mgrwt>
</event>
<event>
 5    0  0.1369022E+000  0.1249872E+03  0.7546771E-02  0.1235089E+00
         21   -1    0    0  503  502  0.00000000000E+00  0.00000000000E+00  0.46679927043E+03  0.46679927043E+03  0.00000000000E+00 0. -1.
         21   -1    0    0  502  503 -0.00000000000E+00 -0.00000000000E+00 -0.83664403995E+01  0.83664403995E+01  0.00000000000E+00 0. -1.
         25    2    1    2    0    0  0.00000000000E+00  0.00000000000E+00  0.45843283003E+03  0.47516571083E+03  0.12498717173E+03 0.  0.
          4    1    3    3  501    0  0.61992800242E+02  0.69263159696E+01  0.21606630257E+03  0.22489582198E+03  0.15500000000E+01 0.  1.
         -4    1    3    3    0  501 -0.61992800242E+02 -0.69263159696E+01  0.24236652746E+03  0.25026988885E+03  0.15500000000E+01 0.  1.
<mgrwt>
<rscale>  2 0.12498717E+03</rscale>
<asrwt>0</asrwt>
<pdfrwt beam="1">  1       21 0.71815252E-01 0.12498717E+03</pdfrwt>
<pdfrwt beam="2">  1       21 0.12871450E-02 0.12498717E+03</pdfrwt>
<totfact> 0.43437615E+06</totfact>
</mgrwt>
</event>
<event>
 5    0  0.1565164E+000  0.1249880E+03  0.7546771E-02  0.1235088E+00
         21   -1    0    0  503  502  0.00000000000E+00  0.00000000000E+00  0.61249289484E+02  0.61249289484E+02  0.00000000000E+00 0.  1.
         21   -1    0    0  502  503 -0.00000000000E+00 -0.00000000000E+00 -0.63764015284E+02  0.63764015284E+02  0.00000000000E+00 0.  1.
         25    2    1    2    0    0  0.00000000000E+00  0.00000000000E+00 -0.25147258007E+01  0.12501330477E+03  0.12498800952E+03 0.  0.
          4    1    3    3  501    0  0.33179010567E+02 -0.46224706395E+02  0.24545685669E+02  0.61987606894E+02  0.15500000000E+01 0.  1.
         -4    1    3    3    0  501 -0.33179010567E+02  0.46224706395E+02 -0.27060411470E+02  0.63025697874E+02  0.15500000000E+01 0.  1.
<mgrwt>
<rscale>  2 0.12498801E+03</rscale>
<asrwt>0</asrwt>
<pdfrwt beam="1">  1       21 0.94229677E-02 0.12498801E+03</pdfrwt>
<pdfrwt beam="2">  1       21 0.98098484E-02 0.12498801E+03</pdfrwt>
<totfact> 0.74064487E+06</totfact>
</mgrwt>
</event>
<event>
 5    0  0.1393553E+000  0.1250016E+03  0.7546771E-02  0.1235067E+00
         21   -1    0    0  503  502  0.00000000000E+00  0.00000000000E+00  0.33190939465E+03  0.33190939465E+03  0.00000000000E+00 0. -1.
         21   -1    0    0  502  503 -0.00000000000E+00 -0.00000000000E+00 -0.11769327943E+02  0.11769327943E+02  0.00000000000E+00 0. -1.
         25    2    1    2    0    0  0.00000000000E+00  0.00000000000E+00  0.32014006671E+03  0.34367872259E+03  0.12500160820E+03 0.  0.
          4    1    3    3  501    0 -0.32379526874E+02  0.20198317981E+02  0.24050230950E+02  0.45135594807E+02  0.15500000000E+01 0.  1.
         -4    1    3    3    0  501  0.32379526874E+02 -0.20198317981E+02  0.29608983576E+03  0.29854312779E+03  0.15500000000E+01 0.  1.
<mgrwt>
<rscale>  2 0.12500161E+03</rscale>
<asrwt>0</asrwt>
<pdfrwt beam="1">  1       21 0.51062977E-01 0.12500161E+03</pdfrwt>
<pdfrwt beam="2">  1       21 0.18106661E-02 0.12500161E+03</pdfrwt>
<totfact> 0.52006598E+06</totfact>
</mgrwt>
</event>
<event>
 5    0  0.1428769E+000  0.1249989E+03  0.7546771E-02  0.1235071E+00
         21   -1    0    0  503  502  0.00000000000E+00  0.00000000000E+00  0.11604308118E+02  0.11604308118E+02  0.00000000000E+00 0. -1.
         21   -1    0    0  502  503 -0.00000000000E+00 -0.00000000000E+00 -0.33661476392E+03  0.33661476392E+03  0.00000000000E+00 0. -1.
         25    2    1    2    0    0  0.00000000000E+00  0.00000000000E+00 -0.32501045581E+03  0.34821907204E+03  0.12499890300E+03 0.  0.
          4    1    3    3  501    0 -0.45270234027E+02 -0.42843713432E+02 -0.17458441238E+03  0.18538364927E+03  0.15500000000E+01 0.  1.
         -4    1    3    3    0  501  0.45270234027E+02  0.42843713432E+02 -0.15042604342E+03  0.16283542277E+03  0.15500000000E+01 0.  1.
<mgrwt>
<rscale>  2 0.12499890E+03</rscale>
<asrwt>0</asrwt>
<pdfrwt beam="1">  1       21 0.17852781E-02 0.12499890E+03</pdfrwt>
<pdfrwt beam="2">  1       21 0.51786888E-01 0.12499890E+03</pdfrwt>
<totfact> 0.51671647E+06</totfact>
</mgrwt>
</event>
<event>
 5    0  0.1588696E+000  0.1249814E+03  0.7546771E-02  0.1235098E+00
         21   -1    0    0  503  502  0.00000000000E+00  0.00000000000E+00  0.46808721639E+02  0.46808721639E+02  0.00000000000E+00 0. -1.
         21   -1    0    0  502  503 -0.00000000000E+00 -0.00000000000E+00 -0.83426454067E+02  0.83426454067E+02  0.00000000000E+00 0. -1.
         25    2    1    2    0    0  0.00000000000E+00  0.00000000000E+00 -0.36617732428E+02  0.13023517571E+03  0.12498136926E+03 0.  0.
          4    1    3    3  501    0  0.46043980102E+02  0.21431678867E+02  0.19597762823E+02  0.54459524147E+02  0.15500000000E+01 0.  1.
         -4    1    3    3    0  501 -0.46043980102E+02 -0.21431678867E+02 -0.56215495251E+02  0.75775651558E+02  0.15500000000E+01 0.  1.
<mgrwt>
<rscale>  2 0.12498137E+03</rscale>
<asrwt>0</asrwt>
<pdfrwt beam="1">  1       21 0.72013419E-02 0.12498137E+03</pdfrwt>
<pdfrwt beam="2">  1       21 0.12834839E-01 0.12498137E+03</pdfrwt>
<totfact> 0.73368392E+06</totfact>
</mgrwt>
</event>
<event>
 5    0  0.1465173E+000  0.1249945E+03  0.7546771E-02  0.1235078E+00
         21   -1    0    0  503  502  0.00000000000E+00  0.00000000000E+00  0.18217551798E+02  0.18217551798E+02  0.00000000000E+00 0.  1.
         21   -1    0    0  502  503 -0.00000000000E+00 -0.00000000000E+00 -0.21440354689E+03  0.21440354689E+03  0.00000000000E+00 0.  1.
         25    2    1    2    0    0  0.00000000000E+00  0.00000000000E+00 -0.19618599509E+03  0.23262109869E+03  0.12499452342E+03 0.  0.
          4    1    3    3  501    0  0.31034583072E+02  0.35334632055E+02 -0.17464131755E+03  0.18086921757E+03  0.15500000000E+01 0. -1.
         -4    1    3    3    0  501 -0.31034583072E+02 -0.35334632055E+02 -0.21544677543E+02  0.51751881119E+02  0.15500000000E+01 0. -1.
<mgrwt>
<rscale>  2 0.12499452E+03</rscale>
<asrwt>0</asrwt>
<pdfrwt beam="1">  1       21 0.28027003E-02 0.12499452E+03</pdfrwt>
<pdfrwt beam="2">  1       21 0.32985161E-01 0.12499452E+03</pdfrwt>
<totfact> 0.61562607E+06</totfact>
</mgrwt>
</event>
<event>
 5    0  0.1414267E+000  0.1250087E+03  0.7546771E-02  0.1235056E+00
         21   -1    0    0  503  502  0.00000000000E+00  0.00000000000E+00  0.14081812181E+02  0.14081812181E+02  0.00000000000E+00 0.  1.
         21   -1    0    0  502  503 -0.00000000000E+00 -0.00000000000E+00 -0.27743549140E+03  0.27743549140E+03  0.00000000000E+00 0.  1.
         25    2    1    2    0    0  0.00000000000E+00  0.00000000000E+00 -0.26335367922E+03  0.29151730358E+03  0.12500871141E+03 0.  0.
          4    1    3    3  501    0  0.60292997358E+02 -0.35837378394E+01 -0.94343130652E+02  0.11203177009E+03  0.15500000000E+01 0.  1.
         -4    1    3    3    0  501 -0.60292997358E+02  0.35837378394E+01 -0.16901054857E+03  0.17948553350E+03  0.15500000000E+01 0.  1.
<mgrwt>
<rscale>  2 0.12500871E+03</rscale>
<asrwt>0</asrwt>
<pdfrwt beam="1">  1       21 0.21664329E-02 0.12500871E+03</pdfrwt>
<pdfrwt beam="2">  1       21 0.42682379E-01 0.12500871E+03</pdfrwt>
<totfact> 0.56156273E+06</totfact>
</mgrwt>
</event>
<event>
 5    0  0.1338527E+000  0.1250015E+03  0.7546771E-02  0.1235067E+00
         21   -1    0    0  503  502  0.00000000000E+00  0.00000000000E+00  0.23587474040E+02  0.23587474040E+02  0.00000000000E+00 0.  1.
         21   -1    0    0  502  503 -0.00000000000E+00 -0.00000000000E+00 -0.16561085847E+03  0.16561085847E+03  0.00000000000E+00 0.  1.
         25    2    1    2    0    0  0.00000000000E+00  0.00000000000E+00 -0.14202338443E+03  0.18919833251E+03  0.12500146919E+03 0.  0.
          4    1    3    3  501    0 -0.41004068447E+02 -0.37935173707E+01 -0.14213678682E+03  0.14798984111E+03  0.15500000000E+01 0.  1.
         -4    1    3    3    0  501  0.41004068447E+02  0.37935173707E+01  0.11340239526E+00  0.41208491398E+02  0.15500000000E+01 0.  1.
<mgrwt>
<rscale>  2 0.12500147E+03</rscale>
<asrwt>0</asrwt>
<pdfrwt beam="1">  1       21 0.36288421E-02 0.12500147E+03</pdfrwt>
<pdfrwt beam="2">  1       21 0.25478594E-01 0.12500147E+03</pdfrwt>
<totfact> 0.66109211E+06</totfact>
</mgrwt>
</event>
<event>
 5    0  0.1325847E+000  0.1250012E+03  0.7546771E-02  0.1235067E+00
         21   -1    0    0  503  502  0.00000000000E+00  0.00000000000E+00  0.34529486158E+03  0.34529486158E+03  0.00000000000E+00 0. -1.
         21   -1    0    0  502  503 -0.00000000000E+00 -0.00000000000E+00 -0.11313019337E+02  0.11313019337E+02  0.00000000000E+00 0. -1.
         25    2    1    2    0    0  0.00000000000E+00  0.00000000000E+00  0.33398184224E+03  0.35660788092E+03  0.12500123913E+03 0.  0.
          4    1    3    3  501    0  0.30643196290E+02 -0.39071706691E+02  0.27518526559E+03  0.27963357567E+03  0.15500000000E+01 0. -1.
         -4    1    3    3    0  501 -0.30643196290E+02  0.39071706691E+02  0.58796576653E+02  0.76974305250E+02  0.15500000000E+01 0. -1.
<mgrwt>
<rscale>  2 0.12500124E+03</rscale>
<asrwt>0</asrwt>
<pdfrwt beam="1">  1       21 0.53122278E-01 0.12500124E+03</pdfrwt>
<pdfrwt beam="2">  1       21 0.17404648E-02 0.12500124E+03</pdfrwt>
<totfact> 0.51052513E+06</totfact>
</mgrwt>
</event>
<event>
 5    0  0.1382463E+000  0.1249939E+03  0.7546771E-02  0.1235079E+00
         21   -1    0    0  503  502  0.00000000000E+00  0.00000000000E+00  0.44687058839E+03  0.44687058839E+03  0.00000000000E+00 0. -1.
         21   -1    0    0  502  503 -0.00000000000E+00 -0.00000000000E+00 -0.87404867274E+01  0.87404867274E+01  0.00000000000E+00 0. -1.
         25    2    1    2    0    0  0.00000000000E+00  0.00000000000E+00  0.43813010167E+03  0.45561107512E+03  0.12499386300E+03 0.  0.
          4    1    3    3  501    0 -0.45412155555E+02 -0.30220632550E+02  0.10803019951E+03  0.12103089279E+03  0.15500000000E+01 0. -1.
         -4    1    3    3    0  501  0.45412155555E+02  0.30220632550E+02  0.33009990215E+03  0.33458018233E+03  0.15500000000E+01 0. -1.
<mgrwt>
<rscale>  2 0.12499386E+03</rscale>
<asrwt>0</asrwt>
<pdfrwt beam="1">  1       21 0.68749304E-01 0.12499386E+03</pdfrwt>
<pdfrwt beam="2">  1       21 0.13446906E-02 0.12499386E+03</pdfrwt>
<totfact> 0.44565233E+06</totfact>
</mgrwt>
</event>
<event>
 5    0  0.1222151E+000  0.1249977E+03  0.7546771E-02  0.1235073E+00
         21   -1    0    0  503  502  0.00000000000E+00  0.00000000000E+00  0.90305211234E+02  0.90305211234E+02  0.00000000000E+00 0.  1.
         21   -1    0    0  502  503 -0.00000000000E+00 -0.00000000000E+00 -0.43254512199E+02  0.43254512199E+02  0.00000000000E+00 0.  1.
         25    2    1    2    0    0  0.00000000000E+00  0.00000000000E+00  0.47050699036E+02  0.13355972343E+03  0.12499772575E+03 0.  0.
          4    1    3    3  501    0  0.15692172570E+02 -0.15761668348E+02 -0.38860898587E+02  0.44802303602E+02  0.15500000000E+01 0. -1.
         -4    1    3    3    0  501 -0.15692172570E+02  0.15761668348E+02  0.85911597622E+02  0.88757419831E+02  0.15500000000E+01 0. -1.
<mgrwt>
<rscale>  2 0.12499773E+03</rscale>
<asrwt>0</asrwt>
<pdfrwt beam="1">  1       21 0.13893109E-01 0.12499773E+03</pdfrwt>
<pdfrwt beam="2">  1       21 0.66545404E-02 0.12499773E+03</pdfrwt>
<totfact> 0.72891976E+06</totfact>
</mgrwt>
</event>
<event>
 5    0  0.1514047E+000  0.1250000E+03  0.7546771E-02  0.1235069E+00
         21   -1    0    0  503  502  0.00000000000E+00  0.00000000000E+00  0.11886230390E+03  0.11886230390E+03  0.00000000000E+00 0.  1.
         21   -1    0    0  502  503 -0.00000000000E+00 -0.00000000000E+00 -0.32863646653E+02  0.32863646653E+02  0.00000000000E+00 0.  1.
         25    2    1    2    0    0  0.00000000000E+00  0.00000000000E+00  0.85998657247E+02  0.15172595055E+03  0.12499998009E+03 0.  0.
          4    1    3    3  501    0 -0.34121747404E+01 -0.61661818531E+02  0.31482636401E+02  0.69335284638E+02  0.15500000000E+01 0.  1.
         -4    1    3    3    0  501  0.34121747404E+01  0.61661818531E+02  0.54516020847E+02  0.82390665916E+02  0.15500000000E+01 0.  1.
<mgrwt>
<rscale>  2 0.12499998E+03</rscale>
<asrwt>0</asrwt>
<pdfrwt beam="1">  1       21 0.18286508E-01 0.12499998E+03</pdfrwt>
<pdfrwt beam="2">  1       21 0.50559457E-02 0.12499998E+03</pdfrwt>
<totfact> 0.70543094E+06</totfact>
</mgrwt>
</event>
<event>
 5    0  0.1527514E+000  0.1249997E+03  0.7546771E-02  0.1235070E+00
         21   -1    0    0  503  502  0.00000000000E+00  0.00000000000E+00  0.71376385396E+02  0.71376385396E+02  0.00000000000E+00 0.  1.
         21   -1    0    0  502  503 -0.00000000000E+00 -0.00000000000E+00 -0.54727195939E+02  0.54727195939E+02  0.00000000000E+00 0.  1.
         25    2    1    2    0    0  0.00000000000E+00  0.00000000000E+00  0.16649189457E+02  0.12610358133E+03  0.12499967086E+03 0.  0.
          4    1    3    3  501    0 -0.95538545645E+01 -0.18666769055E+02  0.67701002528E+02  0.70891132360E+02  0.15500000000E+01 0.  1.
         -4    1    3    3    0  501  0.95538545645E+01  0.18666769055E+02 -0.51051813071E+02  0.55212448975E+02  0.15500000000E+01 0.  1.
<mgrwt>
<rscale>  2 0.12499967E+03</rscale>
<asrwt>0</asrwt>
<pdfrwt beam="1">  1       21 0.10980982E-01 0.12499967E+03</pdfrwt>
<pdfrwt beam="2">  1       21 0.84195685E-02 0.12499967E+03</pdfrwt>
<totfact> 0.73892390E+06</totfact>
</mgrwt>
</event>
<event>
 5    0  0.1270991E+000  0.1250064E+03  0.7546771E-02  0.1235059E+00
         21   -1    0    0  503  502  0.00000000000E+00  0.00000000000E+00  0.17189140823E+03  0.17189140823E+03  0.00000000000E+00 0. -1.
         21   -1    0    0  502  503 -0.00000000000E+00 -0.00000000000E+00 -0.22727427660E+02  0.22727427660E+02  0.00000000000E+00 0. -1.
         25    2    1    2    0    0  0.00000000000E+00  0.00000000000E+00  0.14916398057E+03  0.19461883589E+03  0.12500639257E+03 0.  0.
          4    1    3    3  501    0 -0.77611924520E+01  0.22908195104E+02 -0.15113587014E+02  0.28562992203E+02  0.15500000000E+01 0. -1.
         -4    1    3    3    0  501  0.77611924520E+01 -0.22908195104E+02  0.16427756759E+03  0.16605584369E+03  0.15500000000E+01 0. -1.
<mgrwt>
<rscale>  2 0.12500639E+03</rscale>
<asrwt>0</asrwt>
<pdfrwt beam="1">  1       21 0.26444831E-01 0.12500639E+03</pdfrwt>
<pdfrwt beam="2">  1       21 0.34965274E-02 0.12500639E+03</pdfrwt>
<totfact> 0.65502157E+06</totfact>
</mgrwt>
</event>
<event>
 5    0  0.1552203E+000  0.1250034E+03  0.7546771E-02  0.1235064E+00
         21   -1    0    0  503  502  0.00000000000E+00  0.00000000000E+00  0.12243984055E+03  0.12243984055E+03  0.00000000000E+00 0. -1.
         21   -1    0    0  502  503 -0.00000000000E+00 -0.00000000000E+00 -0.31905157947E+02  0.31905157947E+02  0.00000000000E+00 0. -1.
         25    2    1    2    0    0  0.00000000000E+00  0.00000000000E+00  0.90534682602E+02  0.15434499850E+03  0.12500339918E+03 0.  0.
          4    1    3    3  501    0 -0.57608808398E+02  0.24148932774E+02  0.47062665977E+02  0.78225589087E+02  0.15500000000E+01 0.  1.
         -4    1    3    3    0  501  0.57608808398E+02 -0.24148932774E+02  0.43472016626E+02  0.76119409409E+02  0.15500000000E+01 0.  1.
<mgrwt>
<rscale>  2 0.12500340E+03</rscale>
<asrwt>0</asrwt>
<pdfrwt beam="1">  1       21 0.18836898E-01 0.12500340E+03</pdfrwt>
<pdfrwt beam="2">  1       21 0.49084859E-02 0.12500340E+03</pdfrwt>
<totfact> 0.70211087E+06</totfact>
</mgrwt>
</event>
<event>
 5    0  0.1595162E+000  0.1250144E+03  0.7546771E-02  0.1235047E+00
         21   -1    0    0  503  502  0.00000000000E+00  0.00000000000E+00  0.39906633994E+02  0.39906633994E+02  0.00000000000E+00 0. -1.
         21   -1    0    0  502  503 -0.00000000000E+00 -0.00000000000E+00 -0.97907234526E+02  0.97907234526E+02  0.00000000000E+00 0. -1.
         25    2    1    2    0    0  0.00000000000E+00  0.00000000000E+00 -0.58000600531E+02  0.13781386852E+03  0.12501436995E+03 0.  0.
          4    1    3    3  501    0  0.36816428873E+02  0.31851550734E+02  0.14186928690E+02  0.50731076913E+02  0.15500000000E+01 0.  1.
         -4    1    3    3    0  501 -0.36816428873E+02 -0.31851550734E+02 -0.72187529221E+02  0.87082791607E+02  0.15500000000E+01 0.  1.
<mgrwt>
<rscale>  2 0.12501437E+03</rscale>
<asrwt>0</asrwt>
<pdfrwt beam="1">  1       21 0.61394822E-02 0.12501437E+03</pdfrwt>
<pdfrwt beam="2">  1       21 0.15062651E-01 0.12501437E+03</pdfrwt>
<totfact> 0.72299500E+06</totfact>
</mgrwt>
</event>
<event>
 5    0  0.1578123E+000  0.1249984E+03  0.7546771E-02  0.1235072E+00
         21   -1    0    0  503  502  0.00000000000E+00  0.00000000000E+00  0.34972321034E+02  0.34972321034E+02  0.00000000000E+00 0.  1.
         21   -1    0    0  502  503 -0.00000000000E+00 -0.00000000000E+00 -0.11169253651E+03  0.11169253651E+03  0.00000000000E+00 0.  1.
         25    2    1    2    0    0  0.00000000000E+00  0.00000000000E+00 -0.76720215477E+02  0.14666485755E+03  0.12499835589E+03 0.  0.
          4    1    3    3  501    0 -0.35137985296E+02  0.51535143722E+02 -0.42622347689E+02  0.75562001507E+02  0.15500000000E+01 0. -1.
         -4    1    3    3    0  501  0.35137985296E+02 -0.51535143722E+02 -0.34097867788E+02  0.71102856039E+02  0.15500000000E+01 0. -1.
<mgrwt>
<rscale>  2 0.12499836E+03</rscale>
<asrwt>0</asrwt>
<pdfrwt beam="1">  1       21 0.53803570E-02 0.12499836E+03</pdfrwt>
<pdfrwt beam="2">  1       21 0.17183467E-01 0.12499836E+03</pdfrwt>
<totfact> 0.71183694E+06</totfact>
</mgrwt>
</event>
<event>
 5    0  0.1352112E+000  0.1250533E+03  0.7546771E-02  0.1234986E+00
         21   -1    0    0  503  502  0.00000000000E+00  0.00000000000E+00  0.17844747153E+03  0.17844747153E+03  0.00000000000E+00 0.  1.
         21   -1    0    0  502  503 -0.00000000000E+00 -0.00000000000E+00 -0.21908876437E+02  0.21908876437E+02  0.00000000000E+00 0.  1.
         25    2    1    2    0    0  0.00000000000E+00  0.00000000000E+00  0.15653859509E+03  0.20035634797E+03  0.12505332629E+03 0.  0.
          4    1    3    3  501    0  0.15505687765E+02 -0.19968777180E+02  0.16985950896E+03  0.17173768864E+03  0.15500000000E+01 0.  1.
         -4    1    3    3    0  501 -0.15505687765E+02  0.19968777180E+02 -0.13320913871E+02  0.28618659324E+02  0.15500000000E+01 0.  1.
<mgrwt>
<rscale>  2 0.12505333E+03</rscale>
<asrwt>0</asrwt>
<pdfrwt beam="1">  1       21 0.27453456E-01 0.12505333E+03</pdfrwt>
<pdfrwt beam="2">  1       21 0.33705965E-02 0.12505333E+03</pdfrwt>
<totfact> 0.64801139E+06</totfact>
</mgrwt>
</event>
<event>
 5    0  0.1552309E+000  0.1250006E+03  0.7546771E-02  0.1235068E+00
         21   -1    0    0  503  502  0.00000000000E+00  0.00000000000E+00  0.23417380739E+02  0.23417380739E+02  0.00000000000E+00 0. -1.
         21   -1    0    0  502  503 -0.00000000000E+00 -0.00000000000E+00 -0.16681156113E+03  0.16681156113E+03  0.00000000000E+00 0. -1.
         25    2    1    2    0    0  0.00000000000E+00  0.00000000000E+00 -0.14339418039E+03  0.19022894187E+03  0.12500063742E+03 0.  0.
          4    1    3    3  501    0 -0.28938934806E+02 -0.50722939547E+02 -0.10550791840E+03  0.12060100285E+03  0.15500000000E+01 0.  1.
         -4    1    3    3    0  501  0.28938934806E+02  0.50722939547E+02 -0.37886261991E+02  0.69627939016E+02  0.15500000000E+01 0.  1.
<mgrwt>
<rscale>  2 0.12500064E+03</rscale>
<asrwt>0</asrwt>
<pdfrwt beam="1">  1       21 0.36026739E-02 0.12500064E+03</pdfrwt>
<pdfrwt beam="2">  1       21 0.25663318E-01 0.12500064E+03</pdfrwt>
<totfact> 0.65995962E+06</totfact>
</mgrwt>
</event>
<event>
 5    0  0.1246995E+000  0.1249981E+03  0.7546771E-02  0.1235072E+00
         21   -1    0    0  503  502  0.00000000000E+00  0.00000000000E+00  0.60008736177E+03  0.60008736177E+03  0.00000000000E+00 0. -1.
         21   -1    0    0  502  503 -0.00000000000E+00 -0.00000000000E+00 -0.65092695455E+01  0.65092695455E+01  0.00000000000E+00 0. -1.
         25    2    1    2    0    0  0.00000000000E+00  0.00000000000E+00  0.59357809222E+03  0.60659663131E+03  0.12499808620E+03 0.  0.
          4    1    3    3  501    0 -0.26593323181E+02 -0.38136012770E+02  0.49934340542E+03  0.50150553271E+03  0.15500000000E+01 0. -1.
         -4    1    3    3    0  501  0.26593323181E+02  0.38136012770E+02  0.94234686804E+02  0.10509109860E+03  0.15500000000E+01 0. -1.
<mgrwt>
<rscale>  2 0.12499809E+03</rscale>
<asrwt>0</asrwt>
<pdfrwt beam="1">  1       21 0.92321089E-01 0.12499809E+03</pdfrwt>
<pdfrwt beam="2">  1       21 0.10014266E-02 0.12499809E+03</pdfrwt>
<totfact> 0.36797757E+06</totfact>
</mgrwt>
</event>
<event>
 5    0  0.1495009E+000  0.1249980E+03  0.7546771E-02  0.1235072E+00
         21   -1    0    0  503  502  0.00000000000E+00  0.00000000000E+00  0.18822870481E+03  0.18822870481E+03  0.00000000000E+00 0.  1.
         21   -1    0    0  502  503 -0.00000000000E+00 -0.00000000000E+00 -0.20752000983E+02  0.20752000983E+02  0.00000000000E+00 0.  1.
         25    2    1    2    0    0  0.00000000000E+00  0.00000000000E+00  0.16747670383E+03  0.20898070579E+03  0.12499795626E+03 0.  0.
          4    1    3    3  501    0  0.41848049094E+02 -0.46271409290E+02  0.89387510672E+02  0.10901757700E+03  0.15500000000E+01 0. -1.
         -4    1    3    3    0  501 -0.41848049094E+02  0.46271409290E+02  0.78089193154E+02  0.99963128793E+02  0.15500000000E+01 0. -1.
<mgrwt>
<rscale>  2 0.12499796E+03</rscale>
<asrwt>0</asrwt>
<pdfrwt beam="1">  1       21 0.28958261E-01 0.12499796E+03</pdfrwt>
<pdfrwt beam="2">  1       21 0.31926157E-02 0.12499796E+03</pdfrwt>
<totfact> 0.63970244E+06</totfact>
</mgrwt>
</event>
<event>
 5    0  0.1344785E+000  0.1249957E+03  0.7546771E-02  0.1235076E+00
         21   -1    0    0  503  502  0.00000000000E+00  0.00000000000E+00  0.13813352987E+02  0.13813352987E+02  0.00000000000E+00 0.  1.
         21   -1    0    0  502  503 -0.00000000000E+00 -0.00000000000E+00 -0.28276850642E+03  0.28276850642E+03  0.00000000000E+00 0.  1.
         25    2    1    2    0    0  0.00000000000E+00  0.00000000000E+00 -0.26895515343E+03  0.29658185941E+03  0.12499569901E+03 0.  0.
          4    1    3    3  501    0  0.51090617126E+02  0.11862482188E+01 -0.49193611650E+02  0.70951196398E+02  0.15500000000E+01 0.  1.
         -4    1    3    3    0  501 -0.51090617126E+02 -0.11862482188E+01 -0.21976154178E+03  0.22563066301E+03  0.15500000000E+01 0.  1.
<mgrwt>
<rscale>  2 0.12499570E+03</rscale>
<asrwt>0</asrwt>
<pdfrwt beam="1">  1       21 0.21251314E-02 0.12499570E+03</pdfrwt>
<pdfrwt beam="2">  1       21 0.43502843E-01 0.12499570E+03</pdfrwt>
<totfact> 0.55747463E+06</totfact>
</mgrwt>
</event>
<event>
 5    0  0.1395941E+000  0.1250013E+03  0.7546771E-02  0.1235067E+00
         21   -1    0    0  503  502  0.00000000000E+00  0.00000000000E+00  0.80095589905E+01  0.80095589905E+01  0.00000000000E+00 0.  1.
         21   -1    0    0  502  503 -0.00000000000E+00 -0.00000000000E+00 -0.48770859993E+03  0.48770859993E+03  0.00000000000E+00 0.  1.
         25    2    1    2    0    0  0.00000000000E+00  0.00000000000E+00 -0.47969904094E+03  0.49571815892E+03  0.12500129281E+03 0.  0.
          4    1    3    3  501    0 -0.23480687643E+02 -0.57537959143E+02 -0.21415834679E+03  0.22299811532E+03  0.15500000000E+01 0. -1.
         -4    1    3    3    0  501  0.23480687643E+02  0.57537959143E+02 -0.26554069415E+03  0.27272004360E+03  0.15500000000E+01 0. -1.
<mgrwt>
<rscale>  2 0.12500129E+03</rscale>
<asrwt>0</asrwt>
<pdfrwt beam="1">  1       21 0.12322403E-02 0.12500129E+03</pdfrwt>
<pdfrwt beam="2">  1       21 0.75032063E-01 0.12500129E+03</pdfrwt>
<totfact> 0.42275889E+06</totfact>
</mgrwt>
</event>
<event>
 5    0  0.1222151E+000  0.1249961E+03  0.7546771E-02  0.1235075E+00
         21   -1    0    0  503  502  0.00000000000E+00  0.00000000000E+00  0.65296996070E+01  0.65296996070E+01  0.00000000000E+00 0. -1.
         21   -1    0    0  502  503 -0.00000000000E+00 -0.00000000000E+00 -0.59819123846E+03  0.59819123846E+03  0.00000000000E+00 0. -1.
         25    2    1    2    0    0  0.00000000000E+00  0.00000000000E+00 -0.59166153885E+03  0.60472093806E+03  0.12499614545E+03 0.  0.
          4    1    3    3  501    0  0.19612613062E+02 -0.72504880330E+01 -0.58066791336E+03  0.58104634262E+03  0.15500000000E+01 0.  1.
         -4    1    3    3    0  501 -0.19612613062E+02  0.72504880330E+01 -0.10993625485E+02  0.23674595438E+02  0.15500000000E+01 0.  1.
<mgrwt>
<rscale>  2 0.12499615E+03</rscale>
<asrwt>0</asrwt>
<pdfrwt beam="1">  1       21 0.10045690E-02 0.12499615E+03</pdfrwt>
<pdfrwt beam="2">  1       21 0.92029440E-01 0.12499615E+03</pdfrwt>
<totfact> 0.36883525E+06</totfact>
</mgrwt>
</event>
<event>
 5    0  0.1546045E+000  0.1249986E+03  0.7546771E-02  0.1235071E+00
         21   -1    0    0  503  502  0.00000000000E+00  0.00000000000E+00  0.22892955215E+03  0.22892955215E+03  0.00000000000E+00 0.  1.
         21   -1    0    0  502  503 -0.00000000000E+00 -0.00000000000E+00 -0.17062727959E+02  0.17062727959E+02  0.00000000000E+00 0.  1.
         25    2    1    2    0    0  0.00000000000E+00  0.00000000000E+00  0.21186682419E+03  0.24599228011E+03  0.12499860272E+03 0.  0.
          4    1    3    3  501    0  0.62431577012E+01  0.62064821583E+02  0.11295797554E+03  0.12904621588E+03  0.15500000000E+01 0. -1.
         -4    1    3    3    0  501 -0.62431577012E+01 -0.62064821583E+02  0.98908848654E+02  0.11694606423E+03  0.15500000000E+01 0. -1.
<mgrwt>
<rscale>  2 0.12499860E+03</rscale>
<asrwt>0</asrwt>
<pdfrwt beam="1">  1       21 0.35219929E-01 0.12499860E+03</pdfrwt>
<pdfrwt beam="2">  1       21 0.26250352E-02 0.12499860E+03</pdfrwt>
<totfact> 0.60259699E+06</totfact>
</mgrwt>
</event>
<event>
 5    0  0.1374082E+000  0.1250026E+03  0.7546771E-02  0.1235065E+00
         21   -1    0    0  503  502  0.00000000000E+00  0.00000000000E+00  0.23369630527E+03  0.23369630527E+03  0.00000000000E+00 0. -1.
         21   -1    0    0  502  503 -0.00000000000E+00 -0.00000000000E+00 -0.16715764898E+02  0.16715764898E+02  0.00000000000E+00 0. -1.
         25    2    1    2    0    0  0.00000000000E+00  0.00000000000E+00  0.21698054038E+03  0.25041207017E+03  0.12500259992E+03 0.  0.
          4    1    3    3  501    0  0.35882724109E+02  0.18417432887E+01  0.21089261795E+03  0.21393704848E+03  0.15500000000E+01 0. -1.
         -4    1    3    3    0  501 -0.35882724109E+02 -0.18417432887E+01  0.60879224284E+01  0.36475021691E+02  0.15500000000E+01 0. -1.
<mgrwt>
<rscale>  2 0.12500260E+03</rscale>
<asrwt>0</asrwt>
<pdfrwt beam="1">  1       21 0.35953275E-01 0.12500260E+03</pdfrwt>
<pdfrwt beam="2">  1       21 0.25716563E-02 0.12500260E+03</pdfrwt>
<totfact> 0.59835495E+06</totfact>
</mgrwt>
</event>
<event>
 5    0  0.1403088E+000  0.1250018E+03  0.7546771E-02  0.1235067E+00
         21   -1    0    0  503  502  0.00000000000E+00  0.00000000000E+00  0.10971356098E+02  0.10971356098E+02  0.00000000000E+00 0. -1.
         21   -1    0    0  502  503 -0.00000000000E+00 -0.00000000000E+00 -0.35605085178E+03  0.35605085178E+03  0.00000000000E+00 0. -1.
         25    2    1    2    0    0  0.00000000000E+00  0.00000000000E+00 -0.34507949569E+03  0.36702220788E+03  0.12500177093E+03 0.  0.
          4    1    3    3  501    0 -0.44740951709E+02 -0.43356438279E+02 -0.15863576113E+03  0.17043837804E+03  0.15500000000E+01 0. -1.
         -4    1    3    3    0  501  0.44740951709E+02  0.43356438279E+02 -0.18644373456E+03  0.19658382985E+03  0.15500000000E+01 0. -1.
<mgrwt>
<rscale>  2 0.12500177E+03</rscale>
<asrwt>0</asrwt>
<pdfrwt beam="1">  1       21 0.16879008E-02 0.12500177E+03</pdfrwt>
<pdfrwt beam="2">  1       21 0.54777059E-01 0.12500177E+03</pdfrwt>
<totfact> 0.50303110E+06</totfact>
</mgrwt>
</event>
<event>
 5    0  0.1426665E+000  0.1249976E+03  0.7546771E-02  0.1235073E+00
         21   -1    0    0  503  502  0.00000000000E+00  0.00000000000E+00  0.18203979880E+02  0.18203979880E+02  0.00000000000E+00 0. -1.
         21   -1    0    0  502  503 -0.00000000000E+00 -0.00000000000E+00 -0.21457397234E+03  0.21457397234E+03  0.00000000000E+00 0. -1.
         25    2    1    2    0    0  0.00000000000E+00  0.00000000000E+00 -0.19636999246E+03  0.23277795222E+03  0.12499760438E+03 0.  0.
          4    1    3    3  501    0  0.12925927085E+01 -0.28231520138E+02  0.55849359380E+01  0.28849324682E+02  0.15500000000E+01 0. -1.
         -4    1    3    3    0  501 -0.12925927085E+01  0.28231520138E+02 -0.20195492839E+03  0.20392862753E+03  0.15500000000E+01 0. -1.
<mgrwt>
<rscale>  2 0.12499760E+03</rscale>
<asrwt>0</asrwt>
<pdfrwt beam="1">  1       21 0.28006123E-02 0.12499760E+03</pdfrwt>
<pdfrwt beam="2">  1       21 0.33011380E-01 0.12499760E+03</pdfrwt>
<totfact> 0.61542327E+06</totfact>
</mgrwt>
</event>
<event>
 5    0  0.1478507E+000  0.1250073E+03  0.7546771E-02  0.1235058E+00
         21   -1    0    0  503  502  0.00000000000E+00  0.00000000000E+00  0.20363549540E+03  0.20363549540E+03  0.00000000000E+00 0.  1.
         21   -1    0    0  502  503 -0.00000000000E+00 -0.00000000000E+00 -0.19184806317E+02  0.19184806317E+02  0.00000000000E+00 0.  1.
         25    2    1    2    0    0  0.00000000000E+00  0.00000000000E+00  0.18445068908E+03  0.22282030171E+03  0.12500732040E+03 0.  0.
          4    1    3    3  501    0 -0.84440729853E+01 -0.58979538170E+02  0.58668862091E+02  0.83632088162E+02  0.15500000000E+01 0. -1.
         -4    1    3    3    0  501  0.84440729853E+01  0.58979538170E+02  0.12578182699E+03  0.13918821355E+03  0.15500000000E+01 0. -1.
<mgrwt>
<rscale>  2 0.12500732E+03</rscale>
<asrwt>0</asrwt>
<pdfrwt beam="1">  1       21 0.31328536E-01 0.12500732E+03</pdfrwt>
<pdfrwt beam="2">  1       21 0.29515088E-02 0.12500732E+03</pdfrwt>
<totfact> 0.62523856E+06</totfact>
</mgrwt>
</event>
<event>
 5    0  0.1563716E+000  0.1249987E+03  0.7546771E-02  0.1235071E+00
         21   -1    0    0  503  502  0.00000000000E+00  0.00000000000E+00  0.24493833471E+02  0.24493833471E+02  0.00000000000E+00 0. -1.
         21   -1    0    0  502  503 -0.00000000000E+00 -0.00000000000E+00 -0.15947570061E+03  0.15947570061E+03  0.00000000000E+00 0. -1.
         25    2    1    2    0    0  0.00000000000E+00  0.00000000000E+00 -0.13498186714E+03  0.18396953408E+03  0.12499874005E+03 0.  0.
          4    1    3    3  501    0  0.56571442418E+02  0.20248190210E+02 -0.42278869477E+02  0.73486206925E+02  0.15500000000E+01 0. -1.
         -4    1    3    3    0  501 -0.56571442418E+02 -0.20248190210E+02 -0.92702997666E+02  0.11048332716E+03  0.15500000000E+01 0. -1.
<mgrwt>
<rscale>  2 0.12499874E+03</rscale>
<asrwt>0</asrwt>
<pdfrwt beam="1">  1       21 0.37682822E-02 0.12499874E+03</pdfrwt>
<pdfrwt beam="2">  1       21 0.24534723E-01 0.12499874E+03</pdfrwt>
<totfact> 0.66701187E+06</totfact>
</mgrwt>
</event>
<event>
 5    0  0.1222151E+000  0.1250149E+03  0.7546771E-02  0.1235046E+00
         21   -1    0    0  503  502  0.00000000000E+00  0.00000000000E+00  0.48177371912E+01  0.48177371912E+01  0.00000000000E+00 0.  1.
         21   -1    0    0  502  503 -0.00000000000E+00 -0.00000000000E+00 -0.81099889888E+03  0.81099889888E+03  0.00000000000E+00 0.  1.
         25    2    1    2    0    0  0.00000000000E+00  0.00000000000E+00 -0.80618116169E+03  0.81581663607E+03  0.12501487203E+03 0.  0.
          4    1    3    3  501    0 -0.54117850759E+02 -0.10556493784E+02 -0.21120717495E+03  0.21829121508E+03  0.15500000000E+01 0.  1.
         -4    1    3    3    0  501  0.54117850759E+02  0.10556493784E+02 -0.59497398674E+03  0.59752542099E+03  0.15500000000E+01 0.  1.
<mgrwt>
<rscale>  2 0.12501487E+03</rscale>
<asrwt>0</asrwt>
<pdfrwt beam="1">  1       21 0.74119047E-03 0.12501487E+03</pdfrwt>
<pdfrwt beam="2">  1       21 0.12476904E+00 0.12501487E+03</pdfrwt>
<totfact> 0.28834817E+06</totfact>
</mgrwt>
</event>
<event>
 5    0  0.1327482E+000  0.1249839E+03  0.7546771E-02  0.1235094E+00
         21   -1    0    0  503  502  0.00000000000E+00  0.00000000000E+00  0.97447899512E+01  0.97447899512E+01  0.00000000000E+00 0. -1.
         21   -1    0    0  502  503 -0.00000000000E+00 -0.00000000000E+00 -0.40075200910E+03  0.40075200910E+03  0.00000000000E+00 0. -1.
         25    2    1    2    0    0  0.00000000000E+00  0.00000000000E+00 -0.39100721914E+03  0.41049679905E+03  0.12498390538E+03 0.  0.
          4    1    3    3  501    0 -0.72650661474E+01 -0.31700941360E+02 -0.37069198072E+03  0.37211917169E+03  0.15500000000E+01 0. -1.
         -4    1    3    3    0  501  0.72650661474E+01  0.31700941360E+02 -0.20315238422E+02  0.38377627355E+02  0.15500000000E+01 0. -1.
<mgrwt>
<rscale>  2 0.12498391E+03</rscale>
<asrwt>0</asrwt>
<pdfrwt beam="1">  1       21 0.14991983E-02 0.12498391E+03</pdfrwt>
<pdfrwt beam="2">  1       21 0.61654160E-01 0.12498391E+03</pdfrwt>
<totfact> 0.47371858E+06</totfact>
</mgrwt>
</event>
<event>
 5    0  0.1356249E+000  0.1249975E+03  0.7546771E-02  0.1235073E+00
         21   -1    0    0  503  502  0.00000000000E+00  0.00000000000E+00  0.56298918600E+03  0.56298918600E+03  0.00000000000E+00 0. -1.
         21   -1    0    0  502  503 -0.00000000000E+00 -0.00000000000E+00 -0.69381276241E+01  0.69381276241E+01  0.00000000000E+00 0. -1.
         25    2    1    2    0    0  0.00000000000E+00  0.00000000000E+00  0.55605105838E+03  0.56992731363E+03  0.12499745315E+03 0.  0.
          4    1    3    3  501    0  0.29150991561E+02  0.24634250445E+02  0.52476600680E+02  0.64906261046E+02  0.15500000000E+01 0.  1.
         -4    1    3    3    0  501 -0.29150991561E+02 -0.24634250445E+02  0.50357445770E+03  0.50502105258E+03  0.15500000000E+01 0.  1.
<mgrwt>
<rscale>  2 0.12499745E+03</rscale>
<asrwt>0</asrwt>
<pdfrwt beam="1">  1       21 0.86613685E-01 0.12499745E+03</pdfrwt>
<pdfrwt beam="2">  1       21 0.10674047E-02 0.12499745E+03</pdfrwt>
<totfact> 0.38491379E+06</totfact>
</mgrwt>
</event>
<event>
 5    0  0.1616507E+000  0.1249994E+03  0.7546771E-02  0.1235070E+00
         21   -1    0    0  503  502  0.00000000000E+00  0.00000000000E+00  0.95082793487E+02  0.95082793487E+02  0.00000000000E+00 0.  1.
         21   -1    0    0  502  503 -0.00000000000E+00 -0.00000000000E+00 -0.41082244729E+02  0.41082244729E+02  0.00000000000E+00 0.  1.
         25    2    1    2    0    0  0.00000000000E+00  0.00000000000E+00  0.54000548758E+02  0.13616503822E+03  0.12499943346E+03 0.  0.
          4    1    3    3  501    0 -0.59948567156E+02 -0.95153195732E+01  0.10863543912E+02  0.61682988716E+02  0.15500000000E+01 0. -1.
         -4    1    3    3    0  501  0.59948567156E+02  0.95153195732E+01  0.43137004846E+02  0.74482049500E+02  0.15500000000E+01 0. -1.
<mgrwt>
<rscale>  2 0.12499943E+03</rscale>
<asrwt>0</asrwt>
<pdfrwt beam="1">  1       21 0.14628122E-01 0.12499943E+03</pdfrwt>
<pdfrwt beam="2">  1       21 0.63203454E-02 0.12499943E+03</pdfrwt>
<totfact> 0.72543627E+06</totfact>
</mgrwt>
</event>
<event>
 5    0  0.1444922E+000  0.1250032E+03  0.7546771E-02  0.1235064E+00
         21   -1    0    0  503  502  0.00000000000E+00  0.00000000000E+00  0.24841186701E+03  0.24841186701E+03  0.00000000000E+00 0.  1.
         21   -1    0    0  502  503 -0.00000000000E+00 -0.00000000000E+00 -0.15725704243E+02  0.15725704243E+02  0.00000000000E+00 0.  1.
         25    2    1    2    0    0  0.00000000000E+00  0.00000000000E+00  0.23268616277E+03  0.26413757126E+03  0.12500322478E+03 0.  0.
          4    1    3    3  501    0  0.56026346380E+02 -0.16170768807E+02  0.68923964458E+02  0.90295961311E+02  0.15500000000E+01 0.  1.
         -4    1    3    3    0  501 -0.56026346380E+02  0.16170768807E+02  0.16376219831E+03  0.17384160995E+03  0.15500000000E+01 0.  1.
<mgrwt>
<rscale>  2 0.12500322E+03</rscale>
<asrwt>0</asrwt>
<pdfrwt beam="1">  1       21 0.38217208E-01 0.12500322E+03</pdfrwt>
<pdfrwt beam="2">  1       21 0.24193393E-02 0.12500322E+03</pdfrwt>
<totfact> 0.58567349E+06</totfact>
</mgrwt>
</event>
<event>
 5    0  0.1342738E+000  0.1250006E+03  0.7546771E-02  0.1235068E+00
         21   -1    0    0  503  502  0.00000000000E+00  0.00000000000E+00  0.13110504243E+02  0.13110504243E+02  0.00000000000E+00 0.  1.
         21   -1    0    0  502  503 -0.00000000000E+00 -0.00000000000E+00 -0.29795097847E+03  0.29795097847E+03  0.00000000000E+00 0.  1.
         25    2    1    2    0    0  0.00000000000E+00  0.00000000000E+00 -0.28484047423E+03  0.31106148271E+03  0.12500060108E+03 0.  0.
          4    1    3    3  501    0 -0.27416427159E+02  0.19060232397E+02 -0.11002764936E+02  0.35191139132E+02  0.15500000000E+01 0.  1.
         -4    1    3    3    0  501  0.27416427159E+02 -0.19060232397E+02 -0.27383770929E+03  0.27587034358E+03  0.15500000000E+01 0.  1.
<mgrwt>
<rscale>  2 0.12500060E+03</rscale>
<asrwt>0</asrwt>
<pdfrwt beam="1">  1       21 0.20170009E-02 0.12500060E+03</pdfrwt>
<pdfrwt beam="2">  1       21 0.45838606E-01 0.12500060E+03</pdfrwt>
<totfact> 0.54548447E+06</totfact>
</mgrwt>
</event>
<event>
 4    0  0.1539722E+000  0.1268567E+03  0.7546771E-02  0.1232196E+00
         21   -1    0    0  503  502  0.00000000000E+00  0.00000000000E+00  0.51996929281E+02  0.51996929281E+02  0.00000000000E+00 0.  1.
         21   -1    0    0  502  503 -0.00000000000E+00 -0.00000000000E+00 -0.77372990773E+02  0.77372990773E+02  0.00000000000E+00 0.  1.
          4    1    1    2  501    0 -0.58513465238E+02 -0.12184046159E+02 -0.34284897529E+02  0.68921210767E+02  0.15500000000E+01 0.  1.
         -4    1    1    2    0  501  0.58513465238E+02  0.12184046159E+02  0.89088360368E+01  0.60448709287E+02  0.15500000000E+01 0.  1.
<mgrwt>
<rscale>  2 0.12685674E+03</rscale>
<asrwt>0</asrwt>
<pdfrwt beam="1">  1       21 0.79995276E-02 0.12685674E+03</pdfrwt>
<pdfrwt beam="2">  1       21 0.11903537E-01 0.12685674E+03</pdfrwt>
<totfact> 0.70071050E+06</totfact>
</mgrwt>
</event>
<event>
 5    0  0.1335913E+000  0.1249956E+03  0.7546771E-02  0.1235076E+00
         21   -1    0    0  503  502  0.00000000000E+00  0.00000000000E+00  0.35585197329E+03  0.35585197329E+03  0.00000000000E+00 0. -1.
         21   -1    0    0  502  503 -0.00000000000E+00 -0.00000000000E+00 -0.10976404173E+02  0.10976404173E+02  0.00000000000E+00 0. -1.
         25    2    1    2    0    0  0.00000000000E+00  0.00000000000E+00  0.34487556912E+03  0.36682837746E+03  0.12499560128E+03 0.  0.
          4    1    3    3  501    0  0.19969165639E+02 -0.38039134938E+02  0.39308726305E+02  0.58252225939E+02  0.15500000000E+01 0. -1.
         -4    1    3    3    0  501 -0.19969165639E+02  0.38039134938E+02  0.30556684281E+03  0.30857615152E+03  0.15500000000E+01 0. -1.
<mgrwt>
<rscale>  2 0.12499560E+03</rscale>
<asrwt>0</asrwt>
<pdfrwt beam="1">  1       21 0.54746449E-01 0.12499560E+03</pdfrwt>
<pdfrwt beam="2">  1       21 0.16886778E-02 0.12499560E+03</pdfrwt>
<totfact> 0.50324663E+06</totfact>
</mgrwt>
</event>
<event>
 5    0  0.1222151E+000  0.1249977E+03  0.7546771E-02  0.1235073E+00
         21   -1    0    0  503  502  0.00000000000E+00  0.00000000000E+00  0.37284537727E+01  0.37284537727E+01  0.00000000000E+00 0.  1.
         21   -1    0    0  502  503 -0.00000000000E+00 -0.00000000000E+00 -0.10476483947E+04  0.10476483947E+04  0.00000000000E+00 0.  1.
         25    2    1    2    0    0  0.00000000000E+00  0.00000000000E+00 -0.10439199409E+04  0.10513768485E+04  0.12499773774E+03 0.  0.
          4    1    3    3  501    0  0.45499846282E+02  0.34097235689E+02 -0.30410447444E+03  0.30937807189E+03  0.15500000000E+01 0.  1.
         -4    1    3    3    0  501 -0.45499846282E+02 -0.34097235689E+02 -0.73981546649E+03  0.74199877658E+03  0.15500000000E+01 0.  1.
<mgrwt>
<rscale>  2 0.12499774E+03</rscale>
<asrwt>0</asrwt>
<pdfrwt beam="1">  1       21 0.57360769E-03 0.12499774E+03</pdfrwt>
<pdfrwt beam="2">  1       21 0.16117684E+00 0.12499774E+03</pdfrwt>
<totfact> 0.22367658E+06</totfact>
</mgrwt>
</event>
<event>
 5    0  0.1517730E+000  0.1249994E+03  0.7546771E-02  0.1235070E+00
         21   -1    0    0  503  502  0.00000000000E+00  0.00000000000E+00  0.45512871071E+02  0.45512871071E+02  0.00000000000E+00 0.  1.
         21   -1    0    0  502  503 -0.00000000000E+00 -0.00000000000E+00 -0.85826535331E+02  0.85826535331E+02  0.00000000000E+00 0.  1.
         25    2    1    2    0    0  0.00000000000E+00  0.00000000000E+00 -0.40313664261E+02  0.13133940640E+03  0.12499939259E+03 0.  0.
          4    1    3    3  501    0 -0.25273521436E+02  0.12948763179E+02 -0.78633816083E+02  0.83618783090E+02  0.15500000000E+01 0. -1.
         -4    1    3    3    0  501  0.25273521436E+02 -0.12948763179E+02  0.38320151822E+02  0.47720623312E+02  0.15500000000E+01 0. -1.
<mgrwt>
<rscale>  2 0.12499939E+03</rscale>
<asrwt>0</asrwt>
<pdfrwt beam="1">  1       21 0.70019804E-02 0.12499939E+03</pdfrwt>
<pdfrwt beam="2">  1       21 0.13204082E-01 0.12499939E+03</pdfrwt>
<totfact> 0.73186104E+06</totfact>
</mgrwt>
</event>
<event>
 5    0  0.1574432E+000  0.1250021E+03  0.7546771E-02  0.1235066E+00
         21   -1    0    0  503  502  0.00000000000E+00  0.00000000000E+00  0.84986623724E+02  0.84986623724E+02  0.00000000000E+00 0. -1.
         21   -1    0    0  502  503 -0.00000000000E+00 -0.00000000000E+00 -0.45964660756E+02  0.45964660756E+02  0.00000000000E+00 0. -1.
         25    2    1    2    0    0  0.00000000000E+00  0.00000000000E+00  0.39021962968E+02  0.13095128448E+03  0.12500210123E+03 0.  0.
          4    1    3    3  501    0 -0.57031137797E+02 -0.20862644028E+02  0.41082256281E+01  0.60885799758E+02  0.15500000000E+01 0.  1.
         -4    1    3    3    0  501  0.57031137797E+02  0.20862644028E+02  0.34913737340E+02  0.70065484722E+02  0.15500000000E+01 0.  1.
<mgrwt>
<rscale>  2 0.12500210E+03</rscale>
<asrwt>0</asrwt>
<pdfrwt beam="1">  1       21 0.13074865E-01 0.12500210E+03</pdfrwt>
<pdfrwt beam="2">  1       21 0.70714863E-02 0.12500210E+03</pdfrwt>
<totfact> 0.73233311E+06</totfact>
</mgrwt>
</event>
<event>
 5    0  0.1508996E+000  0.1249948E+03  0.7546771E-02  0.1235077E+00
         21   -1    0    0  503  502  0.00000000000E+00  0.00000000000E+00  0.27590985360E+02  0.27590985360E+02  0.00000000000E+00 0. -1.
         21   -1    0    0  502  503 -0.00000000000E+00 -0.00000000000E+00 -0.14156524388E+03  0.14156524388E+03  0.00000000000E+00 0. -1.
         25    2    1    2    0    0  0.00000000000E+00  0.00000000000E+00 -0.11397425852E+03  0.16915622924E+03  0.12499479303E+03 0.  0.
          4    1    3    3  501    0 -0.29681382675E+02  0.37012393404E+02 -0.11200231949E+03  0.12164630621E+03  0.15500000000E+01 0. -1.
         -4    1    3    3    0  501  0.29681382675E+02 -0.37012393404E+02 -0.19719390299E+01  0.47509923032E+02  0.15500000000E+01 0. -1.
<mgrwt>
<rscale>  2 0.12499479E+03</rscale>
<asrwt>0</asrwt>
<pdfrwt beam="1">  1       21 0.42447670E-02 0.12499479E+03</pdfrwt>
<pdfrwt beam="2">  1       21 0.21779268E-01 0.12499479E+03</pdfrwt>
<totfact> 0.68426699E+06</totfact>
</mgrwt>
</event>
<event>
 5    0  0.1320926E+000  0.1249997E+03  0.7546771E-02  0.1235070E+00
         21   -1    0    0  503  502  0.00000000000E+00  0.00000000000E+00  0.64498573232E+01  0.64498573232E+01  0.00000000000E+00 0.  1.
         21   -1    0    0  502  503 -0.00000000000E+00 -0.00000000000E+00 -0.60563096212E+03  0.60563096212E+03  0.00000000000E+00 0.  1.
         25    2    1    2    0    0  0.00000000000E+00  0.00000000000E+00 -0.59918110479E+03  0.61208081944E+03  0.12499973274E+03 0.  0.
          4    1    3    3  501    0 -0.35704433973E+02 -0.44390601308E+02 -0.42524479275E+03  0.42904646410E+03  0.15500000000E+01 0. -1.
         -4    1    3    3    0  501  0.35704433973E+02  0.44390601308E+02 -0.17393631204E+03  0.18303435534E+03  0.15500000000E+01 0. -1.
<mgrwt>
<rscale>  2 0.12499973E+03</rscale>
<asrwt>0</asrwt>
<pdfrwt beam="1">  1       21 0.99228582E-03 0.12499973E+03</pdfrwt>
<pdfrwt beam="2">  1       21 0.93173987E-01 0.12499973E+03</pdfrwt>
<totfact> 0.36552173E+06</totfact>
</mgrwt>
</event>
<event>
 5    0  0.1313911E+000  0.1249888E+03  0.7546771E-02  0.1235087E+00
         21   -1    0    0  503  502  0.00000000000E+00  0.00000000000E+00  0.46852808406E+03  0.46852808406E+03  0.00000000000E+00 0. -1.
         21   -1    0    0  502  503 -0.00000000000E+00 -0.00000000000E+00 -0.83357805199E+01  0.83357805199E+01  0.00000000000E+00 0. -1.
         25    2    1    2    0    0  0.00000000000E+00  0.00000000000E+00  0.46019230354E+03  0.47686386458E+03  0.12498875591E+03 0.  0.
          4    1    3    3  501    0 -0.46854159953E+02  0.30086337080E+01  0.38734668052E+03  0.39018485054E+03  0.15500000000E+01 0. -1.
         -4    1    3    3    0  501  0.46854159953E+02 -0.30086337080E+01  0.72845623025E+02  0.86679014044E+02  0.15500000000E+01 0. -1.
<mgrwt>
<rscale>  2 0.12498876E+03</rscale>
<asrwt>0</asrwt>
<pdfrwt beam="1">  1       21 0.72081223E-01 0.12498876E+03</pdfrwt>
<pdfrwt beam="2">  1       21 0.12824281E-02 0.12498876E+03</pdfrwt>
<totfact> 0.43339392E+06</totfact>
</mgrwt>
</event>
<event>
 5    0  0.1650946E+000  0.1250013E+03  0.7546771E-02  0.1235067E+00
         21   -1    0    0  503  502  0.00000000000E+00  0.00000000000E+00  0.70192489392E+02  0.70192489392E+02  0.00000000000E+00 0. -1.
         21   -1    0    0  502  503 -0.00000000000E+00 -0.00000000000E+00 -0.55651672563E+02  0.55651672563E+02  0.00000000000E+00 0. -1.
         25    2    1    2    0    0  0.00000000000E+00  0.00000000000E+00  0.14540816828E+02  0.12584416195E+03  0.12500127097E+03 0.  0.
          4    1    3    3  501    0  0.22865881517E+02 -0.55330058860E+02  0.25270089874E+02  0.65001876075E+02  0.15500000000E+01 0.  1.
         -4    1    3    3    0  501 -0.22865881517E+02  0.55330058860E+02 -0.10729273046E+02  0.60842285880E+02  0.15500000000E+01 0.  1.
<mgrwt>
<rscale>  2 0.12500127E+03</rscale>
<asrwt>0</asrwt>
<pdfrwt beam="1">  1       21 0.10798845E-01 0.12500127E+03</pdfrwt>
<pdfrwt beam="2">  1       21 0.85617958E-02 0.12500127E+03</pdfrwt>
<totfact> 0.73925163E+06</totfact>
</mgrwt>
</event>
<event>
 5    0  0.1488970E+000  0.1250000E+03  0.7546771E-02  0.1235069E+00
         21   -1    0    0  503  502  0.00000000000E+00  0.00000000000E+00  0.16034696087E+03  0.16034696087E+03  0.00000000000E+00 0. -1.
         21   -1    0    0  502  503 -0.00000000000E+00 -0.00000000000E+00 -0.24361240865E+02  0.24361240865E+02  0.00000000000E+00 0. -1.
         25    2    1    2    0    0  0.00000000000E+00  0.00000000000E+00  0.13598572000E+03  0.18470820173E+03  0.12500001497E+03 0.  0.
          4    1    3    3  501    0  0.48874087353E+01  0.44891350371E+02  0.41835718080E+01  0.45376479318E+02  0.15500000000E+01 0.  1.
         -4    1    3    3    0  501 -0.48874087353E+01 -0.44891350371E+02  0.13180214819E+03  0.13933172241E+03  0.15500000000E+01 0.  1.
<mgrwt>
<rscale>  2 0.12500001E+03</rscale>
<asrwt>0</asrwt>
<pdfrwt beam="1">  1       21 0.24668763E-01 0.12500001E+03</pdfrwt>
<pdfrwt beam="2">  1       21 0.37478833E-02 0.12500001E+03</pdfrwt>
<totfact> 0.66615463E+06</totfact>
</mgrwt>
</event>
<event>
 5    0  0.1697513E+000  0.1249763E+03  0.7546771E-02  0.1235106E+00
         21   -1    0    0  503  502  0.00000000000E+00  0.00000000000E+00  0.32520506358E+02  0.32520506358E+02  0.00000000000E+00 0. -1.
         21   -1    0    0  502  503 -0.00000000000E+00 -0.00000000000E+00 -0.12007104124E+03  0.12007104124E+03  0.00000000000E+00 0. -1.
         25    2    1    2    0    0  0.00000000000E+00  0.00000000000E+00 -0.87550534878E+02  0.15259154759E+03  0.12497633472E+03 0.  0.
          4    1    3    3  501    0  0.56370190099E+02  0.24773520656E+02 -0.30909132659E+02  0.68913733314E+02  0.15500000000E+01 0.  1.
         -4    1    3    3    0  501 -0.56370190099E+02 -0.24773520656E+02 -0.56641402218E+02  0.83677814280E+02  0.15500000000E+01 0.  1.
<mgrwt>
<rscale>  2 0.12497633E+03</rscale>
<asrwt>0</asrwt>
<pdfrwt beam="1">  1       21 0.50031548E-02 0.12497633E+03</pdfrwt>
<pdfrwt beam="2">  1       21 0.18472468E-01 0.12497633E+03</pdfrwt>
<totfact> 0.70477590E+06</totfact>
</mgrwt>
</event>
<event>
 5    0  0.1543794E+000  0.1250050E+03  0.7546771E-02  0.1235061E+00
         21   -1    0    0  503  502  0.00000000000E+00  0.00000000000E+00  0.15445601876E+03  0.15445601876E+03  0.00000000000E+00 0.  1.
         21   -1    0    0  502  503 -0.00000000000E+00 -0.00000000000E+00 -0.25292389021E+02  0.25292389021E+02  0.00000000000E+00 0.  1.
         25    2    1    2    0    0  0.00000000000E+00  0.00000000000E+00  0.12916362974E+03  0.17974840779E+03  0.12500498731E+03 0.  0.
          4    1    3    3  501    0  0.56429410722E+02  0.26610116066E+02  0.69517610919E+02  0.93420968735E+02  0.15500000000E+01 0. -1.
         -4    1    3    3    0  501 -0.56429410722E+02 -0.26610116066E+02  0.59646018825E+02  0.86327439051E+02  0.15500000000E+01 0. -1.
<mgrwt>
<rscale>  2 0.12500499E+03</rscale>
<asrwt>0</asrwt>
<pdfrwt beam="1">  1       21 0.23762464E-01 0.12500499E+03</pdfrwt>
<pdfrwt beam="2">  1       21 0.38911369E-02 0.12500499E+03</pdfrwt>
<totfact> 0.67171913E+06</totfact>
</mgrwt>
</event>
<event>
 5    0  0.1522242E+000  0.1250044E+03  0.7546771E-02  0.1235062E+00
         21   -1    0    0  503  502  0.00000000000E+00  0.00000000000E+00  0.11413636687E+03  0.11413636687E+03  0.00000000000E+00 0.  1.
         21   -1    0    0  502  503 -0.00000000000E+00 -0.00000000000E+00 -0.34226794726E+02  0.34226794726E+02  0.00000000000E+00 0.  1.
         25    2    1    2    0    0  0.00000000000E+00  0.00000000000E+00  0.79909572144E+02  0.14836316160E+03  0.12500435192E+03 0.  0.
          4    1    3    3  501    0  0.60522491346E+02  0.69367634490E+01  0.56444459797E+02  0.83063049472E+02  0.15500000000E+01 0. -1.
         -4    1    3    3    0  501 -0.60522491346E+02 -0.69367634490E+01  0.23465112346E+02  0.65300112123E+02  0.15500000000E+01 0. -1.
<mgrwt>
<rscale>  2 0.12500435E+03</rscale>
<asrwt>0</asrwt>
<pdfrwt beam="1">  1       21 0.17559441E-01 0.12500435E+03</pdfrwt>
<pdfrwt beam="2">  1       21 0.52656607E-02 0.12500435E+03</pdfrwt>
<totfact> 0.70957565E+06</totfact>
</mgrwt>
</event>
<event>
 5    0  0.1520865E+000  0.1249938E+03  0.7546771E-02  0.1235079E+00
         21   -1    0    0  503  502  0.00000000000E+00  0.00000000000E+00  0.16828781988E+03  0.16828781988E+03  0.00000000000E+00 0. -1.
         21   -1    0    0  502  503 -0.00000000000E+00 -0.00000000000E+00 -0.23209403093E+02  0.23209403093E+02  0.00000000000E+00 0. -1.
         25    2    1    2    0    0  0.00000000000E+00  0.00000000000E+00  0.14507841679E+03  0.19149722297E+03  0.12499375740E+03 0.  0.
          4    1    3    3  501    0  0.50474074579E+02  0.36735888329E+02  0.76384527736E+02  0.98661827843E+02  0.15500000000E+01 0. -1.
         -4    1    3    3    0  501 -0.50474074579E+02 -0.36735888329E+02  0.68693889051E+02  0.92835395130E+02  0.15500000000E+01 0. -1.
<mgrwt>
<rscale>  2 0.12499376E+03</rscale>
<asrwt>0</asrwt>
<pdfrwt beam="1">  1       21 0.25890433E-01 0.12499376E+03</pdfrwt>
<pdfrwt beam="2">  1       21 0.35706775E-02 0.12499376E+03</pdfrwt>
<totfact> 0.65866865E+06</totfact>
</mgrwt>
</event>
<event>
 5    0  0.1327342E+000  0.1249903E+03  0.7546771E-02  0.1235084E+00
         21   -1    0    0  503  502  0.00000000000E+00  0.00000000000E+00  0.61718324461E+03  0.61718324461E+03  0.00000000000E+00 0. -1.
         21   -1    0    0  502  503 -0.00000000000E+00 -0.00000000000E+00 -0.63281780162E+01  0.63281780162E+01  0.00000000000E+00 0. -1.
         25    2    1    2    0    0  0.00000000000E+00  0.00000000000E+00  0.61085506659E+03  0.62351142262E+03  0.12499032667E+03 0.  0.
          4    1    3    3  501    0 -0.37400513958E+02 -0.21679362135E+02  0.53043218414E+03  0.53219310185E+03  0.15500000000E+01 0.  1.
         -4    1    3    3    0  501  0.37400513958E+02  0.21679362135E+02  0.80422882456E+02  0.91318320777E+02  0.15500000000E+01 0.  1.
<mgrwt>
<rscale>  2 0.12499033E+03</rscale>
<asrwt>0</asrwt>
<pdfrwt beam="1">  1       21 0.94951221E-01 0.12499033E+03</pdfrwt>
<pdfrwt beam="2">  1       21 0.97356634E-03 0.12499033E+03</pdfrwt>
<totfact> 0.36059162E+06</totfact>
</mgrwt>
</event>
<event>
 5    0  0.1222151E+000  0.1249908E+03  0.7546771E-02  0.1235084E+00
         21   -1    0    0  503  502  0.00000000000E+00  0.00000000000E+00  0.75320293532E+03  0.75320293532E+03  0.00000000000E+00 0. -1.
         21   -1    0    0  502  503 -0.00000000000E+00 -0.00000000000E+00 -0.51854225556E+01  0.51854225556E+01  0.00000000000E+00 0. -1.
         25    2    1    2    0    0  0.00000000000E+00  0.00000000000E+00  0.74801751276E+03  0.75838835788E+03  0.12499080750E+03 0.  0.
          4    1    3    3  501    0 -0.36722698701E+02  0.49791809700E+02  0.42672740508E+03  0.43119190816E+03  0.15500000000E+01 0. -1.
         -4    1    3    3    0  501  0.36722698701E+02 -0.49791809700E+02  0.32129010768E+03  0.32719644972E+03  0.15500000000E+01 0. -1.
<mgrwt>
<rscale>  2 0.12499081E+03</rscale>
<asrwt>0</asrwt>
<pdfrwt beam="1">  1       21 0.11587729E+00 0.12499081E+03</pdfrwt>
<pdfrwt beam="2">  1       21 0.79775791E-03 0.12499081E+03</pdfrwt>
<totfact> 0.30783035E+06</totfact>
</mgrwt>
</event>
<event>
 5    0  0.1476264E+000  0.1249986E+03  0.7546771E-02  0.1235071E+00
         21   -1    0    0  503  502  0.00000000000E+00  0.00000000000E+00  0.25302798361E+03  0.25302798361E+03  0.00000000000E+00 0. -1.
         21   -1    0    0  502  503 -0.00000000000E+00 -0.00000000000E+00 -0.15437667588E+02  0.15437667588E+02  0.00000000000E+00 0. -1.
         25    2    1    2    0    0  0.00000000000E+00  0.00000000000E+00  0.23759031602E+03  0.26846565120E+03  0.12499859042E+03 0.  0.
          4    1    3    3  501    0 -0.38071353704E+02  0.44984849298E+02  0.74222512916E+02  0.94786331097E+02  0.15500000000E+01 0. -1.
         -4    1    3    3    0  501  0.38071353704E+02 -0.44984849298E+02  0.16336780311E+03  0.17367932010E+03  0.15500000000E+01 0. -1.
<mgrwt>
<rscale>  2 0.12499859E+03</rscale>
<asrwt>0</asrwt>
<pdfrwt beam="1">  1       21 0.38927379E-01 0.12499859E+03</pdfrwt>
<pdfrwt beam="2">  1       21 0.23750260E-02 0.12499859E+03</pdfrwt>
<totfact> 0.58183998E+06</totfact>
</mgrwt>
</event>
<event>
 5    0  0.1548717E+000  0.1249975E+03  0.7546771E-02  0.1235073E+00
         21   -1    0    0  503  502  0.00000000000E+00  0.00000000000E+00  0.32167027276E+02  0.32167027276E+02  0.00000000000E+00 0.  1.
         21   -1    0    0  502  503 -0.00000000000E+00 -0.00000000000E+00 -0.12143168643E+03  0.12143168643E+03  0.00000000000E+00 0.  1.
         25    2    1    2    0    0  0.00000000000E+00  0.00000000000E+00 -0.89264659152E+02  0.15359871370E+03  0.12499754189E+03 0.  0.
          4    1    3    3  501    0  0.14014966340E+02  0.46420849349E+02  0.37832385546E+01  0.48662407768E+02  0.15500000000E+01 0. -1.
         -4    1    3    3    0  501 -0.14014966340E+02 -0.46420849349E+02 -0.93047897707E+02  0.10493630594E+03  0.15500000000E+01 0. -1.
<mgrwt>
<rscale>  2 0.12499754E+03</rscale>
<asrwt>0</asrwt>
<pdfrwt beam="1">  1       21 0.49487734E-02 0.12499754E+03</pdfrwt>
<pdfrwt beam="2">  1       21 0.18681798E-01 0.12499754E+03</pdfrwt>
<totfact> 0.70314408E+06</totfact>
</mgrwt>
</event>
<event>
 5    0  0.1476737E+000  0.1250097E+03  0.7546771E-02  0.1235054E+00
         21   -1    0    0  503  502  0.00000000000E+00  0.00000000000E+00  0.64024430559E+02  0.64024430559E+02  0.00000000000E+00 0.  1.
         21   -1    0    0  502  503 -0.00000000000E+00 -0.00000000000E+00 -0.61021355896E+02  0.61021355896E+02  0.00000000000E+00 0.  1.
         25    2    1    2    0    0  0.00000000000E+00  0.00000000000E+00  0.30030746632E+01  0.12504578646E+03  0.12500972063E+03 0.  0.
          4    1    3    3  501    0 -0.39115466432E+02 -0.16795203058E+02 -0.44253943045E+02  0.61424038738E+02  0.15500000000E+01 0. -1.
         -4    1    3    3    0  501  0.39115466432E+02  0.16795203058E+02  0.47257017708E+02  0.63621747717E+02  0.15500000000E+01 0. -1.
<mgrwt>
<rscale>  2 0.12500972E+03</rscale>
<asrwt>0</asrwt>
<pdfrwt beam="1">  1       21 0.98499124E-02 0.12500972E+03</pdfrwt>
<pdfrwt beam="2">  1       21 0.93879009E-02 0.12500972E+03</pdfrwt>
<totfact> 0.74019000E+06</totfact>
</mgrwt>
</event>
<event>
 5    0  0.1222151E+000  0.1250030E+03  0.7546771E-02  0.1235065E+00
         21   -1    0    0  503  502  0.00000000000E+00  0.00000000000E+00  0.27546377763E+02  0.27546377763E+02  0.00000000000E+00 0. -1.
         21   -1    0    0  502  503 -0.00000000000E+00 -0.00000000000E+00 -0.14181310528E+03  0.14181310528E+03  0.00000000000E+00 0. -1.
         25    2    1    2    0    0  0.00000000000E+00  0.00000000000E+00 -0.11426672752E+03  0.16935948305E+03  0.12500299788E+03 0.  0.
          4    1    3    3  501    0 -0.21664707953E+02  0.24542307423E+01 -0.13646580117E+03  0.13820528285E+03  0.15500000000E+01 0. -1.
         -4    1    3    3    0  501  0.21664707953E+02 -0.24542307423E+01  0.22199073647E+02  0.31154200198E+02  0.15500000000E+01 0. -1.
<mgrwt>
<rscale>  2 0.12500300E+03</rscale>
<asrwt>0</asrwt>
<pdfrwt beam="1">  1       21 0.42379043E-02 0.12500300E+03</pdfrwt>
<pdfrwt beam="2">  1       21 0.21817401E-01 0.12500300E+03</pdfrwt>
<totfact> 0.68388359E+06</totfact>
</mgrwt>
</event>
<event>
 5    0  0.1222151E+000  0.1249993E+03  0.7546771E-02  0.1235070E+00
         21   -1    0    0  503  502  0.00000000000E+00  0.00000000000E+00  0.23697700741E+04  0.23697700741E+04  0.00000000000E+00 0.  1.
         21   -1    0    0  502  503 -0.00000000000E+00 -0.00000000000E+00 -0.16483482715E+01  0.16483482715E+01  0.00000000000E+00 0.  1.
         25    2    1    2    0    0  0.00000000000E+00  0.00000000000E+00  0.23681217258E+04  0.23714184223E+04  0.12499930248E+03 0.  0.
          4    1    3    3  501    0 -0.82063855712E+01  0.39380445279E+02  0.20910550056E+04  0.20914424695E+04  0.15500000000E+01 0. -1.
         -4    1    3    3    0  501  0.82063855712E+01 -0.39380445279E+02  0.27706672021E+03  0.27997595287E+03  0.15500000000E+01 0. -1.
<mgrwt>
<rscale>  2 0.12499930E+03</rscale>
<asrwt>0</asrwt>
<pdfrwt beam="1">  1       21 0.36457729E+00 0.12499930E+03</pdfrwt>
<pdfrwt beam="2">  1       21 0.25359394E-03 0.12499930E+03</pdfrwt>
<totfact> 0.48605394E+05</totfact>
</mgrwt>
</event>
<event>
 5    0  0.1489031E+000  0.1250039E+03  0.7546771E-02  0.1235063E+00
         21   -1    0    0  503  502  0.00000000000E+00  0.00000000000E+00  0.72212626633E+02  0.72212626633E+02  0.00000000000E+00 0. -1.
         21   -1    0    0  502  503 -0.00000000000E+00 -0.00000000000E+00 -0.54097101354E+02  0.54097101354E+02  0.00000000000E+00 0. -1.
         25    2    1    2    0    0  0.00000000000E+00  0.00000000000E+00  0.18115525279E+02  0.12630972799E+03  0.12500390045E+03 0.  0.
          4    1    3    3  501    0 -0.19519378538E+02 -0.18205350392E+02  0.66142616040E+02  0.71342056867E+02  0.15500000000E+01 0.  1.
         -4    1    3    3    0  501  0.19519378538E+02  0.18205350392E+02 -0.48027090761E+02  0.54967671120E+02  0.15500000000E+01 0.  1.
<mgrwt>
<rscale>  2 0.12500390E+03</rscale>
<asrwt>0</asrwt>
<pdfrwt beam="1">  1       21 0.11109635E-01 0.12500390E+03</pdfrwt>
<pdfrwt beam="2">  1       21 0.83226310E-02 0.12500390E+03</pdfrwt>
<totfact> 0.73856093E+06</totfact>
</mgrwt>
</event>
<event>
 5    0  0.1409106E+000  0.1249994E+03  0.7546771E-02  0.1235070E+00
         21   -1    0    0  503  502  0.00000000000E+00  0.00000000000E+00  0.48153566634E+03  0.48153566634E+03  0.00000000000E+00 0.  1.
         21   -1    0    0  502  503 -0.00000000000E+00 -0.00000000000E+00 -0.81119928239E+01  0.81119928239E+01  0.00000000000E+00 0.  1.
         25    2    1    2    0    0  0.00000000000E+00  0.00000000000E+00  0.47342367352E+03  0.48964765917E+03  0.12499942192E+03 0.  0.
          4    1    3    3  501    0  0.47918572300E+02 -0.22770489419E+02  0.10743674263E+03  0.11983213645E+03  0.15500000000E+01 0. -1.
         -4    1    3    3    0  501 -0.47918572300E+02  0.22770489419E+02  0.36598693089E+03  0.36981552271E+03  0.15500000000E+01 0. -1.
<mgrwt>
<rscale>  2 0.12499942E+03</rscale>
<asrwt>0</asrwt>
<pdfrwt beam="1">  1       21 0.74082388E-01 0.12499942E+03</pdfrwt>
<pdfrwt beam="2">  1       21 0.12479993E-02 0.12499942E+03</pdfrwt>
<totfact> 0.42611745E+06</totfact>
</mgrwt>
</event>
<event>
 5    0  0.1526435E+000  0.1250074E+03  0.7546771E-02  0.1235058E+00
         21   -1    0    0  503  502  0.00000000000E+00  0.00000000000E+00  0.33456113789E+02  0.33456113789E+02  0.00000000000E+00 0.  1.
         21   -1    0    0  502  503 -0.00000000000E+00 -0.00000000000E+00 -0.11677134315E+03  0.11677134315E+03  0.00000000000E+00 0.  1.
         25    2    1    2    0    0  0.00000000000E+00  0.00000000000E+00 -0.83315229362E+02  0.15022745694E+03  0.12500744528E+03 0.  0.
          4    1    3    3  501    0  0.12536174158E+02 -0.60570625123E+02 -0.52295396985E+02  0.81013377513E+02  0.15500000000E+01 0. -1.
         -4    1    3    3    0  501 -0.12536174158E+02  0.60570625123E+02 -0.31019832377E+02  0.69214079427E+02  0.15500000000E+01 0. -1.
<mgrwt>
<rscale>  2 0.12500745E+03</rscale>
<asrwt>0</asrwt>
<pdfrwt beam="1">  1       21 0.51470944E-02 0.12500745E+03</pdfrwt>
<pdfrwt beam="2">  1       21 0.17964822E-01 0.12500745E+03</pdfrwt>
<totfact> 0.70717237E+06</totfact>
</mgrwt>
</event>
<event>
 5    0  0.1222151E+000  0.1250024E+03  0.7546771E-02  0.1235065E+00
         21   -1    0    0  503  502  0.00000000000E+00  0.00000000000E+00  0.11445197707E+04  0.11445197707E+04  0.00000000000E+00 0.  1.
         21   -1    0    0  502  503 -0.00000000000E+00 -0.00000000000E+00 -0.34131358348E+01  0.34131358348E+01  0.00000000000E+00 0.  1.
         25    2    1    2    0    0  0.00000000000E+00  0.00000000000E+00  0.11411066348E+04  0.11479329065E+04  0.12500242306E+03 0.  0.
          4    1    3    3  501    0  0.54765120467E+02 -0.26063331398E+02  0.70845045315E+03  0.71104357302E+03  0.15500000000E+01 0.  1.
         -4    1    3    3    0  501 -0.54765120467E+02  0.26063331398E+02  0.43265618170E+03  0.43688933350E+03  0.15500000000E+01 0.  1.
<mgrwt>
<rscale>  2 0.12500242E+03</rscale>
<asrwt>0</asrwt>
<pdfrwt beam="1">  1       21 0.17607966E+00 0.12500242E+03</pdfrwt>
<pdfrwt beam="2">  1       21 0.52509873E-03 0.12500242E+03</pdfrwt>
<totfact> 0.20211684E+06</totfact>
</mgrwt>
</event>
<event>
 5    0  0.1370385E+000  0.1250026E+03  0.7546771E-02  0.1235065E+00
         21   -1    0    0  503  502  0.00000000000E+00  0.00000000000E+00  0.16901657106E+02  0.16901657106E+02  0.00000000000E+00 0.  1.
         21   -1    0    0  502  503 -0.00000000000E+00 -0.00000000000E+00 -0.23112616492E+03  0.23112616492E+03  0.00000000000E+00 0.  1.
         25    2    1    2    0    0  0.00000000000E+00  0.00000000000E+00 -0.21422450781E+03  0.24802782202E+03  0.12500264297E+03 0.  0.
          4    1    3    3  501    0 -0.72883659698E+00  0.28897595287E+02  0.27979294113E+01  0.29083210365E+02  0.15500000000E+01 0.  1.
         -4    1    3    3    0  501  0.72883659698E+00 -0.28897595287E+02 -0.21702243722E+03  0.21894461166E+03  0.15500000000E+01 0.  1.
<mgrwt>
<rscale>  2 0.12500264E+03</rscale>
<asrwt>0</asrwt>
<pdfrwt beam="1">  1       21 0.26002549E-02 0.12500264E+03</pdfrwt>
<pdfrwt beam="2">  1       21 0.35557872E-01 0.12500264E+03</pdfrwt>
<totfact> 0.60060362E+06</totfact>
</mgrwt>
</event>
<event>
 5    0  0.1504382E+000  0.1249827E+03  0.7546771E-02  0.1235096E+00
         21   -1    0    0  503  502  0.00000000000E+00  0.00000000000E+00  0.12147884949E+02  0.12147884949E+02  0.00000000000E+00 0. -1.
         21   -1    0    0  502  503 -0.00000000000E+00 -0.00000000000E+00 -0.32146891113E+03  0.32146891113E+03  0.00000000000E+00 0. -1.
         25    2    1    2    0    0  0.00000000000E+00  0.00000000000E+00 -0.30932102618E+03  0.33361679608E+03  0.12498267635E+03 0.  0.
          4    1    3    3  501    0 -0.85899271494E+01  0.61481255829E+02 -0.13596905772E+03  0.14947815501E+03  0.15500000000E+01 0. -1.
         -4    1    3    3    0  501  0.85899271494E+01 -0.61481255829E+02 -0.17335196846E+03  0.18413864107E+03  0.15500000000E+01 0. -1.
<mgrwt>
<rscale>  2 0.12498268E+03</rscale>
<asrwt>0</asrwt>
<pdfrwt beam="1">  1       21 0.18689059E-02 0.12498268E+03</pdfrwt>
<pdfrwt beam="2">  1       21 0.49456742E-01 0.12498268E+03</pdfrwt>
<totfact> 0.52794552E+06</totfact>
</mgrwt>
</event>
<event>
 5    0  0.1362244E+000  0.1250027E+03  0.7546771E-02  0.1235065E+00
         21   -1    0    0  503  502  0.00000000000E+00  0.00000000000E+00  0.22777701290E+03  0.22777701290E+03  0.00000000000E+00 0. -1.
         21   -1    0    0  502  503 -0.00000000000E+00 -0.00000000000E+00 -0.17150179962E+02  0.17150179962E+02  0.00000000000E+00 0. -1.
         25    2    1    2    0    0  0.00000000000E+00  0.00000000000E+00  0.21062683294E+03  0.24492719286E+03  0.12500266817E+03 0.  0.
          4    1    3    3  501    0  0.27633346325E+02 -0.31153759065E+02  0.14042344450E+02  0.43974406996E+02  0.15500000000E+01 0. -1.
         -4    1    3    3    0  501 -0.27633346325E+02  0.31153759065E+02  0.19658448849E+03  0.20095278587E+03  0.15500000000E+01 0. -1.
<mgrwt>
<rscale>  2 0.12500267E+03</rscale>
<asrwt>0</asrwt>
<pdfrwt beam="1">  1       21 0.35042615E-01 0.12500267E+03</pdfrwt>
<pdfrwt beam="2">  1       21 0.26384894E-02 0.12500267E+03</pdfrwt>
<totfact> 0.60355041E+06</totfact>
</mgrwt>
</event>
<event>
 5    0  0.1461706E+000  0.1249927E+03  0.7546771E-02  0.1235081E+00
         21   -1    0    0  503  502  0.00000000000E+00  0.00000000000E+00  0.33307414366E+02  0.33307414366E+02  0.00000000000E+00 0.  1.
         21   -1    0    0  502  503 -0.00000000000E+00 -0.00000000000E+00 -0.11726499074E+03  0.11726499074E+03  0.00000000000E+00 0.  1.
         25    2    1    2    0    0  0.00000000000E+00  0.00000000000E+00 -0.83957576376E+02  0.15057240511E+03  0.12499269798E+03 0.  0.
          4    1    3    3  501    0  0.27078105911E+02  0.27799197679E+02 -0.10096200478E+03  0.10817461865E+03  0.15500000000E+01 0. -1.
         -4    1    3    3    0  501 -0.27078105911E+02 -0.27799197679E+02  0.17004428401E+02  0.42397786458E+02  0.15500000000E+01 0. -1.
<mgrwt>
<rscale>  2 0.12499270E+03</rscale>
<asrwt>0</asrwt>
<pdfrwt beam="1">  1       21 0.51242175E-02 0.12499270E+03</pdfrwt>
<pdfrwt beam="2">  1       21 0.18040768E-01 0.12499270E+03</pdfrwt>
<totfact> 0.70700510E+06</totfact>
</mgrwt>
</event>
<event>
 5    0  0.1490448E+000  0.1249986E+03  0.7546771E-02  0.1235071E+00
         21   -1    0    0  503  502  0.00000000000E+00  0.00000000000E+00  0.14450796776E+03  0.14450796776E+03  0.00000000000E+00 0. -1.
         21   -1    0    0  502  503 -0.00000000000E+00 -0.00000000000E+00 -0.27030776383E+02  0.27030776383E+02  0.00000000000E+00 0. -1.
         25    2    1    2    0    0  0.00000000000E+00  0.00000000000E+00  0.11747719138E+03  0.17153874414E+03  0.12499860099E+03 0.  0.
          4    1    3    3  501    0  0.27009698940E+02 -0.45468494284E+02  0.13082170863E+02  0.54501866975E+02  0.15500000000E+01 0. -1.
         -4    1    3    3    0  501 -0.27009698940E+02  0.45468494284E+02  0.10439502051E+03  0.11703687717E+03  0.15500000000E+01 0. -1.
<mgrwt>
<rscale>  2 0.12499860E+03</rscale>
<asrwt>0</asrwt>
<pdfrwt beam="1">  1       21 0.22231995E-01 0.12499860E+03</pdfrwt>
<pdfrwt beam="2">  1       21 0.41585811E-02 0.12499860E+03</pdfrwt>
<totfact> 0.68138113E+06</totfact>
</mgrwt>
</event>
<event>
 5    0  0.1222151E+000  0.1250001E+03  0.7546771E-02  0.1235069E+00
         21   -1    0    0  503  502  0.00000000000E+00  0.00000000000E+00  0.30323606771E+01  0.30323606771E+01  0.00000000000E+00 0.  1.
         21   -1    0    0  502  503 -0.00000000000E+00 -0.00000000000E+00 -0.12881895353E+04  0.12881895353E+04  0.00000000000E+00 0.  1.
         25    2    1    2    0    0  0.00000000000E+00  0.00000000000E+00 -0.12851571746E+04  0.12912218960E+04  0.12500008466E+03 0.  0.
          4    1    3    3  501    0  0.23802808112E+02  0.78541798502E+01 -0.12337799248E+04  0.12340354805E+04  0.15500000000E+01 0. -1.
         -4    1    3    3    0  501 -0.23802808112E+02 -0.78541798502E+01 -0.51377249855E+02  0.57186415501E+02  0.15500000000E+01 0. -1.
<mgrwt>
<rscale>  2 0.12500008E+03</rscale>
<asrwt>0</asrwt>
<pdfrwt beam="1">  1       21 0.46651604E-03 0.12500008E+03</pdfrwt>
<pdfrwt beam="2">  1       21 0.19818342E+00 0.12500008E+03</pdfrwt>
<totfact> 0.17410609E+06</totfact>
</mgrwt>
</event>
<event>
 5    0  0.1264927E+000  0.1249994E+03  0.7546771E-02  0.1235070E+00
         21   -1    0    0  503  502  0.00000000000E+00  0.00000000000E+00  0.78053004533E+03  0.78053004533E+03  0.00000000000E+00 0.  1.
         21   -1    0    0  502  503 -0.00000000000E+00 -0.00000000000E+00 -0.50045619109E+01  0.50045619109E+01  0.00000000000E+00 0.  1.
         25    2    1    2    0    0  0.00000000000E+00  0.00000000000E+00  0.77552548342E+03  0.78553460724E+03  0.12499937496E+03 0.  0.
          4    1    3    3  501    0 -0.56809059730E+02  0.13647243947E+02  0.52691326404E+03  0.53014479801E+03  0.15500000000E+01 0. -1.
         -4    1    3    3    0  501  0.56809059730E+02 -0.13647243947E+02  0.24861221937E+03  0.25538980923E+03  0.15500000000E+01 0. -1.
<mgrwt>
<rscale>  2 0.12499937E+03</rscale>
<asrwt>0</asrwt>
<pdfrwt beam="1">  1       21 0.12008145E+00 0.12499937E+03</pdfrwt>
<pdfrwt beam="2">  1       21 0.76993322E-03 0.12499937E+03</pdfrwt>
<totfact> 0.29848209E+06</totfact>
</mgrwt>
</event>
<event>
 5    0  0.1367464E+000  0.1249947E+03  0.7546771E-02  0.1235078E+00
         21   -1    0    0  503  502  0.00000000000E+00  0.00000000000E+00  0.96431503903E+01  0.96431503903E+01  0.00000000000E+00 0.  1.
         21   -1    0    0  502  503 -0.00000000000E+00 -0.00000000000E+00 -0.40504605176E+03  0.40504605176E+03  0.00000000000E+00 0.  1.
         25    2    1    2    0    0  0.00000000000E+00  0.00000000000E+00 -0.39540290137E+03  0.41468920215E+03  0.12499471976E+03 0.  0.
          4    1    3    3  501    0  0.45202246155E+02  0.42979989968E+02 -0.20966107343E+03  0.21874800755E+03  0.15500000000E+01 0. -1.
         -4    1    3    3    0  501 -0.45202246155E+02 -0.42979989968E+02 -0.18574182794E+03  0.19594119461E+03  0.15500000000E+01 0. -1.
<mgrwt>
<rscale>  2 0.12499472E+03</rscale>
<asrwt>0</asrwt>
<pdfrwt beam="1">  1       21 0.14835618E-02 0.12499472E+03</pdfrwt>
<pdfrwt beam="2">  1       21 0.62314769E-01 0.12499472E+03</pdfrwt>
<totfact> 0.47088267E+06</totfact>
</mgrwt>
</event>
<event>
 5    0  0.1222151E+000  0.1250025E+03  0.7546771E-02  0.1235065E+00
         21   -1    0    0  503  502  0.00000000000E+00  0.00000000000E+00  0.42054023902E+01  0.42054023902E+01  0.00000000000E+00 0. -1.
         21   -1    0    0  502  503 -0.00000000000E+00 -0.00000000000E+00 -0.92890177128E+03  0.92890177128E+03  0.00000000000E+00 0. -1.
         25    2    1    2    0    0  0.00000000000E+00  0.00000000000E+00 -0.92469636889E+03  0.93310717367E+03  0.12500249164E+03 0.  0.
          4    1    3    3  501    0  0.92137056844E+01 -0.60137991957E+02 -0.56858144730E+03  0.57182928848E+03  0.15500000000E+01 0.  1.
         -4    1    3    3    0  501 -0.92137056844E+01  0.60137991957E+02 -0.35611492159E+03  0.36127788520E+03  0.15500000000E+01 0.  1.
<mgrwt>
<rscale>  2 0.12500249E+03</rscale>
<asrwt>0</asrwt>
<pdfrwt beam="1">  1       21 0.64698480E-03 0.12500249E+03</pdfrwt>
<pdfrwt beam="2">  1       21 0.14290801E+00 0.12500249E+03</pdfrwt>
<totfact> 0.25367639E+06</totfact>
</mgrwt>
</event>
<event>
 5    0  0.1395352E+000  0.1250077E+03  0.7546771E-02  0.1235057E+00
         21   -1    0    0  503  502  0.00000000000E+00  0.00000000000E+00  0.95805800591E+02  0.95805800591E+02  0.00000000000E+00 0.  1.
         21   -1    0    0  502  503 -0.00000000000E+00 -0.00000000000E+00 -0.40777599193E+02  0.40777599193E+02  0.00000000000E+00 0.  1.
         25    2    1    2    0    0  0.00000000000E+00  0.00000000000E+00  0.55028201398E+02  0.13658339978E+03  0.12500768835E+03 0.  0.
          4    1    3    3  501    0 -0.10436694835E+02  0.25855077109E+02  0.88611042234E+02  0.92907098314E+02  0.15500000000E+01 0. -1.
         -4    1    3    3    0  501  0.10436694835E+02 -0.25855077109E+02 -0.33582840836E+02  0.43676301469E+02  0.15500000000E+01 0. -1.
<mgrwt>
<rscale>  2 0.12500769E+03</rscale>
<asrwt>0</asrwt>
<pdfrwt beam="1">  1       21 0.14739354E-01 0.12500769E+03</pdfrwt>
<pdfrwt beam="2">  1       21 0.62734768E-02 0.12500769E+03</pdfrwt>
<totfact> 0.72473281E+06</totfact>
</mgrwt>
</event>
<event>
 5    0  0.1502399E+000  0.1250014E+03  0.7546771E-02  0.1235067E+00
         21   -1    0    0  503  502  0.00000000000E+00  0.00000000000E+00  0.39760697684E+02  0.39760697684E+02  0.00000000000E+00 0.  1.
         21   -1    0    0  502  503 -0.00000000000E+00 -0.00000000000E+00 -0.98246245140E+02  0.98246245140E+02  0.00000000000E+00 0.  1.
         25    2    1    2    0    0  0.00000000000E+00  0.00000000000E+00 -0.58485547457E+02  0.13800694282E+03  0.12500142802E+03 0.  0.
          4    1    3    3  501    0  0.57402220050E+02 -0.62484658884E+01 -0.55598629339E+02  0.80172740237E+02  0.15500000000E+01 0.  1.
         -4    1    3    3    0  501 -0.57402220050E+02  0.62484658884E+01 -0.28869181175E+01  0.57834202587E+02  0.15500000000E+01 0.  1.
<mgrwt>
<rscale>  2 0.12500143E+03</rscale>
<asrwt>0</asrwt>
<pdfrwt beam="1">  1       21 0.61170304E-02 0.12500143E+03</pdfrwt>
<pdfrwt beam="2">  1       21 0.15114807E-01 0.12500143E+03</pdfrwt>
<totfact> 0.72297947E+06</totfact>
</mgrwt>
</event>
<event>
 5    0  0.1614521E+000  0.1249803E+03  0.7546771E-02  0.1235100E+00
         21   -1    0    0  503  502  0.00000000000E+00  0.00000000000E+00  0.12796024640E+03  0.12796024640E+03  0.00000000000E+00 0. -1.
         21   -1    0    0  502  503 -0.00000000000E+00 -0.00000000000E+00 -0.30517448144E+02  0.30517448144E+02  0.00000000000E+00 0. -1.
         25    2    1    2    0    0  0.00000000000E+00  0.00000000000E+00  0.97442798260E+02  0.15847769455E+03  0.12498032140E+03 0.  0.
          4    1    3    3  501    0  0.10185827097E+02  0.55417000559E+02  0.14512484618E+02  0.58204894420E+02  0.15500000000E+01 0.  1.
         -4    1    3    3    0  501 -0.10185827097E+02 -0.55417000559E+02  0.82930313642E+02  0.10027280013E+03  0.15500000000E+01 0.  1.
<mgrwt>
<rscale>  2 0.12498032E+03</rscale>
<asrwt>0</asrwt>
<pdfrwt beam="1">  1       21 0.19686191E-01 0.12498032E+03</pdfrwt>
<pdfrwt beam="2">  1       21 0.46949921E-02 0.12498032E+03</pdfrwt>
<totfact> 0.69740876E+06</totfact>
</mgrwt>
</event>
<event>
 5    0  0.1433414E+000  0.1249996E+03  0.7546771E-02  0.1235070E+00
         21   -1    0    0  503  502  0.00000000000E+00  0.00000000000E+00  0.42071463050E+03  0.42071463050E+03  0.00000000000E+00 0.  1.
         21   -1    0    0  502  503 -0.00000000000E+00 -0.00000000000E+00 -0.92847427754E+01  0.92847427754E+01  0.00000000000E+00 0.  1.
         25    2    1    2    0    0  0.00000000000E+00  0.00000000000E+00  0.41142988772E+03  0.42999937327E+03  0.12499963402E+03 0.  0.
          4    1    3    3  501    0  0.49113697237E+02  0.38510334545E+02  0.21581679441E+03  0.22466528965E+03  0.15500000000E+01 0.  1.
         -4    1    3    3    0  501 -0.49113697237E+02 -0.38510334545E+02  0.19561309331E+03  0.20533408363E+03  0.15500000000E+01 0.  1.
<mgrwt>
<rscale>  2 0.12499963E+03</rscale>
<asrwt>0</asrwt>
<pdfrwt beam="1">  1       21 0.64725313E-01 0.12499963E+03</pdfrwt>
<pdfrwt beam="2">  1       21 0.14284223E-02 0.12499963E+03</pdfrwt>
<totfact> 0.46113589E+06</totfact>
</mgrwt>
</event>
<event>
 5    0  0.1222151E+000  0.1250094E+03  0.7546771E-02  0.1235055E+00
         21   -1    0    0  503  502  0.00000000000E+00  0.00000000000E+00  0.51650808319E+01  0.51650808319E+01  0.00000000000E+00 0. -1.
         21   -1    0    0  502  503 -0.00000000000E+00 -0.00000000000E+00 -0.75639428868E+03  0.75639428868E+03  0.00000000000E+00 0. -1.
         25    2    1    2    0    0  0.00000000000E+00  0.00000000000E+00 -0.75122920785E+03  0.76155936951E+03  0.12500940192E+03 0.  0.
          4    1    3    3  501    0 -0.21479972706E+02 -0.19000730237E+02 -0.37410646357E+02  0.47163290151E+02  0.15500000000E+01 0.  1.
         -4    1    3    3    0  501  0.21479972706E+02  0.19000730237E+02 -0.71381856149E+03  0.71439607936E+03  0.15500000000E+01 0.  1.
<mgrwt>
<rscale>  2 0.12500940E+03</rscale>
<asrwt>0</asrwt>
<pdfrwt beam="1">  1       21 0.79462776E-03 0.12500940E+03</pdfrwt>
<pdfrwt beam="2">  1       21 0.11636836E+00 0.12500940E+03</pdfrwt>
<totfact> 0.30659269E+06</totfact>
</mgrwt>
</event>
<event>
 5    0  0.1321645E+000  0.1250043E+03  0.7546771E-02  0.1235063E+00
         21   -1    0    0  503  502  0.00000000000E+00  0.00000000000E+00  0.32129077414E+03  0.32129077414E+03  0.00000000000E+00 0.  1.
         21   -1    0    0  502  503 -0.00000000000E+00 -0.00000000000E+00 -0.12158825417E+02  0.12158825417E+02  0.00000000000E+00 0.  1.
         25    2    1    2    0    0  0.00000000000E+00  0.00000000000E+00  0.30913194872E+03  0.33344959956E+03  0.12500429482E+03 0.  0.
          4    1    3    3  501    0 -0.21247696468E+02 -0.27569245544E+02  0.29298322567E+03  0.29504762485E+03  0.15500000000E+01 0.  1.
         -4    1    3    3    0  501  0.21247696468E+02  0.27569245544E+02  0.16148723050E+02  0.38401974704E+02  0.15500000000E+01 0.  1.
<mgrwt>
<rscale>  2 0.12500429E+03</rscale>
<asrwt>0</asrwt>
<pdfrwt beam="1">  1       21 0.49429343E-01 0.12500429E+03</pdfrwt>
<pdfrwt beam="2">  1       21 0.18705888E-02 0.12500429E+03</pdfrwt>
<totfact> 0.52778769E+06</totfact>
</mgrwt>
</event>
<event>
 5    0  0.1392791E+000  0.1250036E+03  0.7546771E-02  0.1235064E+00
         21   -1    0    0  503  502  0.00000000000E+00  0.00000000000E+00  0.29298364480E+03  0.29298364480E+03  0.00000000000E+00 0.  1.
         21   -1    0    0  502  503 -0.00000000000E+00 -0.00000000000E+00 -0.13333432067E+02  0.13333432067E+02  0.00000000000E+00 0.  1.
         25    2    1    2    0    0  0.00000000000E+00  0.00000000000E+00  0.27965021274E+03  0.30631707687E+03  0.12500364034E+03 0.  0.
          4    1    3    3  501    0  0.16894723454E+02 -0.29278866043E+02  0.26859446368E+03  0.27071769816E+03  0.15500000000E+01 0. -1.
         -4    1    3    3    0  501 -0.16894723454E+02  0.29278866043E+02  0.11055749054E+02  0.35599378709E+02  0.15500000000E+01 0. -1.
<mgrwt>
<rscale>  2 0.12500364E+03</rscale>
<asrwt>0</asrwt>
<pdfrwt beam="1">  1       21 0.45074402E-01 0.12500364E+03</pdfrwt>
<pdfrwt beam="2">  1       21 0.20512975E-02 0.12500364E+03</pdfrwt>
<totfact> 0.54930232E+06</totfact>
</mgrwt>
</event>
<event>
 5    0  0.1597153E+000  0.1249954E+03  0.7546771E-02  0.1235077E+00
         21   -1    0    0  503  502  0.00000000000E+00  0.00000000000E+00  0.72237379613E+02  0.72237379613E+02  0.00000000000E+00 0. -1.
         21   -1    0    0  502  503 -0.00000000000E+00 -0.00000000000E+00 -0.54071176130E+02  0.54071176130E+02  0.00000000000E+00 0. -1.
         25    2    1    2    0    0  0.00000000000E+00  0.00000000000E+00  0.18166203482E+02  0.12630855574E+03  0.12499536113E+03 0.  0.
          4    1    3    3  501    0  0.76630219201E+01  0.50847578094E+02 -0.26777182726E+02  0.57996707818E+02  0.15500000000E+01 0.  1.
         -4    1    3    3    0  501 -0.76630219201E+01 -0.50847578094E+02  0.44943386209E+02  0.68311847925E+02  0.15500000000E+01 0.  1.
<mgrwt>
<rscale>  2 0.12499536E+03</rscale>
<asrwt>0</asrwt>
<pdfrwt beam="1">  1       21 0.11113443E-01 0.12499536E+03</pdfrwt>
<pdfrwt beam="2">  1       21 0.83186425E-02 0.12499536E+03</pdfrwt>
<totfact> 0.73872349E+06</totfact>
</mgrwt>
</event>
<event>
 5    0  0.1581704E+000  0.1250093E+03  0.7546771E-02  0.1235055E+00
         21   -1    0    0  503  502  0.00000000000E+00  0.00000000000E+00  0.27920549375E+02  0.27920549375E+02  0.00000000000E+00 0. -1.
         21   -1    0    0  502  503 -0.00000000000E+00 -0.00000000000E+00 -0.13992675725E+03  0.13992675725E+03  0.00000000000E+00 0. -1.
         25    2    1    2    0    0  0.00000000000E+00  0.00000000000E+00 -0.11200620787E+03  0.16784730662E+03  0.12500931061E+03 0.  0.
          4    1    3    3  501    0 -0.53725346067E+02 -0.25408656066E+02 -0.30091955566E+02  0.66632881544E+02  0.15500000000E+01 0.  1.
         -4    1    3    3    0  501  0.53725346067E+02  0.25408656066E+02 -0.81914252307E+02  0.10121442508E+03  0.15500000000E+01 0.  1.
<mgrwt>
<rscale>  2 0.12500931E+03</rscale>
<asrwt>0</asrwt>
<pdfrwt beam="1">  1       21 0.42954692E-02 0.12500931E+03</pdfrwt>
<pdfrwt beam="2">  1       21 0.21527193E-01 0.12500931E+03</pdfrwt>
<totfact> 0.68556909E+06</totfact>
</mgrwt>
</event>
<event>
 5    0  0.1222151E+000  0.1250248E+03  0.7546771E-02  0.1235031E+00
         21   -1    0    0  503  502  0.00000000000E+00  0.00000000000E+00  0.11919297986E+04  0.11919297986E+04  0.00000000000E+00 0. -1.
         21   -1    0    0  502  503 -0.00000000000E+00 -0.00000000000E+00 -0.32785465480E+01  0.32785465480E+01  0.00000000000E+00 0. -1.
         25    2    1    2    0    0  0.00000000000E+00  0.00000000000E+00  0.11886512521E+04  0.11952083452E+04  0.12502475478E+03 0.  0.
          4    1    3    3  501    0 -0.11602479544E+02  0.60868646549E+02  0.51678816403E+03  0.52049209278E+03  0.15500000000E+01 0. -1.
         -4    1    3    3    0  501  0.11602479544E+02 -0.60868646549E+02  0.67186308806E+03  0.67471625241E+03  0.15500000000E+01 0. -1.
<mgrwt>
<rscale>  2 0.12502475E+03</rscale>
<asrwt>0</asrwt>
<pdfrwt beam="1">  1       21 0.18337347E+00 0.12502475E+03</pdfrwt>
<pdfrwt beam="2">  1       21 0.50439273E-03 0.12502475E+03</pdfrwt>
<totfact> 0.19227365E+06</totfact>
</mgrwt>
</event>
<event>
 5    0  0.1532651E+000  0.1250005E+03  0.7546771E-02  0.1235069E+00
         21   -1    0    0  503  502  0.00000000000E+00  0.00000000000E+00  0.19292780683E+02  0.19292780683E+02  0.00000000000E+00 0.  1.
         21   -1    0    0  502  503 -0.00000000000E+00 -0.00000000000E+00 -0.20247362470E+03  0.20247362470E+03  0.00000000000E+00 0.  1.
         25    2    1    2    0    0  0.00000000000E+00  0.00000000000E+00 -0.18318084402E+03  0.22176640539E+03  0.12500046777E+03 0.  0.
          4    1    3    3  501    0 -0.61340241303E+02  0.88980255081E+01 -0.77612315663E+02  0.99337173825E+02  0.15500000000E+01 0. -1.
         -4    1    3    3    0  501  0.61340241303E+02 -0.88980255081E+01 -0.10556852836E+03  0.12242923156E+03  0.15500000000E+01 0. -1.
<mgrwt>
<rscale>  2 0.12500047E+03</rscale>
<asrwt>0</asrwt>
<pdfrwt beam="1">  1       21 0.29681201E-02 0.12500047E+03</pdfrwt>
<pdfrwt beam="2">  1       21 0.31149789E-01 0.12500047E+03</pdfrwt>
<totfact> 0.62641699E+06</totfact>
</mgrwt>
</event>
<event>
 5    0  0.1222151E+000  0.1249970E+03  0.7546771E-02  0.1235074E+00
         21   -1    0    0  503  502  0.00000000000E+00  0.00000000000E+00  0.35547468367E+02  0.35547468367E+02  0.00000000000E+00 0. -1.
         21   -1    0    0  502  503 -0.00000000000E+00 -0.00000000000E+00 -0.10988303278E+03  0.10988303278E+03  0.00000000000E+00 0. -1.
         25    2    1    2    0    0  0.00000000000E+00  0.00000000000E+00 -0.74335564409E+02  0.14543050114E+03  0.12499701807E+03 0.  0.
          4    1    3    3  501    0 -0.23566755558E+02  0.65942195616E+01  0.29717025356E+02  0.38527649749E+02  0.15500000000E+01 0.  1.
         -4    1    3    3    0  501  0.23566755558E+02 -0.65942195616E+01 -0.10405258977E+03  0.10690285139E+03  0.15500000000E+01 0.  1.
<mgrwt>
<rscale>  2 0.12499702E+03</rscale>
<asrwt>0</asrwt>
<pdfrwt beam="1">  1       21 0.54688413E-02 0.12499702E+03</pdfrwt>
<pdfrwt beam="2">  1       21 0.16905082E-01 0.12499702E+03</pdfrwt>
<totfact> 0.71343468E+06</totfact>
</mgrwt>
</event>
<event>
 5    0  0.1601819E+000  0.1250012E+03  0.7546771E-02  0.1235067E+00
         21   -1    0    0  503  502  0.00000000000E+00  0.00000000000E+00  0.11853132841E+03  0.11853132841E+03  0.00000000000E+00 0.  1.
         21   -1    0    0  502  503 -0.00000000000E+00 -0.00000000000E+00 -0.32956033741E+02  0.32956033741E+02  0.00000000000E+00 0.  1.
         25    2    1    2    0    0  0.00000000000E+00  0.00000000000E+00  0.85575294668E+02  0.15148736215E+03  0.12500115933E+03 0.  0.
          4    1    3    3  501    0  0.36459180701E+02  0.48514006124E+02  0.24770039858E+02  0.65565524646E+02  0.15500000000E+01 0. -1.
         -4    1    3    3    0  501 -0.36459180701E+02 -0.48514006124E+02  0.60805254810E+02  0.85921837504E+02  0.15500000000E+01 0. -1.
<mgrwt>
<rscale>  2 0.12500116E+03</rscale>
<asrwt>0</asrwt>
<pdfrwt beam="1">  1       21 0.18235589E-01 0.12500116E+03</pdfrwt>
<pdfrwt beam="2">  1       21 0.50701591E-02 0.12500116E+03</pdfrwt>
<totfact> 0.70570776E+06</totfact>
</mgrwt>
</event>
<event>
 5    0  0.1381435E+000  0.1250008E+03  0.7546771E-02  0.1235068E+00
         21   -1    0    0  503  502  0.00000000000E+00  0.00000000000E+00  0.51706234620E+03  0.51706234620E+03  0.00000000000E+00 0. -1.
         21   -1    0    0  502  503 -0.00000000000E+00 -0.00000000000E+00 -0.75548007960E+01  0.75548007960E+01  0.00000000000E+00 0. -1.
         25    2    1    2    0    0  0.00000000000E+00  0.00000000000E+00  0.50950754541E+03  0.52461714700E+03  0.12500084839E+03 0.  0.
          4    1    3    3  501    0 -0.62174281483E+02  0.60794214950E+01  0.24996877950E+03  0.25766139383E+03  0.15500000000E+01 0. -1.
         -4    1    3    3    0  501  0.62174281483E+02 -0.60794214950E+01  0.25953876591E+03  0.26695575317E+03  0.15500000000E+01 0. -1.
<mgrwt>
<rscale>  2 0.12500085E+03</rscale>
<asrwt>0</asrwt>
<pdfrwt beam="1">  1       21 0.79548025E-01 0.12500085E+03</pdfrwt>
<pdfrwt beam="2">  1       21 0.11622775E-02 0.12500085E+03</pdfrwt>
<totfact> 0.40738889E+06</totfact>
</mgrwt>
</event>
<event>
 5    0  0.1493761E+000  0.1250000E+03  0.7546771E-02  0.1235069E+00
         21   -1    0    0  503  502  0.00000000000E+00  0.00000000000E+00  0.70674719301E+02  0.70674719301E+02  0.00000000000E+00 0. -1.
         21   -1    0    0  502  503 -0.00000000000E+00 -0.00000000000E+00 -0.55270868306E+02  0.55270868306E+02  0.00000000000E+00 0. -1.
         25    2    1    2    0    0  0.00000000000E+00  0.00000000000E+00  0.15403850995E+02  0.12594558761E+03  0.12500004965E+03 0.  0.
          4    1    3    3  501    0 -0.25798058529E+02  0.12597146946E+02  0.63616049504E+02  0.69811404438E+02  0.15500000000E+01 0.  1.
         -4    1    3    3    0  501  0.25798058529E+02 -0.12597146946E+02 -0.48212198509E+02  0.56134183170E+02  0.15500000000E+01 0.  1.
<mgrwt>
<rscale>  2 0.12500005E+03</rscale>
<asrwt>0</asrwt>
<pdfrwt beam="1">  1       21 0.10873034E-01 0.12500005E+03</pdfrwt>
<pdfrwt beam="2">  1       21 0.85032105E-02 0.12500005E+03</pdfrwt>
<totfact> 0.73913451E+06</totfact>
</mgrwt>
</event>
<event>
 4    0  0.1973255E+000  0.1248554E+03  0.7546771E-02  0.1235295E+00
         21   -1    0    0  503  502  0.00000000000E+00  0.00000000000E+00  0.85633574423E+02  0.85633574423E+02  0.00000000000E+00 0.  1.
         21   -1    0    0  502  503 -0.00000000000E+00 -0.00000000000E+00 -0.45510398483E+02  0.45510398483E+02  0.00000000000E+00 0.  1.
          4    1    1    2  501    0 -0.10293817811E+02 -0.60083260322E+02  0.60143412042E+01  0.61274265856E+02  0.15500000000E+01 0. -1.
         -4    1    1    2    0  501  0.10293817811E+02  0.60083260322E+02  0.34108834736E+02  0.69869707049E+02  0.15500000000E+01 0. -1.
<mgrwt>
<rscale>  2 0.12485541E+03</rscale>
<asrwt>0</asrwt>
<pdfrwt beam="1">  1       21 0.13174396E-01 0.12485541E+03</pdfrwt>
<pdfrwt beam="2">  1       21 0.70015997E-02 0.12485541E+03</pdfrwt>
<totfact> 0.73481980E+06</totfact>
</mgrwt>
</event>
<event>
 5    0  0.1572539E+000  0.1249955E+03  0.7546771E-02  0.1235076E+00
         21   -1    0    0  503  502  0.00000000000E+00  0.00000000000E+00  0.28079654105E+02  0.28079654105E+02  0.00000000000E+00 0.  1.
         21   -1    0    0  502  503 -0.00000000000E+00 -0.00000000000E+00 -0.13910325667E+03  0.13910325667E+03  0.00000000000E+00 0.  1.
         25    2    1    2    0    0  0.00000000000E+00  0.00000000000E+00 -0.11102360256E+03  0.16718291077E+03  0.12499554123E+03 0.  0.
          4    1    3    3  501    0 -0.26903183487E+02  0.55879349925E+02 -0.45388530345E+02  0.76868746683E+02  0.15500000000E+01 0.  1.
         -4    1    3    3    0  501  0.26903183487E+02 -0.55879349925E+02 -0.65635072216E+02  0.90314164087E+02  0.15500000000E+01 0.  1.
<mgrwt>
<rscale>  2 0.12499554E+03</rscale>
<asrwt>0</asrwt>
<pdfrwt beam="1">  1       21 0.43199468E-02 0.12499554E+03</pdfrwt>
<pdfrwt beam="2">  1       21 0.21400501E-01 0.12499554E+03</pdfrwt>
<totfact> 0.68660077E+06</totfact>
</mgrwt>
</event>
<event>
 5    0  0.1524965E+000  0.1249828E+03  0.7546771E-02  0.1235096E+00
         21   -1    0    0  503  502  0.00000000000E+00  0.00000000000E+00  0.41240360407E+02  0.41240360407E+02  0.00000000000E+00 0. -1.
         21   -1    0    0  502  503 -0.00000000000E+00 -0.00000000000E+00 -0.94693011156E+02  0.94693011156E+02  0.00000000000E+00 0. -1.
         25    2    1    2    0    0  0.00000000000E+00  0.00000000000E+00 -0.53452650749E+02  0.13593337156E+03  0.12498278134E+03 0.  0.
          4    1    3    3  501    0  0.26158568556E+02  0.10522982216E+02  0.33905433533E+02  0.44124650556E+02  0.15500000000E+01 0.  1.
         -4    1    3    3    0  501 -0.26158568556E+02 -0.10522982216E+02 -0.87358084282E+02  0.91808721008E+02  0.15500000000E+01 0.  1.
<mgrwt>
<rscale>  2 0.12498278E+03</rscale>
<asrwt>0</asrwt>
<pdfrwt beam="1">  1       21 0.63446710E-02 0.12498278E+03</pdfrwt>
<pdfrwt beam="2">  1       21 0.14568155E-01 0.12498278E+03</pdfrwt>
<totfact> 0.72605001E+06</totfact>
</mgrwt>
</event>
<event>
 5    0  0.1497372E+000  0.1249851E+03  0.7546771E-02  0.1235092E+00
         21   -1    0    0  503  502  0.00000000000E+00  0.00000000000E+00  0.22805046487E+02  0.22805046487E+02  0.00000000000E+00 0. -1.
         21   -1    0    0  502  503 -0.00000000000E+00 -0.00000000000E+00 -0.17124813558E+03  0.17124813558E+03  0.00000000000E+00 0. -1.
         25    2    1    2    0    0  0.00000000000E+00  0.00000000000E+00 -0.14844308909E+03  0.19405318207E+03  0.12498514620E+03 0.  0.
          4    1    3    3  501    0  0.47152426279E+02  0.94606246573E+01 -0.13613281738E+03  0.14438629156E+03  0.15500000000E+01 0.  1.
         -4    1    3    3    0  501 -0.47152426279E+02 -0.94606246573E+01 -0.12310271712E+02  0.49666890506E+02  0.15500000000E+01 0.  1.
<mgrwt>
<rscale>  2 0.12498515E+03</rscale>
<asrwt>0</asrwt>
<pdfrwt beam="1">  1       21 0.35084685E-02 0.12498515E+03</pdfrwt>
<pdfrwt beam="2">  1       21 0.26345868E-01 0.12498515E+03</pdfrwt>
<totfact> 0.65599477E+06</totfact>
</mgrwt>
</event>
<event>
 5    0  0.1484382E+000  0.1250025E+03  0.7546771E-02  0.1235065E+00
         21   -1    0    0  503  502  0.00000000000E+00  0.00000000000E+00  0.81924460417E+02  0.81924460417E+02  0.00000000000E+00 0.  1.
         21   -1    0    0  502  503 -0.00000000000E+00 -0.00000000000E+00 -0.47682999767E+02  0.47682999767E+02  0.00000000000E+00 0.  1.
         25    2    1    2    0    0  0.00000000000E+00  0.00000000000E+00  0.34241460650E+02  0.12960746018E+03  0.12500246441E+03 0.  0.
          4    1    3    3  501    0  0.15248874770E+02  0.29365443201E+02 -0.37833158797E+02  0.50285264648E+02  0.15500000000E+01 0. -1.
         -4    1    3    3    0  501 -0.15248874770E+02 -0.29365443201E+02  0.72074619447E+02  0.79322195536E+02  0.15500000000E+01 0. -1.
<mgrwt>
<rscale>  2 0.12500246E+03</rscale>
<asrwt>0</asrwt>
<pdfrwt beam="1">  1       21 0.12603763E-01 0.12500246E+03</pdfrwt>
<pdfrwt beam="2">  1       21 0.73358461E-02 0.12500246E+03</pdfrwt>
<totfact> 0.73412806E+06</totfact>
</mgrwt>
</event>
<event>
 5    0  0.1330060E+000  0.1249887E+03  0.7546771E-02  0.1235087E+00
         21   -1    0    0  503  502  0.00000000000E+00  0.00000000000E+00  0.93628995384E+01  0.93628995384E+01  0.00000000000E+00 0.  1.
         21   -1    0    0  502  503 -0.00000000000E+00 -0.00000000000E+00 -0.41712973949E+03  0.41712973949E+03  0.00000000000E+00 0.  1.
         25    2    1    2    0    0  0.00000000000E+00  0.00000000000E+00 -0.40776683995E+03  0.42649263903E+03  0.12498870101E+03 0.  0.
          4    1    3    3  501    0  0.33326541899E+02  0.39588019929E+02 -0.84441445477E+02  0.99048624075E+02  0.15500000000E+01 0.  1.
         -4    1    3    3    0  501 -0.33326541899E+02 -0.39588019929E+02 -0.32332539448E+03  0.32744401495E+03  0.15500000000E+01 0.  1.
<mgrwt>
<rscale>  2 0.12498870E+03</rscale>
<asrwt>0</asrwt>
<pdfrwt beam="1">  1       21 0.14404460E-02 0.12498870E+03</pdfrwt>
<pdfrwt beam="2">  1       21 0.64173808E-01 0.12498870E+03</pdfrwt>
<totfact> 0.46345444E+06</totfact>
</mgrwt>
</event>
<event>
 5    0  0.1593088E+000  0.1249971E+03  0.7546771E-02  0.1235074E+00
         21   -1    0    0  503  502  0.00000000000E+00  0.00000000000E+00  0.24329837413E+02  0.24329837413E+02  0.00000000000E+00 0.  1.
         21   -1    0    0  502  503 -0.00000000000E+00 -0.00000000000E+00 -0.16054644258E+03  0.16054644258E+03  0.00000000000E+00 0.  1.
         25    2    1    2    0    0  0.00000000000E+00  0.00000000000E+00 -0.13621660517E+03  0.18487628000E+03  0.12499710149E+03 0.  0.
          4    1    3    3  501    0  0.13934834254E+02 -0.60905450316E+02 -0.67940566873E+02  0.92314552542E+02  0.15500000000E+01 0.  1.
         -4    1    3    3    0  501 -0.13934834254E+02  0.60905450316E+02 -0.68276038296E+02  0.92561727454E+02  0.15500000000E+01 0.  1.
<mgrwt>
<rscale>  2 0.12499710E+03</rscale>
<asrwt>0</asrwt>
<pdfrwt beam="1">  1       21 0.37430521E-02 0.12499710E+03</pdfrwt>
<pdfrwt beam="2">  1       21 0.24699451E-01 0.12499710E+03</pdfrwt>
<totfact> 0.66601395E+06</totfact>
</mgrwt>
</event>
<event>
 5    0  0.1560041E+000  0.1249939E+03  0.7546771E-02  0.1235079E+00
         21   -1    0    0  503  502  0.00000000000E+00  0.00000000000E+00  0.68045361398E+02  0.68045361398E+02  0.00000000000E+00 0. -1.
         21   -1    0    0  502  503 -0.00000000000E+00 -0.00000000000E+00 -0.57400951982E+02  0.57400951982E+02  0.00000000000E+00 0. -1.
         25    2    1    2    0    0  0.00000000000E+00  0.00000000000E+00  0.10644409416E+02  0.12544631338E+03  0.12499389621E+03 0.  0.
          4    1    3    3  501    0 -0.44130066395E+02 -0.26128629456E+02  0.41134662127E+02  0.65761926413E+02  0.15500000000E+01 0.  1.
         -4    1    3    3    0  501  0.44130066395E+02  0.26128629456E+02 -0.30490252711E+02  0.59684386967E+02  0.15500000000E+01 0.  1.
<mgrwt>
<rscale>  2 0.12499390E+03</rscale>
<asrwt>0</asrwt>
<pdfrwt beam="1">  1       21 0.10468517E-01 0.12499390E+03</pdfrwt>
<pdfrwt beam="2">  1       21 0.88309157E-02 0.12499390E+03</pdfrwt>
<totfact> 0.73994423E+06</totfact>
</mgrwt>
</event>
<event>
 5    0  0.1562164E+000  0.1250007E+03  0.7546771E-02  0.1235068E+00
         21   -1    0    0  503  502  0.00000000000E+00  0.00000000000E+00  0.44443737993E+02  0.44443737993E+02  0.00000000000E+00 0. -1.
         21   -1    0    0  502  503 -0.00000000000E+00 -0.00000000000E+00 -0.87893011474E+02  0.87893011474E+02  0.00000000000E+00 0. -1.
         25    2    1    2    0    0  0.00000000000E+00  0.00000000000E+00 -0.43449273480E+02  0.13233674947E+03  0.12500070357E+03 0.  0.
          4    1    3    3  501    0  0.18748246341E+02  0.59597583869E+02 -0.22490068591E+02  0.66419684048E+02  0.15500000000E+01 0. -1.
         -4    1    3    3    0  501 -0.18748246341E+02 -0.59597583869E+02 -0.20959204889E+02  0.65917065419E+02  0.15500000000E+01 0. -1.
<mgrwt>
<rscale>  2 0.12500070E+03</rscale>
<asrwt>0</asrwt>
<pdfrwt beam="1">  1       21 0.68374982E-02 0.12500070E+03</pdfrwt>
<pdfrwt beam="2">  1       21 0.13522002E-01 0.12500070E+03</pdfrwt>
<totfact> 0.73049783E+06</totfact>
</mgrwt>
</event>
<event>
 5    0  0.1491782E+000  0.1249986E+03  0.7546771E-02  0.1235071E+00
         21   -1    0    0  503  502  0.00000000000E+00  0.00000000000E+00  0.26218911421E+03  0.26218911421E+03  0.00000000000E+00 0. -1.
         21   -1    0    0  502  503 -0.00000000000E+00 -0.00000000000E+00 -0.14898259873E+02  0.14898259873E+02  0.00000000000E+00 0. -1.
         25    2    1    2    0    0  0.00000000000E+00  0.00000000000E+00  0.24729085434E+03  0.27708737408E+03  0.12499858494E+03 0.  0.
          4    1    3    3  501    0 -0.56037746421E+02  0.15148987518E+02  0.17487229554E+03  0.18426188725E+03  0.15500000000E+01 0. -1.
         -4    1    3    3    0  501  0.56037746421E+02 -0.15148987518E+02  0.72418558801E+02  0.92825486832E+02  0.15500000000E+01 0. -1.
<mgrwt>
<rscale>  2 0.12499858E+03</rscale>
<asrwt>0</asrwt>
<pdfrwt beam="1">  1       21 0.40336783E-01 0.12499858E+03</pdfrwt>
<pdfrwt beam="2">  1       21 0.22920402E-02 0.12499858E+03</pdfrwt>
<totfact> 0.57417772E+06</totfact>
</mgrwt>
</event>
<event>
 5    0  0.1355780E+000  0.1250016E+03  0.7546771E-02  0.1235067E+00
         21   -1    0    0  503  502  0.00000000000E+00  0.00000000000E+00  0.84309538097E+01  0.84309538097E+01  0.00000000000E+00 0. -1.
         21   -1    0    0  502  503 -0.00000000000E+00 -0.00000000000E+00 -0.46333415317E+03  0.46333415317E+03  0.00000000000E+00 0. -1.
         25    2    1    2    0    0  0.00000000000E+00  0.00000000000E+00 -0.45490319936E+03  0.47176510698E+03  0.12500158149E+03 0.  0.
          4    1    3    3  501    0 -0.51286659348E+02 -0.35407167166E+02 -0.21059140377E+03  0.21962497753E+03  0.15500000000E+01 0. -1.
         -4    1    3    3    0  501  0.51286659348E+02  0.35407167166E+02 -0.24431179559E+03  0.25214012945E+03  0.15500000000E+01 0. -1.
<mgrwt>
<rscale>  2 0.12500158E+03</rscale>
<asrwt>0</asrwt>
<pdfrwt beam="1">  1       21 0.12970696E-02 0.12500158E+03</pdfrwt>
<pdfrwt beam="2">  1       21 0.71282190E-01 0.12500158E+03</pdfrwt>
<totfact> 0.43616178E+06</totfact>
</mgrwt>
</event>
<event>
 5    0  0.1589866E+000  0.1250062E+03  0.7546771E-02  0.1235060E+00
         21   -1    0    0  503  502  0.00000000000E+00  0.00000000000E+00  0.13286237201E+03  0.13286237201E+03  0.00000000000E+00 0. -1.
         21   -1    0    0  502  503 -0.00000000000E+00 -0.00000000000E+00 -0.29403633021E+02  0.29403633021E+02  0.00000000000E+00 0. -1.
         25    2    1    2    0    0  0.00000000000E+00  0.00000000000E+00  0.10345873899E+03  0.16226600503E+03  0.12500618271E+03 0.  0.
          4    1    3    3  501    0 -0.15797332296E+02 -0.59945321685E+02  0.61887217021E+02  0.87609516779E+02  0.15500000000E+01 0.  1.
         -4    1    3    3    0  501  0.15797332296E+02  0.59945321685E+02  0.41571521970E+02  0.74656488254E+02  0.15500000000E+01 0.  1.
<mgrwt>
<rscale>  2 0.12500618E+03</rscale>
<asrwt>0</asrwt>
<pdfrwt beam="1">  1       21 0.20440365E-01 0.12500618E+03</pdfrwt>
<pdfrwt beam="2">  1       21 0.45236359E-02 0.12500618E+03</pdfrwt>
<totfact> 0.69232788E+06</totfact>
</mgrwt>
</event>
<event>
 5    0  0.1483878E+000  0.1249512E+03  0.7546771E-02  0.1235146E+00
         21   -1    0    0  503  502  0.00000000000E+00  0.00000000000E+00  0.14766184542E+03  0.14766184542E+03  0.00000000000E+00 0.  1.
         21   -1    0    0  502  503 -0.00000000000E+00 -0.00000000000E+00 -0.26433357732E+02  0.26433357732E+02  0.00000000000E+00 0.  1.
         25    2    1    2    0    0  0.00000000000E+00  0.00000000000E+00  0.12122848768E+03  0.17409520315E+03  0.12495116459E+03 0.  0.
          4    1    3    3  501    0  0.36961703800E+02  0.10884200359E+02 -0.78729809497E+01  0.39357587506E+02  0.15500000000E+01 0. -1.
         -4    1    3    3    0  501 -0.36961703800E+02 -0.10884200359E+02  0.12910146863E+03  0.13473761564E+03  0.15500000000E+01 0. -1.
<mgrwt>
<rscale>  2 0.12495116E+03</rscale>
<asrwt>0</asrwt>
<pdfrwt beam="1">  1       21 0.22717206E-01 0.12495116E+03</pdfrwt>
<pdfrwt beam="2">  1       21 0.40666705E-02 0.12495116E+03</pdfrwt>
<totfact> 0.67919594E+06</totfact>
</mgrwt>
</event>
<event>
 5    0  0.1506374E+000  0.1249899E+03  0.7546771E-02  0.1235085E+00
         21   -1    0    0  503  502  0.00000000000E+00  0.00000000000E+00  0.23306356855E+03  0.23306356855E+03  0.00000000000E+00 0. -1.
         21   -1    0    0  502  503 -0.00000000000E+00 -0.00000000000E+00 -0.16757741981E+02  0.16757741981E+02  0.00000000000E+00 0. -1.
         25    2    1    2    0    0  0.00000000000E+00  0.00000000000E+00  0.21630582657E+03  0.24982131054E+03  0.12498990594E+03 0.  0.
          4    1    3    3  501    0  0.55856538360E+02  0.15642050769E+02  0.15453856799E+03  0.16507331137E+03  0.15500000000E+01 0.  1.
         -4    1    3    3    0  501 -0.55856538360E+02 -0.15642050769E+02  0.61767258584E+02  0.84747999167E+02  0.15500000000E+01 0.  1.
<mgrwt>
<rscale>  2 0.12498991E+03</rscale>
<asrwt>0</asrwt>
<pdfrwt beam="1">  1       21 0.35855931E-01 0.12498991E+03</pdfrwt>
<pdfrwt beam="2">  1       21 0.25781143E-02 0.12498991E+03</pdfrwt>
<totfact> 0.59910260E+06</totfact>
</mgrwt>
</event>
<event>
 5    0  0.1352791E+000  0.1250074E+03  0.7546771E-02  0.1235058E+00
         21   -1    0    0  503  502  0.00000000000E+00  0.00000000000E+00  0.56987909640E+03  0.56987909640E+03  0.00000000000E+00 0.  1.
         21   -1    0    0  502  503 -0.00000000000E+00 -0.00000000000E+00 -0.68553364545E+01  0.68553364545E+01  0.00000000000E+00 0.  1.
         25    2    1    2    0    0  0.00000000000E+00  0.00000000000E+00  0.56302375994E+03  0.57673443285E+03  0.12500740689E+03 0.  0.
          4    1    3    3  501    0  0.55063859904E+02  0.28492629883E+02  0.31738299041E+03  0.32338556512E+03  0.15500000000E+01 0. -1.
         -4    1    3    3    0  501 -0.55063859904E+02 -0.28492629883E+02  0.24564076953E+03  0.25334886773E+03  0.15500000000E+01 0. -1.
<mgrwt>
<rscale>  2 0.12500741E+03</rscale>
<asrwt>0</asrwt>
<pdfrwt beam="1">  1       21 0.87673670E-01 0.12500741E+03</pdfrwt>
<pdfrwt beam="2">  1       21 0.10546676E-02 0.12500741E+03</pdfrwt>
<totfact> 0.38159363E+06</totfact>
</mgrwt>
</event>
<event>
 5    0  0.1503568E+000  0.1249979E+03  0.7546771E-02  0.1235073E+00
         21   -1    0    0  503  502  0.00000000000E+00  0.00000000000E+00  0.31034479107E+03  0.31034479107E+03  0.00000000000E+00 0. -1.
         21   -1    0    0  502  503 -0.00000000000E+00 -0.00000000000E+00 -0.12586377428E+02  0.12586377428E+02  0.00000000000E+00 0. -1.
         25    2    1    2    0    0  0.00000000000E+00  0.00000000000E+00  0.29775841365E+03  0.32293116850E+03  0.12499786675E+03 0.  0.
          4    1    3    3  501    0  0.56558242650E+02 -0.21395303248E+02  0.10826652888E+03  0.12401869855E+03  0.15500000000E+01 0.  1.
         -4    1    3    3    0  501 -0.56558242650E+02  0.21395303248E+02  0.18949188476E+03  0.19891246995E+03  0.15500000000E+01 0.  1.
<mgrwt>
<rscale>  2 0.12499787E+03</rscale>
<asrwt>0</asrwt>
<pdfrwt beam="1">  1       21 0.47745347E-01 0.12499787E+03</pdfrwt>
<pdfrwt beam="2">  1       21 0.19363660E-02 0.12499787E+03</pdfrwt>
<totfact> 0.53604748E+06</totfact>
</mgrwt>
</event>
<event>
 5    0  0.1455426E+000  0.1249988E+03  0.7546771E-02  0.1235071E+00
         21   -1    0    0  503  502  0.00000000000E+00  0.00000000000E+00  0.59191315062E+03  0.59191315062E+03  0.00000000000E+00 0.  1.
         21   -1    0    0  502  503 -0.00000000000E+00 -0.00000000000E+00 -0.65992368759E+01  0.65992368759E+01  0.00000000000E+00 0.  1.
         25    2    1    2    0    0  0.00000000000E+00  0.00000000000E+00  0.58531391374E+03  0.59851238749E+03  0.12499880145E+03 0.  0.
          4    1    3    3  501    0 -0.59521090514E+02 -0.30226289297E+01  0.38247470718E+03  0.38709327123E+03  0.15500000000E+01 0. -1.
         -4    1    3    3    0  501  0.59521090514E+02  0.30226289297E+01  0.20283920656E+03  0.21141911626E+03  0.15500000000E+01 0. -1.
<mgrwt>
<rscale>  2 0.12499880E+03</rscale>
<asrwt>0</asrwt>
<pdfrwt beam="1">  1       21 0.91063520E-01 0.12499880E+03</pdfrwt>
<pdfrwt beam="2">  1       21 0.10152677E-02 0.12499880E+03</pdfrwt>
<totfact> 0.37161111E+06</totfact>
</mgrwt>
</event>
<event>
 5    0  0.1575716E+000  0.1250013E+03  0.7546771E-02  0.1235067E+00
         21   -1    0    0  503  502  0.00000000000E+00  0.00000000000E+00  0.33017270456E+02  0.33017270456E+02  0.00000000000E+00 0.  1.
         21   -1    0    0  502  503 -0.00000000000E+00 -0.00000000000E+00 -0.11831176980E+03  0.11831176980E+03  0.00000000000E+00 0.  1.
         25    2    1    2    0    0  0.00000000000E+00  0.00000000000E+00 -0.85294499347E+02  0.15132904026E+03  0.12500130722E+03 0.  0.
          4    1    3    3  501    0  0.32295534754E+01 -0.59829474787E+02 -0.64097200451E+02  0.87754485211E+02  0.15500000000E+01 0.  1.
         -4    1    3    3    0  501 -0.32295534754E+01  0.59829474787E+02 -0.21197298896E+02  0.63574555047E+02  0.15500000000E+01 0.  1.
<mgrwt>
<rscale>  2 0.12500131E+03</rscale>
<asrwt>0</asrwt>
<pdfrwt beam="1">  1       21 0.50795800E-02 0.12500131E+03</pdfrwt>
<pdfrwt beam="2">  1       21 0.18201811E-01 0.12500131E+03</pdfrwt>
<totfact> 0.70590298E+06</totfact>
</mgrwt>
</event>
<event>
 5    0  0.1222151E+000  0.1250511E+03  0.7546771E-02  0.1234989E+00
         21   -1    0    0  503  502  0.00000000000E+00  0.00000000000E+00  0.12390462872E+04  0.12390462872E+04  0.00000000000E+00 0. -1.
         21   -1    0    0  502  503 -0.00000000000E+00 -0.00000000000E+00 -0.31552051725E+01  0.31552051725E+01  0.00000000000E+00 0. -1.
         25    2    1    2    0    0  0.00000000000E+00  0.00000000000E+00  0.12358910820E+04  0.12422014924E+04  0.12505111362E+03 0.  0.
          4    1    3    3  501    0 -0.50689744014E+02 -0.13654506551E+02  0.28091451164E+03  0.28578184170E+03  0.15500000000E+01 0.  1.
         -4    1    3    3    0  501  0.50689744014E+02  0.13654506551E+02  0.95497657037E+03  0.95641965065E+03  0.15500000000E+01 0.  1.
<mgrwt>
<rscale>  2 0.12505111E+03</rscale>
<asrwt>0</asrwt>
<pdfrwt beam="1">  1       21 0.19062212E+00 0.12505111E+03</pdfrwt>
<pdfrwt beam="2">  1       21 0.48541717E-03 0.12505111E+03</pdfrwt>
<totfact> 0.18299016E+06</totfact>
</mgrwt>
</event>
<event>
 5    0  0.1398013E+000  0.1249943E+03  0.7546771E-02  0.1235078E+00
         21   -1    0    0  503  502  0.00000000000E+00  0.00000000000E+00  0.20764451093E+02  0.20764451093E+02  0.00000000000E+00 0.  1.
         21   -1    0    0  502  503 -0.00000000000E+00 -0.00000000000E+00 -0.18810489361E+03  0.18810489361E+03  0.00000000000E+00 0.  1.
         25    2    1    2    0    0  0.00000000000E+00  0.00000000000E+00 -0.16734044252E+03  0.20886934471E+03  0.12499431769E+03 0.  0.
          4    1    3    3  501    0  0.23525617803E+02 -0.35801178422E+02 -0.15966654703E+03  0.16532086320E+03  0.15500000000E+01 0. -1.
         -4    1    3    3    0  501 -0.23525617803E+02  0.35801178422E+02 -0.76738954918E+01  0.43548481505E+02  0.15500000000E+01 0. -1.
<mgrwt>
<rscale>  2 0.12499432E+03</rscale>
<asrwt>0</asrwt>
<pdfrwt beam="1">  1       21 0.31945311E-02 0.12499432E+03</pdfrwt>
<pdfrwt beam="2">  1       21 0.28939213E-01 0.12499432E+03</pdfrwt>
<totfact> 0.63987888E+06</totfact>
</mgrwt>
</event>
<event>
 5    0  0.1436698E+000  0.1249984E+03  0.7546771E-02  0.1235072E+00
         21   -1    0    0  503  502  0.00000000000E+00  0.00000000000E+00  0.35484195229E+03  0.35484195229E+03  0.00000000000E+00 0. -1.
         21   -1    0    0  502  503 -0.00000000000E+00 -0.00000000000E+00 -0.11008145753E+02  0.11008145753E+02  0.00000000000E+00 0. -1.
         25    2    1    2    0    0  0.00000000000E+00  0.00000000000E+00  0.34383380654E+03  0.36585009805E+03  0.12499843087E+03 0.  0.
          4    1    3    3  501    0  0.43169657617E+02  0.17220868289E+02  0.49703586411E+02  0.68066340033E+02  0.15500000000E+01 0. -1.
         -4    1    3    3    0  501 -0.43169657617E+02 -0.17220868289E+02  0.29413022013E+03  0.29778375801E+03  0.15500000000E+01 0. -1.
<mgrwt>
<rscale>  2 0.12499843E+03</rscale>
<asrwt>0</asrwt>
<pdfrwt beam="1">  1       21 0.54591061E-01 0.12499843E+03</pdfrwt>
<pdfrwt beam="2">  1       21 0.16935612E-02 0.12499843E+03</pdfrwt>
<totfact> 0.50390722E+06</totfact>
</mgrwt>
</event>
<event>
 5    0  0.1253096E+000  0.1250025E+03  0.7546771E-02  0.1235065E+00
         21   -1    0    0  503  502  0.00000000000E+00  0.00000000000E+00  0.10942013325E+02  0.10942013325E+02  0.00000000000E+00 0. -1.
         21   -1    0    0  502  503 -0.00000000000E+00 -0.00000000000E+00 -0.35700994278E+03  0.35700994278E+03  0.00000000000E+00 0. -1.
         25    2    1    2    0    0  0.00000000000E+00  0.00000000000E+00 -0.34606792946E+03  0.36795195611E+03  0.12500252079E+03 0.  0.
          4    1    3    3  501    0 -0.17296335090E+02 -0.17162889471E+02 -0.34239149734E+03  0.34326093272E+03  0.15500000000E+01 0.  1.
         -4    1    3    3    0  501  0.17296335090E+02  0.17162889471E+02 -0.36764321139E+01  0.24691023382E+02  0.15500000000E+01 0.  1.
<mgrwt>
<rscale>  2 0.12500252E+03</rscale>
<asrwt>0</asrwt>
<pdfrwt beam="1">  1       21 0.16833867E-02 0.12500252E+03</pdfrwt>
<pdfrwt beam="2">  1       21 0.54924604E-01 0.12500252E+03</pdfrwt>
<totfact> 0.50236177E+06</totfact>
</mgrwt>
</event>
<event>
 5    0  0.1586658E+000  0.1250003E+03  0.7546771E-02  0.1235069E+00
         21   -1    0    0  503  502  0.00000000000E+00  0.00000000000E+00  0.41666749043E+02  0.41666749043E+02  0.00000000000E+00 0.  1.
         21   -1    0    0  502  503 -0.00000000000E+00 -0.00000000000E+00 -0.93750309590E+02  0.93750309590E+02  0.00000000000E+00 0.  1.
         25    2    1    2    0    0  0.00000000000E+00  0.00000000000E+00 -0.52083560547E+02  0.13541705863E+03  0.12500032996E+03 0.  0.
          4    1    3    3  501    0  0.39055784782E+02  0.46908012398E+02 -0.11582130445E+02  0.62147117372E+02  0.15500000000E+01 0.  1.
         -4    1    3    3    0  501 -0.39055784782E+02 -0.46908012398E+02 -0.40501430102E+02  0.73269941260E+02  0.15500000000E+01 0.  1.
<mgrwt>
<rscale>  2 0.12500033E+03</rscale>
<asrwt>0</asrwt>
<pdfrwt beam="1">  1       21 0.64102691E-02 0.12500033E+03</pdfrwt>
<pdfrwt beam="2">  1       21 0.14423125E-01 0.12500033E+03</pdfrwt>
<totfact> 0.72640686E+06</totfact>
</mgrwt>
</event>
<event>
 5    0  0.1572891E+000  0.1250130E+03  0.7546771E-02  0.1235049E+00
         21   -1    0    0  503  502  0.00000000000E+00  0.00000000000E+00  0.13080858665E+03  0.13080858665E+03  0.00000000000E+00 0.  1.
         21   -1    0    0  502  503 -0.00000000000E+00 -0.00000000000E+00 -0.29868540022E+02  0.29868540022E+02  0.00000000000E+00 0.  1.
         25    2    1    2    0    0  0.00000000000E+00  0.00000000000E+00  0.10094004663E+03  0.16067712667E+03  0.12501298341E+03 0.  0.
          4    1    3    3  501    0 -0.59831691791E+02  0.17996937150E+02  0.49225276727E+02  0.79556592802E+02  0.15500000000E+01 0.  1.
         -4    1    3    3    0  501  0.59831691791E+02 -0.17996937150E+02  0.51714769899E+02  0.81120533868E+02  0.15500000000E+01 0.  1.
<mgrwt>
<rscale>  2 0.12501298E+03</rscale>
<asrwt>0</asrwt>
<pdfrwt beam="1">  1       21 0.20124398E-01 0.12501298E+03</pdfrwt>
<pdfrwt beam="2">  1       21 0.45951601E-02 0.12501298E+03</pdfrwt>
<totfact> 0.69413939E+06</totfact>
</mgrwt>
</event>
<event>
 5    0  0.1591605E+000  0.1249991E+03  0.7546771E-02  0.1235071E+00
         21   -1    0    0  503  502  0.00000000000E+00  0.00000000000E+00  0.16246354896E+03  0.16246354896E+03  0.00000000000E+00 0. -1.
         21   -1    0    0  502  503 -0.00000000000E+00 -0.00000000000E+00 -0.24043491579E+02  0.24043491579E+02  0.00000000000E+00 0. -1.
         25    2    1    2    0    0  0.00000000000E+00  0.00000000000E+00  0.13842005738E+03  0.18650704054E+03  0.12499905554E+03 0.  0.
          4    1    3    3  501    0  0.31772272479E+02  0.52203650144E+02  0.88612076474E+02  0.10765315130E+03  0.15500000000E+01 0.  1.
         -4    1    3    3    0  501 -0.31772272479E+02 -0.52203650144E+02  0.49807980905E+02  0.78853889242E+02  0.15500000000E+01 0.  1.
<mgrwt>
<rscale>  2 0.12499906E+03</rscale>
<asrwt>0</asrwt>
<pdfrwt beam="1">  1       21 0.24994391E-01 0.12499906E+03</pdfrwt>
<pdfrwt beam="2">  1       21 0.36989988E-02 0.12499906E+03</pdfrwt>
<totfact> 0.66414385E+06</totfact>
</mgrwt>
</event>
<event>
 5    0  0.1539440E+000  0.1249924E+03  0.7546771E-02  0.1235081E+00
         21   -1    0    0  503  502  0.00000000000E+00  0.00000000000E+00  0.12247452570E+03  0.12247452570E+03  0.00000000000E+00 0.  1.
         21   -1    0    0  502  503 -0.00000000000E+00 -0.00000000000E+00 -0.31890511906E+02  0.31890511906E+02  0.00000000000E+00 0.  1.
         25    2    1    2    0    0  0.00000000000E+00  0.00000000000E+00  0.90584013793E+02  0.15436503761E+03  0.12499240489E+03 0.  0.
          4    1    3    3  501    0 -0.53480673875E+02  0.27472648545E+02  0.66266719380E+02  0.89490834691E+02  0.15500000000E+01 0. -1.
         -4    1    3    3    0  501  0.53480673875E+02 -0.27472648545E+02  0.24317294413E+02  0.64874202915E+02  0.15500000000E+01 0. -1.
<mgrwt>
<rscale>  2 0.12499240E+03</rscale>
<asrwt>0</asrwt>
<pdfrwt beam="1">  1       21 0.18842235E-01 0.12499240E+03</pdfrwt>
<pdfrwt beam="2">  1       21 0.49062327E-02 0.12499240E+03</pdfrwt>
<totfact> 0.70228230E+06</totfact>
</mgrwt>
</event>
<event>
 5    0  0.1489049E+000  0.1249958E+03  0.7546771E-02  0.1235076E+00
         21   -1    0    0  503  502  0.00000000000E+00  0.00000000000E+00  0.20809465192E+03  0.20809465192E+03  0.00000000000E+00 0.  1.
         21   -1    0    0  502  503 -0.00000000000E+00 -0.00000000000E+00 -0.18770239126E+02  0.18770239126E+02  0.00000000000E+00 0.  1.
         25    2    1    2    0    0  0.00000000000E+00  0.00000000000E+00  0.18932441280E+03  0.22686489105E+03  0.12499578197E+03 0.  0.
          4    1    3    3  501    0  0.25762472397E+02 -0.56300560308E+02  0.79463351975E+02  0.10074862223E+03  0.15500000000E+01 0. -1.
         -4    1    3    3    0  501 -0.25762472397E+02  0.56300560308E+02  0.10986106082E+03  0.12611626882E+03  0.15500000000E+01 0. -1.
<mgrwt>
<rscale>  2 0.12499578E+03</rscale>
<asrwt>0</asrwt>
<pdfrwt beam="1">  1       21 0.32014560E-01 0.12499578E+03</pdfrwt>
<pdfrwt beam="2">  1       21 0.28877292E-02 0.12499578E+03</pdfrwt>
<totfact> 0.62133986E+06</totfact>
</mgrwt>
</event>
<event>
 5    0  0.1390157E+000  0.1249830E+03  0.7546771E-02  0.1235096E+00
         21   -1    0    0  503  502  0.00000000000E+00  0.00000000000E+00  0.36600399465E+03  0.36600399465E+03  0.00000000000E+00 0. -1.
         21   -1    0    0  502  503 -0.00000000000E+00 -0.00000000000E+00 -0.10669787700E+02  0.10669787700E+02  0.00000000000E+00 0. -1.
         25    2    1    2    0    0  0.00000000000E+00  0.00000000000E+00  0.35533420696E+03  0.37667378235E+03  0.12498295756E+03 0.  0.
          4    1    3    3  501    0  0.57780984156E+02  0.12435495503E+02  0.23865461053E+03  0.24586929314E+03  0.15500000000E+01 0. -1.
         -4    1    3    3    0  501 -0.57780984156E+02 -0.12435495503E+02  0.11667959642E+03  0.13080448922E+03  0.15500000000E+01 0. -1.
<mgrwt>
<rscale>  2 0.12498296E+03</rscale>
<asrwt>0</asrwt>
<pdfrwt beam="1">  1       21 0.56308297E-01 0.12498296E+03</pdfrwt>
<pdfrwt beam="2">  1       21 0.16415061E-02 0.12498296E+03</pdfrwt>
<totfact> 0.49648007E+06</totfact>
</mgrwt>
</event>
<event>
 5    0  0.1493505E+000  0.1249972E+03  0.7546771E-02  0.1235074E+00
         21   -1    0    0  503  502  0.00000000000E+00  0.00000000000E+00  0.37592092119E+03  0.37592092119E+03  0.00000000000E+00 0. -1.
         21   -1    0    0  502  503 -0.00000000000E+00 -0.00000000000E+00 -0.10390677827E+02  0.10390677827E+02  0.00000000000E+00 0. -1.
         25    2    1    2    0    0  0.00000000000E+00  0.00000000000E+00  0.36553024336E+03  0.38631159902E+03  0.12499717086E+03 0.  0.
          4    1    3    3  501    0  0.55007017453E+02 -0.24955694746E+02  0.13340195435E+03  0.14644808839E+03  0.15500000000E+01 0.  1.
         -4    1    3    3    0  501 -0.55007017453E+02  0.24955694746E+02  0.23212828902E+03  0.23986351063E+03  0.15500000000E+01 0.  1.
<mgrwt>
<rscale>  2 0.12499717E+03</rscale>
<asrwt>0</asrwt>
<pdfrwt beam="1">  1       21 0.57833977E-01 0.12499717E+03</pdfrwt>
<pdfrwt beam="2">  1       21 0.15985661E-02 0.12499717E+03</pdfrwt>
<totfact> 0.48966208E+06</totfact>
</mgrwt>
</event>
<event>
 5    0  0.1496751E+000  0.1249999E+03  0.7546771E-02  0.1235069E+00
         21   -1    0    0  503  502  0.00000000000E+00  0.00000000000E+00  0.60011807358E+02  0.60011807358E+02  0.00000000000E+00 0. -1.
         21   -1    0    0  502  503 -0.00000000000E+00 -0.00000000000E+00 -0.65091280872E+02  0.65091280872E+02  0.00000000000E+00 0. -1.
         25    2    1    2    0    0  0.00000000000E+00  0.00000000000E+00 -0.50794735146E+01  0.12510308823E+03  0.12499992653E+03 0.  0.
          4    1    3    3  501    0  0.48803478696E+02 -0.67440150114E+01  0.35918290635E+02  0.60990059628E+02  0.15500000000E+01 0. -1.
         -4    1    3    3    0  501 -0.48803478696E+02  0.67440150114E+01 -0.40997764149E+02  0.64113028602E+02  0.15500000000E+01 0. -1.
<mgrwt>
<rscale>  2 0.12499993E+03</rscale>
<asrwt>0</asrwt>
<pdfrwt beam="1">  1       21 0.92325857E-02 0.12499993E+03</pdfrwt>
<pdfrwt beam="2">  1       21 0.10014043E-01 0.12499993E+03</pdfrwt>
<totfact> 0.74029797E+06</totfact>
</mgrwt>
</event>
<event>
 5    0  0.1349847E+000  0.1250045E+03  0.7546771E-02  0.1235062E+00
         21   -1    0    0  503  502  0.00000000000E+00  0.00000000000E+00  0.83804153804E+01  0.83804153804E+01  0.00000000000E+00 0. -1.
         21   -1    0    0  502  503 -0.00000000000E+00 -0.00000000000E+00 -0.46615041702E+03  0.46615041702E+03  0.00000000000E+00 0. -1.
         25    2    1    2    0    0  0.00000000000E+00  0.00000000000E+00 -0.45777000164E+03  0.47453083240E+03  0.12500454591E+03 0.  0.
          4    1    3    3  501    0 -0.57770181540E+02  0.60579418322E+01 -0.31628120664E+03  0.32157471403E+03  0.15500000000E+01 0.  1.
         -4    1    3    3    0  501  0.57770181540E+02 -0.60579418322E+01 -0.14148879500E+03  0.15295611837E+03  0.15500000000E+01 0.  1.
<mgrwt>
<rscale>  2 0.12500455E+03</rscale>
<asrwt>0</asrwt>
<pdfrwt beam="1">  1       21 0.12892945E-02 0.12500455E+03</pdfrwt>
<pdfrwt beam="2">  1       21 0.71715460E-01 0.12500455E+03</pdfrwt>
<totfact> 0.43454950E+06</totfact>
</mgrwt>
</event>
<event>
 5    0  0.1544839E+000  0.1249975E+03  0.7546771E-02  0.1235073E+00
         21   -1    0    0  503  502  0.00000000000E+00  0.00000000000E+00  0.28508417986E+02  0.28508417986E+02  0.00000000000E+00 0. -1.
         21   -1    0    0  502  503 -0.00000000000E+00 -0.00000000000E+00 -0.13701545329E+03  0.13701545329E+03  0.00000000000E+00 0. -1.
         25    2    1    2    0    0  0.00000000000E+00  0.00000000000E+00 -0.10850703530E+03  0.16552387128E+03  0.12499750098E+03 0.  0.
          4    1    3    3  501    0 -0.36251924376E+02 -0.50886896341E+02 -0.54102111521E+02  0.82662683305E+02  0.15500000000E+01 0. -1.
         -4    1    3    3    0  501  0.36251924376E+02  0.50886896341E+02 -0.54404923783E+02  0.82861187971E+02  0.15500000000E+01 0. -1.
<mgrwt>
<rscale>  2 0.12499750E+03</rscale>
<asrwt>0</asrwt>
<pdfrwt beam="1">  1       21 0.43859104E-02 0.12499750E+03</pdfrwt>
<pdfrwt beam="2">  1       21 0.21079301E-01 0.12499750E+03</pdfrwt>
<totfact> 0.68855131E+06</totfact>
</mgrwt>
</event>
<event>
 5    0  0.1497594E+000  0.1250004E+03  0.7546771E-02  0.1235069E+00
         21   -1    0    0  503  502  0.00000000000E+00  0.00000000000E+00  0.22824715212E+03  0.22824715212E+03  0.00000000000E+00 0. -1.
         21   -1    0    0  502  503 -0.00000000000E+00 -0.00000000000E+00 -0.17114221035E+02  0.17114221035E+02  0.00000000000E+00 0. -1.
         25    2    1    2    0    0  0.00000000000E+00  0.00000000000E+00  0.21113293108E+03  0.24536137315E+03  0.12500035539E+03 0.  0.
          4    1    3    3  501    0  0.23245602861E+02  0.48231139934E+02  0.42348487212E+02  0.68281752913E+02  0.15500000000E+01 0.  1.
         -4    1    3    3    0  501 -0.23245602861E+02 -0.48231139934E+02  0.16878444387E+03  0.17707962024E+03  0.15500000000E+01 0.  1.
<mgrwt>
<rscale>  2 0.12500036E+03</rscale>
<asrwt>0</asrwt>
<pdfrwt beam="1">  1       21 0.35114944E-01 0.12500036E+03</pdfrwt>
<pdfrwt beam="2">  1       21 0.26329572E-02 0.12500036E+03</pdfrwt>
<totfact> 0.60317139E+06</totfact>
</mgrwt>
</event>
<event>
 5    0  0.1412251E+000  0.1250021E+03  0.7546771E-02  0.1235066E+00
         21   -1    0    0  503  502  0.00000000000E+00  0.00000000000E+00  0.49339092093E+03  0.49339092093E+03  0.00000000000E+00 0.  1.
         21   -1    0    0  502  503 -0.00000000000E+00 -0.00000000000E+00 -0.79174171455E+01  0.79174171455E+01  0.00000000000E+00 0.  1.
         25    2    1    2    0    0  0.00000000000E+00  0.00000000000E+00  0.48547350378E+03  0.50130833807E+03  0.12500210777E+03 0.  0.
          4    1    3    3  501    0 -0.53084025530E+02  0.31517674615E+02  0.28134955593E+03  0.28804730983E+03  0.15500000000E+01 0. -1.
         -4    1    3    3    0  501  0.53084025530E+02 -0.31517674615E+02  0.20412394785E+03  0.21326102824E+03  0.15500000000E+01 0. -1.
<mgrwt>
<rscale>  2 0.12500211E+03</rscale>
<asrwt>0</asrwt>
<pdfrwt beam="1">  1       21 0.75906271E-01 0.12500211E+03</pdfrwt>
<pdfrwt beam="2">  1       21 0.12180646E-02 0.12500211E+03</pdfrwt>
<totfact> 0.41971011E+06</totfact>
</mgrwt>
</event>
<event>
 5    0  0.1439406E+000  0.1250034E+03  0.7546771E-02  0.1235064E+00
         21   -1    0    0  503  502  0.00000000000E+00  0.00000000000E+00  0.16060153739E+03  0.16060153739E+03  0.00000000000E+00 0. -1.
         21   -1    0    0  502  503 -0.00000000000E+00 -0.00000000000E+00 -0.24323939755E+02  0.24323939755E+02  0.00000000000E+00 0. -1.
         25    2    1    2    0    0  0.00000000000E+00  0.00000000000E+00  0.13627759763E+03  0.18492547714E+03  0.12500339387E+03 0.  0.
          4    1    3    3  501    0 -0.26231286969E+02 -0.11705516829E+02 -0.13948690469E+02  0.31969798342E+02  0.15500000000E+01 0.  1.
         -4    1    3    3    0  501  0.26231286969E+02  0.11705516829E+02  0.15022628810E+03  0.15295567880E+03  0.15500000000E+01 0.  1.
<mgrwt>
<rscale>  2 0.12500339E+03</rscale>
<asrwt>0</asrwt>
<pdfrwt beam="1">  1       21 0.24707928E-01 0.12500339E+03</pdfrwt>
<pdfrwt beam="2">  1       21 0.37421447E-02 0.12500339E+03</pdfrwt>
<totfact> 0.66585215E+06</totfact>
</mgrwt>
</event>
<event>
 5    0  0.1222151E+000  0.1250077E+03  0.7546771E-02  0.1235057E+00
         21   -1    0    0  503  502  0.00000000000E+00  0.00000000000E+00  0.25471312934E+01  0.25471312934E+01  0.00000000000E+00 0.  1.
         21   -1    0    0  502  503 -0.00000000000E+00 -0.00000000000E+00 -0.15337765499E+04  0.15337765499E+04  0.00000000000E+00 0.  1.
         25    2    1    2    0    0  0.00000000000E+00  0.00000000000E+00 -0.15312294186E+04  0.15363236812E+04  0.12500768372E+03 0.  0.
          4    1    3    3  501    0 -0.73067366626E+01  0.19001672046E+02 -0.39590666757E+02  0.44545205528E+02  0.15500000000E+01 0. -1.
         -4    1    3    3    0  501  0.73067366626E+01 -0.19001672046E+02 -0.14916387519E+04  0.14917784757E+04  0.15500000000E+01 0. -1.
<mgrwt>
<rscale>  2 0.12500768E+03</rscale>
<asrwt>0</asrwt>
<pdfrwt beam="1">  1       21 0.39186627E-03 0.12500768E+03</pdfrwt>
<pdfrwt beam="2">  1       21 0.23596567E+00 0.12500768E+03</pdfrwt>
<totfact> 0.13460085E+06</totfact>
</mgrwt>
</event>
<event>
 5    0  0.1584919E+000  0.1250041E+03  0.7546771E-02  0.1235063E+00
         21   -1    0    0  503  502  0.00000000000E+00  0.00000000000E+00  0.44747439709E+02  0.44747439709E+02  0.00000000000E+00 0. -1.
         21   -1    0    0  502  503 -0.00000000000E+00 -0.00000000000E+00 -0.87301219613E+02  0.87301219613E+02  0.00000000000E+00 0. -1.
         25    2    1    2    0    0  0.00000000000E+00  0.00000000000E+00 -0.42553779904E+02  0.13204865932E+03  0.12500409691E+03 0.  0.
          4    1    3    3  501    0  0.16841063633E+02  0.56475884541E+02  0.65249839231E+00  0.58957401682E+02  0.15500000000E+01 0. -1.
         -4    1    3    3    0  501 -0.16841063633E+02 -0.56475884541E+02 -0.43206278297E+02  0.73091257639E+02  0.15500000000E+01 0. -1.
<mgrwt>
<rscale>  2 0.12500410E+03</rscale>
<asrwt>0</asrwt>
<pdfrwt beam="1">  1       21 0.68842215E-02 0.12500410E+03</pdfrwt>
<pdfrwt beam="2">  1       21 0.13430957E-01 0.12500410E+03</pdfrwt>
<totfact> 0.73082064E+06</totfact>
</mgrwt>
</event>
<event>
 5    0  0.1242368E+000  0.1249965E+03  0.7546771E-02  0.1235075E+00
         21   -1    0    0  503  502  0.00000000000E+00  0.00000000000E+00  0.82253793120E+03  0.82253793120E+03  0.00000000000E+00 0.  1.
         21   -1    0    0  502  503 -0.00000000000E+00 -0.00000000000E+00 -0.47487585412E+01  0.47487585412E+01  0.00000000000E+00 0.  1.
         25    2    1    2    0    0  0.00000000000E+00  0.00000000000E+00  0.81778917266E+03  0.82728668974E+03  0.12499654437E+03 0.  0.
          4    1    3    3  501    0 -0.59188324773E+02 -0.10849478411E+02  0.52016819441E+03  0.52363949616E+03  0.15500000000E+01 0. -1.
         -4    1    3    3    0  501  0.59188324773E+02  0.10849478411E+02  0.29762097825E+03  0.30364719358E+03  0.15500000000E+01 0. -1.
<mgrwt>
<rscale>  2 0.12499654E+03</rscale>
<asrwt>0</asrwt>
<pdfrwt beam="1">  1       21 0.12654418E+00 0.12499654E+03</pdfrwt>
<pdfrwt beam="2">  1       21 0.73057889E-03 0.12499654E+03</pdfrwt>
<totfact> 0.28480942E+06</totfact>
</mgrwt>
</event>
<event>
 4    0  0.1306950E+000  0.1252551E+03  0.7546771E-02  0.1234671E+00
         21   -1    0    0  503  502  0.00000000000E+00  0.00000000000E+00  0.90688157043E+01  0.90688157043E+01  0.00000000000E+00 0. -1.
         21   -1    0    0  502  503 -0.00000000000E+00 -0.00000000000E+00 -0.43249444215E+03  0.43249444215E+03  0.00000000000E+00 0. -1.
          4    1    1    2  501    0  0.43597829031E+02  0.10874511325E+02 -0.58016381137E+02  0.73398424187E+02  0.15500000000E+01 0.  1.
         -4    1    1    2    0  501 -0.43597829031E+02 -0.10874511325E+02 -0.36540924531E+03  0.36816483367E+03  0.15500000000E+01 0.  1.
<mgrwt>
<rscale>  2 0.12525514E+03</rscale>
<asrwt>0</asrwt>
<pdfrwt beam="1">  1       21 0.13952024E-02 0.12525514E+03</pdfrwt>
<pdfrwt beam="2">  1       21 0.66537605E-01 0.12525514E+03</pdfrwt>
<totfact> 0.45113512E+06</totfact>
</mgrwt>
</event>
<event>
 5    0  0.1539256E+000  0.1249961E+03  0.7546771E-02  0.1235075E+00
         21   -1    0    0  503  502  0.00000000000E+00  0.00000000000E+00  0.34365041438E+02  0.34365041438E+02  0.00000000000E+00 0.  1.
         21   -1    0    0  502  503 -0.00000000000E+00 -0.00000000000E+00 -0.11366227851E+03  0.11366227851E+03  0.00000000000E+00 0.  1.
         25    2    1    2    0    0  0.00000000000E+00  0.00000000000E+00 -0.79297237067E+02  0.14802731994E+03  0.12499614251E+03 0.  0.
          4    1    3    3  501    0  0.40109036747E+02  0.26491341455E+02  0.76190427020E+01  0.48692692599E+02  0.15500000000E+01 0. -1.
         -4    1    3    3    0  501 -0.40109036747E+02 -0.26491341455E+02 -0.86916279769E+02  0.99334627345E+02  0.15500000000E+01 0. -1.
<mgrwt>
<rscale>  2 0.12499614E+03</rscale>
<asrwt>0</asrwt>
<pdfrwt beam="1">  1       21 0.52869295E-02 0.12499614E+03</pdfrwt>
<pdfrwt beam="2">  1       21 0.17486504E-01 0.12499614E+03</pdfrwt>
<totfact> 0.71014868E+06</totfact>
</mgrwt>
</event>
<event>
 5    0  0.1222151E+000  0.1249899E+03  0.7546771E-02  0.1235085E+00
         21   -1    0    0  503  502  0.00000000000E+00  0.00000000000E+00  0.16455461058E+04  0.16455461058E+04  0.00000000000E+00 0.  1.
         21   -1    0    0  502  503 -0.00000000000E+00 -0.00000000000E+00 -0.23734499372E+01  0.23734499372E+01  0.00000000000E+00 0.  1.
         25    2    1    2    0    0  0.00000000000E+00  0.00000000000E+00  0.16431726559E+04  0.16479195558E+04  0.12498994042E+03 0.  0.
          4    1    3    3  501    0 -0.36240719917E+02  0.14329800203E+02  0.17777543410E+03  0.18200340772E+03  0.15500000000E+01 0. -1.
         -4    1    3    3    0  501  0.36240719917E+02 -0.14329800203E+02  0.14653972218E+04  0.14659161480E+04  0.15500000000E+01 0. -1.
<mgrwt>
<rscale>  2 0.12498994E+03</rscale>
<asrwt>0</asrwt>
<pdfrwt beam="1">  1       21 0.25316003E+00 0.12498994E+03</pdfrwt>
<pdfrwt beam="2">  1       21 0.36514746E-03 0.12498994E+03</pdfrwt>
<totfact> 0.11938108E+06</totfact>
</mgrwt>
</event>
<event>
 5    0  0.1603039E+000  0.1249961E+03  0.7546771E-02  0.1235075E+00
         21   -1    0    0  503  502  0.00000000000E+00  0.00000000000E+00  0.13000400485E+03  0.13000400485E+03  0.00000000000E+00 0. -1.
         21   -1    0    0  502  503 -0.00000000000E+00 -0.00000000000E+00 -0.30045263125E+02  0.30045263125E+02  0.00000000000E+00 0. -1.
         25    2    1    2    0    0  0.00000000000E+00  0.00000000000E+00  0.99958741730E+02  0.16004926798E+03  0.12499607247E+03 0.  0.
          4    1    3    3  501    0 -0.59391034518E+02  0.13306317868E+02  0.31905326116E+02  0.68736492570E+02  0.15500000000E+01 0.  1.
         -4    1    3    3    0  501  0.59391034518E+02 -0.13306317868E+02  0.68053415614E+02  0.91312775410E+02  0.15500000000E+01 0.  1.
<mgrwt>
<rscale>  2 0.12499607E+03</rscale>
<asrwt>0</asrwt>
<pdfrwt beam="1">  1       21 0.20000616E-01 0.12499607E+03</pdfrwt>
<pdfrwt beam="2">  1       21 0.46223482E-02 0.12499607E+03</pdfrwt>
<totfact> 0.69520418E+06</totfact>
</mgrwt>
</event>
<event>
 5    0  0.1263299E+000  0.1250040E+03  0.7546771E-02  0.1235063E+00
         21   -1    0    0  503  502  0.00000000000E+00  0.00000000000E+00  0.51348068013E+01  0.51348068013E+01  0.00000000000E+00 0. -1.
         21   -1    0    0  502  503 -0.00000000000E+00 -0.00000000000E+00 -0.76078763386E+03  0.76078763386E+03  0.00000000000E+00 0. -1.
         25    2    1    2    0    0  0.00000000000E+00  0.00000000000E+00 -0.75565282706E+03  0.76592244066E+03  0.12500396020E+03 0.  0.
          4    1    3    3  501    0  0.62971189368E+01 -0.46496743617E+02 -0.12501083290E+03  0.13353543243E+03  0.15500000000E+01 0.  1.
         -4    1    3    3    0  501 -0.62971189368E+01  0.46496743617E+02 -0.63064199416E+03  0.63238700823E+03  0.15500000000E+01 0.  1.
<mgrwt>
<rscale>  2 0.12500396E+03</rscale>
<asrwt>0</asrwt>
<pdfrwt beam="1">  1       21 0.78997032E-03 0.12500396E+03</pdfrwt>
<pdfrwt beam="2">  1       21 0.11704424E+00 0.12500396E+03</pdfrwt>
<totfact> 0.30513603E+06</totfact>
</mgrwt>
</event>
<event>
 5    0  0.1222151E+000  0.1249975E+03  0.7546771E-02  0.1235073E+00
         21   -1    0    0  503  502  0.00000000000E+00  0.00000000000E+00  0.47304822056E+01  0.47304822056E+01  0.00000000000E+00 0.  1.
         21   -1    0    0  502  503 -0.00000000000E+00 -0.00000000000E+00 -0.82572792814E+03  0.82572792814E+03  0.00000000000E+00 0.  1.
         25    2    1    2    0    0  0.00000000000E+00  0.00000000000E+00 -0.82099744593E+03  0.83045841034E+03  0.12499746031E+03 0.  0.
          4    1    3    3  501    0 -0.24542435610E+02 -0.59820903861E+00 -0.28783530281E+02  0.37862687638E+02  0.15500000000E+01 0.  1.
         -4    1    3    3    0  501  0.24542435610E+02  0.59820903861E+00 -0.79221391565E+03  0.79259572271E+03  0.15500000000E+01 0.  1.
<mgrwt>
<rscale>  2 0.12499746E+03</rscale>
<asrwt>0</asrwt>
<pdfrwt beam="1">  1       21 0.72776667E-03 0.12499746E+03</pdfrwt>
<pdfrwt beam="2">  1       21 0.12703504E+00 0.12499746E+03</pdfrwt>
<totfact> 0.28380008E+06</totfact>
</mgrwt>
</event>
<event>
 5    0  0.1484594E+000  0.1250006E+03  0.7546771E-02  0.1235068E+00
         21   -1    0    0  503  502  0.00000000000E+00  0.00000000000E+00  0.20739153689E+03  0.20739153689E+03  0.00000000000E+00 0. -1.
         21   -1    0    0  502  503 -0.00000000000E+00 -0.00000000000E+00 -0.18835329047E+02  0.18835329047E+02  0.00000000000E+00 0. -1.
         25    2    1    2    0    0  0.00000000000E+00  0.00000000000E+00  0.18855620785E+03  0.22622686594E+03  0.12500060542E+03 0.  0.
          4    1    3    3  501    0  0.31294302160E+02 -0.40270870336E+02  0.28954154102E+02  0.58667042580E+02  0.15500000000E+01 0.  1.
         -4    1    3    3    0  501 -0.31294302160E+02  0.40270870336E+02  0.15960205374E+03  0.16755982336E+03  0.15500000000E+01 0.  1.
<mgrwt>
<rscale>  2 0.12500061E+03</rscale>
<asrwt>0</asrwt>
<pdfrwt beam="1">  1       21 0.31906389E-01 0.12500061E+03</pdfrwt>
<pdfrwt beam="2">  1       21 0.28977431E-02 0.12500061E+03</pdfrwt>
<totfact> 0.62190537E+06</totfact>
</mgrwt>
</event>
<event>
 5    0  0.1445187E+000  0.1249992E+03  0.7546771E-02  0.1235070E+00
         21   -1    0    0  503  502  0.00000000000E+00  0.00000000000E+00  0.41768221796E+03  0.41768221796E+03  0.00000000000E+00 0. -1.
         21   -1    0    0  502  503 -0.00000000000E+00 -0.00000000000E+00 -0.93520907330E+01  0.93520907330E+01  0.00000000000E+00 0. -1.
         25    2    1    2    0    0  0.00000000000E+00  0.00000000000E+00  0.40833012723E+03  0.42703430870E+03  0.12499923200E+03 0.  0.
          4    1    3    3  501    0 -0.48719880032E+02  0.39115309761E+02  0.20555416426E+03  0.21484541213E+03  0.15500000000E+01 0. -1.
         -4    1    3    3    0  501  0.48719880032E+02 -0.39115309761E+02  0.20277596297E+03  0.21218889657E+03  0.15500000000E+01 0. -1.
<mgrwt>
<rscale>  2 0.12499923E+03</rscale>
<asrwt>0</asrwt>
<pdfrwt beam="1">  1       21 0.64258788E-01 0.12499923E+03</pdfrwt>
<pdfrwt beam="2">  1       21 0.14387835E-02 0.12499923E+03</pdfrwt>
<totfact> 0.46299301E+06</totfact>
</mgrwt>
</event>
<event>
 5    0  0.1311191E+000  0.1249451E+03  0.7546771E-02  0.1235155E+00
         21   -1    0    0  503  502  0.00000000000E+00  0.00000000000E+00  0.14921152131E+03  0.14921152131E+03  0.00000000000E+00 0. -1.
         21   -1    0    0  502  503 -0.00000000000E+00 -0.00000000000E+00 -0.26156270030E+02  0.26156270030E+02  0.00000000000E+00 0. -1.
         25    2    1    2    0    0  0.00000000000E+00  0.00000000000E+00  0.12305525128E+03  0.17536779134E+03  0.12494505741E+03 0.  0.
          4    1    3    3  501    0 -0.10169725218E+02 -0.51758408526E+02  0.10845896546E+03  0.12061552907E+03  0.15500000000E+01 0. -1.
         -4    1    3    3    0  501  0.10169725218E+02  0.51758408526E+02  0.14596285823E+02  0.54752262272E+02  0.15500000000E+01 0. -1.
<mgrwt>
<rscale>  2 0.12494506E+03</rscale>
<asrwt>0</asrwt>
<pdfrwt beam="1">  1       21 0.22955618E-01 0.12494506E+03</pdfrwt>
<pdfrwt beam="2">  1       21 0.40240416E-02 0.12494506E+03</pdfrwt>
<totfact> 0.67781392E+06</totfact>
</mgrwt>
</event>
<event>
 5    0  0.1222151E+000  0.1249998E+03  0.7546771E-02  0.1235070E+00
         21   -1    0    0  503  502  0.00000000000E+00  0.00000000000E+00  0.48340259660E+01  0.48340259660E+01  0.00000000000E+00 0.  1.
         21   -1    0    0  502  503 -0.00000000000E+00 -0.00000000000E+00 -0.80807179663E+03  0.80807179663E+03  0.00000000000E+00 0.  1.
         25    2    1    2    0    0  0.00000000000E+00  0.00000000000E+00 -0.80323777066E+03  0.81290582260E+03  0.12499984076E+03 0.  0.
          4    1    3    3  501    0  0.59044017848E+02 -0.19913114400E+02 -0.37173971743E+03  0.37692910233E+03  0.15500000000E+01 0. -1.
         -4    1    3    3    0  501 -0.59044017848E+02  0.19913114400E+02 -0.43149805324E+03  0.43597672027E+03  0.15500000000E+01 0. -1.
<mgrwt>
<rscale>  2 0.12499984E+03</rscale>
<asrwt>0</asrwt>
<pdfrwt beam="1">  1       21 0.74369638E-03 0.12499984E+03</pdfrwt>
<pdfrwt beam="2">  1       21 0.12431873E+00 0.12499984E+03</pdfrwt>
<totfact> 0.28939769E+06</totfact>
</mgrwt>
</event>
<event>
 5    0  0.1222151E+000  0.1249943E+03  0.7546771E-02  0.1235078E+00
         21   -1    0    0  503  502  0.00000000000E+00  0.00000000000E+00  0.10832586759E+03  0.10832586759E+03  0.00000000000E+00 0. -1.
         21   -1    0    0  502  503 -0.00000000000E+00 -0.00000000000E+00 -0.36056914072E+02  0.36056914072E+02  0.00000000000E+00 0. -1.
         25    2    1    2    0    0  0.00000000000E+00  0.00000000000E+00  0.72268953520E+02  0.14438278166E+03  0.12499434386E+03 0.  0.
          4    1    3    3  501    0  0.19905465832E+02  0.12666197628E+02  0.10295996200E+03  0.10564003222E+03  0.15500000000E+01 0.  1.
         -4    1    3    3    0  501 -0.19905465832E+02 -0.12666197628E+02 -0.30691008484E+02  0.38742749439E+02  0.15500000000E+01 0.  1.
<mgrwt>
<rscale>  2 0.12499434E+03</rscale>
<asrwt>0</asrwt>
<pdfrwt beam="1">  1       21 0.16665518E-01 0.12499434E+03</pdfrwt>
<pdfrwt beam="2">  1       21 0.55472176E-02 0.12499434E+03</pdfrwt>
<totfact> 0.71482478E+06</totfact>
</mgrwt>
</event>
<event>
 4    0  0.1396540E+000  0.1253447E+03  0.7546771E-02  0.1234532E+00
         21   -1    0    0  503  502  0.00000000000E+00  0.00000000000E+00  0.26949308641E+03  0.26949308641E+03  0.00000000000E+00 0.  1.
         21   -1    0    0  502  503 -0.00000000000E+00 -0.00000000000E+00 -0.14574847070E+02  0.14574847070E+02  0.00000000000E+00 0.  1.
          4    1    1    2  501    0  0.56510781791E+02 -0.12719296666E+02  0.73344050221E+02  0.93471927171E+02  0.15500000000E+01 0.  1.
         -4    1    1    2    0  501 -0.56510781791E+02  0.12719296666E+02  0.18157418912E+03  0.19059600631E+03  0.15500000000E+01 0.  1.
<mgrwt>
<rscale>  2 0.12534465E+03</rscale>
<asrwt>0</asrwt>
<pdfrwt beam="1">  1       21 0.41460471E-01 0.12534465E+03</pdfrwt>
<pdfrwt beam="2">  1       21 0.22422844E-02 0.12534465E+03</pdfrwt>
<totfact> 0.56317069E+06</totfact>
</mgrwt>
</event>
<event>
 5    0  0.1222151E+000  0.1249757E+03  0.7546771E-02  0.1235107E+00
         21   -1    0    0  503  502  0.00000000000E+00  0.00000000000E+00  0.97238192650E+01  0.97238192650E+01  0.00000000000E+00 0. -1.
         21   -1    0    0  502  503 -0.00000000000E+00 -0.00000000000E+00 -0.40156365740E+03  0.40156365740E+03  0.00000000000E+00 0. -1.
         25    2    1    2    0    0  0.00000000000E+00  0.00000000000E+00 -0.39183983814E+03  0.41128747667E+03  0.12497571649E+03 0.  0.
          4    1    3    3  501    0  0.19605658339E+02 -0.14549794323E+02 -0.66908735959E+01  0.25362346958E+02  0.15500000000E+01 0.  1.
         -4    1    3    3    0  501 -0.19605658339E+02  0.14549794323E+02 -0.38514896454E+03  0.38592512971E+03  0.15500000000E+01 0.  1.
<mgrwt>
<rscale>  2 0.12497572E+03</rscale>
<asrwt>0</asrwt>
<pdfrwt beam="1">  1       21 0.14959720E-02 0.12497572E+03</pdfrwt>
<pdfrwt beam="2">  1       21 0.61779030E-01 0.12497572E+03</pdfrwt>
<totfact> 0.47330272E+06</totfact>
</mgrwt>
</event>
<event>
 5    0  0.1585594E+000  0.1249993E+03  0.7546771E-02  0.1235070E+00
         21   -1    0    0  503  502  0.00000000000E+00  0.00000000000E+00  0.24860312317E+02  0.24860312317E+02  0.00000000000E+00 0.  1.
         21   -1    0    0  502  503 -0.00000000000E+00 -0.00000000000E+00 -0.15712610273E+03  0.15712610273E+03  0.00000000000E+00 0.  1.
         25    2    1    2    0    0  0.00000000000E+00  0.00000000000E+00 -0.13226579042E+03  0.18198641505E+03  0.12499926379E+03 0.  0.
          4    1    3    3  501    0 -0.13528626037E+02 -0.58745391704E+02 -0.90044991422E+02  0.10837226467E+03  0.15500000000E+01 0.  1.
         -4    1    3    3    0  501  0.13528626037E+02  0.58745391704E+02 -0.42220798995E+02  0.73614150384E+02  0.15500000000E+01 0.  1.
<mgrwt>
<rscale>  2 0.12499926E+03</rscale>
<asrwt>0</asrwt>
<pdfrwt beam="1">  1       21 0.38246634E-02 0.12499926E+03</pdfrwt>
<pdfrwt beam="2">  1       21 0.24173247E-01 0.12499926E+03</pdfrwt>
<totfact> 0.66925638E+06</totfact>
</mgrwt>
</event>
<event>
 5    0  0.1222151E+000  0.1250014E+03  0.7546771E-02  0.1235067E+00
         21   -1    0    0  503  502  0.00000000000E+00  0.00000000000E+00  0.41423453648E+01  0.41423453648E+01  0.00000000000E+00 0.  1.
         21   -1    0    0  502  503 -0.00000000000E+00 -0.00000000000E+00 -0.94302618965E+03  0.94302618965E+03  0.00000000000E+00 0.  1.
         25    2    1    2    0    0  0.00000000000E+00  0.00000000000E+00 -0.93888384429E+03  0.94716853502E+03  0.12500144264E+03 0.  0.
          4    1    3    3  501    0  0.40708182926E+02 -0.34103534716E+02 -0.71888581227E+03  0.72084632261E+03  0.15500000000E+01 0.  1.
         -4    1    3    3    0  501 -0.40708182926E+02  0.34103534716E+02 -0.21999803202E+03  0.22632221241E+03  0.15500000000E+01 0.  1.
<mgrwt>
<rscale>  2 0.12500144E+03</rscale>
<asrwt>0</asrwt>
<pdfrwt beam="1">  1       21 0.63728347E-03 0.12500144E+03</pdfrwt>
<pdfrwt beam="2">  1       21 0.14508105E+00 0.12500144E+03</pdfrwt>
<totfact> 0.24986458E+06</totfact>
</mgrwt>
</event>
<event>
 5    0  0.1303403E+000  0.1249999E+03  0.7546771E-02  0.1235069E+00
         21   -1    0    0  503  502  0.00000000000E+00  0.00000000000E+00  0.84193693181E+01  0.84193693181E+01  0.00000000000E+00 0.  1.
         21   -1    0    0  502  503 -0.00000000000E+00 -0.00000000000E+00 -0.46395924332E+03  0.46395924332E+03  0.00000000000E+00 0.  1.
         25    2    1    2    0    0  0.00000000000E+00  0.00000000000E+00 -0.45553987400E+03  0.47237861264E+03  0.12499990749E+03 0.  0.
          4    1    3    3  501    0  0.47205630240E+02  0.54301736781E+01 -0.74451896193E+02  0.88336547699E+02  0.15500000000E+01 0. -1.
         -4    1    3    3    0  501 -0.47205630240E+02 -0.54301736781E+01 -0.38108797781E+03  0.38404206494E+03  0.15500000000E+01 0. -1.
<mgrwt>
<rscale>  2 0.12499991E+03</rscale>
<asrwt>0</asrwt>
<pdfrwt beam="1">  1       21 0.12952871E-02 0.12499991E+03</pdfrwt>
<pdfrwt beam="2">  1       21 0.71378370E-01 0.12499991E+03</pdfrwt>
<totfact> 0.43582865E+06</totfact>
</mgrwt>
</event>
<event>
 5    0  0.1390550E+000  0.1250011E+03  0.7546771E-02  0.1235068E+00
         21   -1    0    0  503  502  0.00000000000E+00  0.00000000000E+00  0.11240145222E+02  0.11240145222E+02  0.00000000000E+00 0.  1.
         21   -1    0    0  502  503 -0.00000000000E+00 -0.00000000000E+00 -0.34753260585E+03  0.34753260585E+03  0.00000000000E+00 0.  1.
         25    2    1    2    0    0  0.00000000000E+00  0.00000000000E+00 -0.33629246063E+03  0.35877275107E+03  0.12500107134E+03 0.  0.
          4    1    3    3  501    0 -0.41434866563E+02 -0.38515863814E+02 -0.92014282397E+02  0.10802476844E+03  0.15500000000E+01 0. -1.
         -4    1    3    3    0  501  0.41434866563E+02  0.38515863814E+02 -0.24427817823E+03  0.25074798263E+03  0.15500000000E+01 0. -1.
<mgrwt>
<rscale>  2 0.12500107E+03</rscale>
<asrwt>0</asrwt>
<pdfrwt beam="1">  1       21 0.17292529E-02 0.12500107E+03</pdfrwt>
<pdfrwt beam="2">  1       21 0.53466561E-01 0.12500107E+03</pdfrwt>
<totfact> 0.50895626E+06</totfact>
</mgrwt>
</event>
<event>
 5    0  0.1281939E+000  0.1249925E+03  0.7546771E-02  0.1235081E+00
         21   -1    0    0  503  502  0.00000000000E+00  0.00000000000E+00  0.93984743335E+01  0.93984743335E+01  0.00000000000E+00 0.  1.
         21   -1    0    0  502  503 -0.00000000000E+00 -0.00000000000E+00 -0.41557603015E+03  0.41557603015E+03  0.00000000000E+00 0.  1.
         25    2    1    2    0    0  0.00000000000E+00  0.00000000000E+00 -0.40617755582E+03  0.42497450449E+03  0.12499249022E+03 0.  0.
          4    1    3    3  501    0  0.25710225449E+02  0.20587187812E+02 -0.22583336395E+02  0.39965705015E+02  0.15500000000E+01 0.  1.
         -4    1    3    3    0  501 -0.25710225449E+02 -0.20587187812E+02 -0.38359421943E+03  0.38500879947E+03  0.15500000000E+01 0.  1.
<mgrwt>
<rscale>  2 0.12499249E+03</rscale>
<asrwt>0</asrwt>
<pdfrwt beam="1">  1       21 0.14459195E-02 0.12499249E+03</pdfrwt>
<pdfrwt beam="2">  1       21 0.63934759E-01 0.12499249E+03</pdfrwt>
<totfact> 0.46436479E+06</totfact>
</mgrwt>
</event>
<event>
 5    0  0.1234708E+000  0.1249946E+03  0.7546771E-02  0.1235078E+00
         21   -1    0    0  503  502  0.00000000000E+00  0.00000000000E+00  0.54366213418E+01  0.54366213418E+01  0.00000000000E+00 0. -1.
         21   -1    0    0  502  503 -0.00000000000E+00 -0.00000000000E+00 -0.71844431708E+03  0.71844431708E+03  0.00000000000E+00 0. -1.
         25    2    1    2    0    0  0.00000000000E+00  0.00000000000E+00 -0.71300769573E+03  0.72388093842E+03  0.12499455520E+03 0.  0.
          4    1    3    3  501    0  0.33410974517E+01  0.35144460333E+02 -0.57973091661E+02  0.67893872190E+02  0.15500000000E+01 0.  1.
         -4    1    3    3    0  501 -0.33410974517E+01 -0.35144460333E+02 -0.65503460407E+03  0.65598706623E+03  0.15500000000E+01 0.  1.
<mgrwt>
<rscale>  2 0.12499456E+03</rscale>
<asrwt>0</asrwt>
<pdfrwt beam="1">  1       21 0.83640353E-03 0.12499456E+03</pdfrwt>
<pdfrwt beam="2">  1       21 0.11052986E+00 0.12499456E+03</pdfrwt>
<totfact> 0.32013865E+06</totfact>
</mgrwt>
</event>
<event>
 5    0  0.1222151E+000  0.1250001E+03  0.7546771E-02  0.1235069E+00
         21   -1    0    0  503  502  0.00000000000E+00  0.00000000000E+00  0.27430760323E+01  0.27430760323E+01  0.00000000000E+00 0.  1.
         21   -1    0    0  502  503 -0.00000000000E+00 -0.00000000000E+00 -0.14240433338E+04  0.14240433338E+04  0.00000000000E+00 0.  1.
         25    2    1    2    0    0  0.00000000000E+00  0.00000000000E+00 -0.14213002578E+04  0.14267864098E+04  0.12500014621E+03 0.  0.
          4    1    3    3  501    0 -0.19476178106E+02  0.55910450900E+02 -0.93852343223E+03  0.94039031013E+03  0.15500000000E+01 0.  1.
         -4    1    3    3    0  501  0.19476178106E+02 -0.55910450900E+02 -0.48277682553E+03  0.48639609970E+03  0.15500000000E+01 0.  1.
<mgrwt>
<rscale>  2 0.12500015E+03</rscale>
<asrwt>0</asrwt>
<pdfrwt beam="1">  1       21 0.42201207E-03 0.12500015E+03</pdfrwt>
<pdfrwt beam="2">  1       21 0.21908339E+00 0.12500015E+03</pdfrwt>
<totfact> 0.15114487E+06</totfact>
</mgrwt>
</event>
<event>
 5    0  0.1222151E+000  0.1249994E+03  0.7546771E-02  0.1235070E+00
         21   -1    0    0  503  502  0.00000000000E+00  0.00000000000E+00  0.35320994169E+01  0.35320994169E+01  0.00000000000E+00 0.  1.
         21   -1    0    0  502  503 -0.00000000000E+00 -0.00000000000E+00 -0.11059188978E+04  0.11059188978E+04  0.00000000000E+00 0.  1.
         25    2    1    2    0    0  0.00000000000E+00  0.00000000000E+00 -0.11023867984E+04  0.11094509972E+04  0.12499944790E+03 0.  0.
          4    1    3    3  501    0 -0.36231722233E+02 -0.27432865435E+02 -0.93176239586E+03  0.93287130122E+03  0.15500000000E+01 0. -1.
         -4    1    3    3    0  501  0.36231722233E+02  0.27432865435E+02 -0.17062440253E+03  0.17657969600E+03  0.15500000000E+01 0. -1.
<mgrwt>
<rscale>  2 0.12499945E+03</rscale>
<asrwt>0</asrwt>
<pdfrwt beam="1">  1       21 0.54339966E-03 0.12499945E+03</pdfrwt>
<pdfrwt beam="2">  1       21 0.17014145E+00 0.12499945E+03</pdfrwt>
<totfact> 0.21042715E+06</totfact>
</mgrwt>
</event>
<event>
 5    0  0.1267680E+000  0.1250040E+03  0.7546771E-02  0.1235063E+00
         21   -1    0    0  503  502  0.00000000000E+00  0.00000000000E+00  0.54784897873E+03  0.54784897873E+03  0.00000000000E+00 0.  1.
         21   -1    0    0  502  503 -0.00000000000E+00 -0.00000000000E+00 -0.71306149008E+01  0.71306149008E+01  0.00000000000E+00 0.  1.
         25    2    1    2    0    0  0.00000000000E+00  0.00000000000E+00  0.54071836383E+03  0.55497959363E+03  0.12500400139E+03 0.  0.
          4    1    3    3  501    0  0.36197281464E+02  0.92012968194E+01  0.49275157109E+03  0.49416740115E+03  0.15500000000E+01 0. -1.
         -4    1    3    3    0  501 -0.36197281464E+02 -0.92012968194E+01  0.47966792741E+02  0.60812192482E+02  0.15500000000E+01 0. -1.
<mgrwt>
<rscale>  2 0.12500400E+03</rscale>
<asrwt>0</asrwt>
<pdfrwt beam="1">  1       21 0.84284425E-01 0.12500400E+03</pdfrwt>
<pdfrwt beam="2">  1       21 0.10970181E-02 0.12500400E+03</pdfrwt>
<totfact> 0.39207244E+06</totfact>
</mgrwt>
</event>
<event>
 5    0  0.1534860E+000  0.1250033E+03  0.7546771E-02  0.1235064E+00
         21   -1    0    0  503  502  0.00000000000E+00  0.00000000000E+00  0.10196582544E+03  0.10196582544E+03  0.00000000000E+00 0.  1.
         21   -1    0    0  502  503 -0.00000000000E+00 -0.00000000000E+00 -0.38311427127E+02  0.38311427127E+02  0.00000000000E+00 0.  1.
         25    2    1    2    0    0  0.00000000000E+00  0.00000000000E+00  0.63654398309E+02  0.14027725256E+03  0.12500330061E+03 0.  0.
          4    1    3    3  501    0 -0.30571040705E+02  0.49002737125E+02  0.50777252514E+01  0.58000366975E+02  0.15500000000E+01 0. -1.
         -4    1    3    3    0  501  0.30571040705E+02 -0.49002737125E+02  0.58576673058E+02  0.82276885588E+02  0.15500000000E+01 0. -1.
<mgrwt>
<rscale>  2 0.12500330E+03</rscale>
<asrwt>0</asrwt>
<pdfrwt beam="1">  1       21 0.15687050E-01 0.12500330E+03</pdfrwt>
<pdfrwt beam="2">  1       21 0.58940658E-02 0.12500330E+03</pdfrwt>
<totfact> 0.71997080E+06</totfact>
</mgrwt>
</event>
<event>
 5    0  0.1631219E+000  0.1249960E+03  0.7546771E-02  0.1235076E+00
         21   -1    0    0  503  502  0.00000000000E+00  0.00000000000E+00  0.99676208663E+02  0.99676208663E+02  0.00000000000E+00 0. -1.
         21   -1    0    0  502  503 -0.00000000000E+00 -0.00000000000E+00 -0.39186882719E+02  0.39186882719E+02  0.00000000000E+00 0. -1.
         25    2    1    2    0    0  0.00000000000E+00  0.00000000000E+00  0.60489325944E+02  0.13886309138E+03  0.12499599832E+03 0.  0.
          4    1    3    3  501    0 -0.69741092372E+01 -0.61984534114E+02  0.34231178968E+02  0.71168088232E+02  0.15500000000E+01 0.  1.
         -4    1    3    3    0  501  0.69741092372E+01  0.61984534114E+02  0.26258146976E+02  0.67695003151E+02  0.15500000000E+01 0.  1.
<mgrwt>
<rscale>  2 0.12499600E+03</rscale>
<asrwt>0</asrwt>
<pdfrwt beam="1">  1       21 0.15334801E-01 0.12499600E+03</pdfrwt>
<pdfrwt beam="2">  1       21 0.60287512E-02 0.12499600E+03</pdfrwt>
<totfact> 0.72195439E+06</totfact>
</mgrwt>
</event>
<event>
 5    0  0.1413103E+000  0.1249994E+03  0.7546771E-02  0.1235070E+00
         21   -1    0    0  503  502  0.00000000000E+00  0.00000000000E+00  0.31236779980E+03  0.31236779980E+03  0.00000000000E+00 0. -1.
         21   -1    0    0  502  503 -0.00000000000E+00 -0.00000000000E+00 -0.12505177654E+02  0.12505177654E+02  0.00000000000E+00 0. -1.
         25    2    1    2    0    0  0.00000000000E+00  0.00000000000E+00  0.29986262214E+03  0.32487297745E+03  0.12499943727E+03 0.  0.
          4    1    3    3  501    0 -0.13774019574E+02  0.22186748296E+02  0.29745348629E+03  0.29860166514E+03  0.15500000000E+01 0.  1.
         -4    1    3    3    0  501  0.13774019574E+02 -0.22186748296E+02  0.24091358523E+01  0.26271312315E+02  0.15500000000E+01 0.  1.
<mgrwt>
<rscale>  2 0.12499944E+03</rscale>
<asrwt>0</asrwt>
<pdfrwt beam="1">  1       21 0.48056579E-01 0.12499944E+03</pdfrwt>
<pdfrwt beam="2">  1       21 0.19238737E-02 0.12499944E+03</pdfrwt>
<totfact> 0.53450186E+06</totfact>
</mgrwt>
</event>
<event>
 5    0  0.1432703E+000  0.1250001E+03  0.7546771E-02  0.1235069E+00
         21   -1    0    0  503  502  0.00000000000E+00  0.00000000000E+00  0.21373098997E+03  0.21373098997E+03  0.00000000000E+00 0. -1.
         21   -1    0    0  502  503 -0.00000000000E+00 -0.00000000000E+00 -0.18276503148E+02  0.18276503148E+02  0.00000000000E+00 0. -1.
         25    2    1    2    0    0  0.00000000000E+00  0.00000000000E+00  0.19545448682E+03  0.23200749312E+03  0.12500008178E+03 0.  0.
          4    1    3    3  501    0 -0.18429525251E+01 -0.44684312166E+02  0.16743328161E+02  0.47778925958E+02  0.15500000000E+01 0.  1.
         -4    1    3    3    0  501  0.18429525251E+01  0.44684312166E+02  0.17871115866E+03  0.18422856716E+03  0.15500000000E+01 0.  1.
<mgrwt>
<rscale>  2 0.12500008E+03</rscale>
<asrwt>0</asrwt>
<pdfrwt beam="1">  1       21 0.32881689E-01 0.12500008E+03</pdfrwt>
<pdfrwt beam="2">  1       21 0.28117699E-02 0.12500008E+03</pdfrwt>
<totfact> 0.61614638E+06</totfact>
</mgrwt>
</event>
<event>
 5    0  0.1312946E+000  0.1249976E+03  0.7546771E-02  0.1235073E+00
         21   -1    0    0  503  502  0.00000000000E+00  0.00000000000E+00  0.54400519983E+03  0.54400519983E+03  0.00000000000E+00 0. -1.
         21   -1    0    0  502  503 -0.00000000000E+00 -0.00000000000E+00 -0.71802600142E+01  0.71802600142E+01  0.00000000000E+00 0. -1.
         25    2    1    2    0    0  0.00000000000E+00  0.00000000000E+00  0.53682493982E+03  0.55118545985E+03  0.12499758052E+03 0.  0.
          4    1    3    3  501    0  0.27309651645E+02 -0.18496169416E+02  0.50240112757E+03  0.50348507509E+03  0.15500000000E+01 0.  1.
         -4    1    3    3    0  501 -0.27309651645E+02  0.18496169416E+02  0.34423812246E+02  0.47700384753E+02  0.15500000000E+01 0.  1.
<mgrwt>
<rscale>  2 0.12499758E+03</rscale>
<asrwt>0</asrwt>
<pdfrwt beam="1">  1       21 0.83693075E-01 0.12499758E+03</pdfrwt>
<pdfrwt beam="2">  1       21 0.11046558E-02 0.12499758E+03</pdfrwt>
<totfact> 0.39399944E+06</totfact>
</mgrwt>
</event>
<event>
 5    0  0.1262741E+000  0.1250010E+03  0.7546771E-02  0.1235068E+00
         21   -1    0    0  503  502  0.00000000000E+00  0.00000000000E+00  0.64063562018E+03  0.64063562018E+03  0.00000000000E+00 0.  1.
         21   -1    0    0  502  503 -0.00000000000E+00 -0.00000000000E+00 -0.60975544611E+01  0.60975544611E+01  0.00000000000E+00 0.  1.
         25    2    1    2    0    0  0.00000000000E+00  0.00000000000E+00  0.63453806572E+03  0.64673317464E+03  0.12500096934E+03 0.  0.
          4    1    3    3  501    0  0.38611300809E+02  0.38768741705E+02  0.16118919005E+03  0.17022986040E+03  0.15500000000E+01 0. -1.
         -4    1    3    3    0  501 -0.38611300809E+02 -0.38768741705E+02  0.47334887567E+03  0.47650331424E+03  0.15500000000E+01 0. -1.
<mgrwt>
<rscale>  2 0.12500097E+03</rscale>
<asrwt>0</asrwt>
<pdfrwt beam="1">  1       21 0.98559273E-01 0.12500097E+03</pdfrwt>
<pdfrwt beam="2">  1       21 0.93808581E-03 0.12500097E+03</pdfrwt>
<totfact> 0.35059934E+06</totfact>
</mgrwt>
</event>
<event>
 5    0  0.1483586E+000  0.1249979E+03  0.7546771E-02  0.1235073E+00
         21   -1    0    0  503  502  0.00000000000E+00  0.00000000000E+00  0.15842258977E+02  0.15842258977E+02  0.00000000000E+00 0.  1.
         21   -1    0    0  502  503 -0.00000000000E+00 -0.00000000000E+00 -0.24656324693E+03  0.24656324693E+03  0.00000000000E+00 0.  1.
         25    2    1    2    0    0  0.00000000000E+00  0.00000000000E+00 -0.23072098795E+03  0.26240550590E+03  0.12499790097E+03 0.  0.
          4    1    3    3  501    0  0.26299452085E+02 -0.49505256293E+02 -0.57438462815E+02  0.80274598044E+02  0.15500000000E+01 0.  1.
         -4    1    3    3    0  501 -0.26299452085E+02  0.49505256293E+02 -0.17328252513E+03  0.18213090786E+03  0.15500000000E+01 0.  1.
<mgrwt>
<rscale>  2 0.12499790E+03</rscale>
<asrwt>0</asrwt>
<pdfrwt beam="1">  1       21 0.24372707E-02 0.12499790E+03</pdfrwt>
<pdfrwt beam="2">  1       21 0.37932806E-01 0.12499790E+03</pdfrwt>
<totfact> 0.58732598E+06</totfact>
</mgrwt>
</event>
<event>
 5    0  0.1589096E+000  0.1249990E+03  0.7546771E-02  0.1235071E+00
         21   -1    0    0  503  502  0.00000000000E+00  0.00000000000E+00  0.65498297917E+02  0.65498297917E+02  0.00000000000E+00 0.  1.
         21   -1    0    0  502  503 -0.00000000000E+00 -0.00000000000E+00 -0.59637968732E+02  0.59637968732E+02  0.00000000000E+00 0.  1.
         25    2    1    2    0    0  0.00000000000E+00  0.00000000000E+00  0.58603291856E+01  0.12513626665E+03  0.12499896709E+03 0.  0.
          4    1    3    3  501    0  0.38849139493E+02  0.48181953831E+02 -0.56247838394E+01  0.62167491566E+02  0.15500000000E+01 0.  1.
         -4    1    3    3    0  501 -0.38849139493E+02 -0.48181953831E+02  0.11485113025E+02  0.62968775083E+02  0.15500000000E+01 0.  1.
<mgrwt>
<rscale>  2 0.12499897E+03</rscale>
<asrwt>0</asrwt>
<pdfrwt beam="1">  1       21 0.10076661E-01 0.12499897E+03</pdfrwt>
<pdfrwt beam="2">  1       21 0.91750721E-02 0.12499897E+03</pdfrwt>
<totfact> 0.74027133E+06</totfact>
</mgrwt>
</event>
<event>
 5    0  0.1617532E+000  0.1250021E+03  0.7546771E-02  0.1235066E+00
         21   -1    0    0  503  502  0.00000000000E+00  0.00000000000E+00  0.53395602218E+02  0.53395602218E+02  0.00000000000E+00 0.  1.
         21   -1    0    0  502  503 -0.00000000000E+00 -0.00000000000E+00 -0.73159272999E+02  0.73159272999E+02  0.00000000000E+00 0.  1.
         25    2    1    2    0    0  0.00000000000E+00  0.00000000000E+00 -0.19763670781E+02  0.12655487522E+03  0.12500213502E+03 0.  0.
          4    1    3    3  501    0 -0.58767911205E+02  0.95017379008E+01  0.93283304241E+01  0.60277447350E+02  0.15500000000E+01 0. -1.
         -4    1    3    3    0  501  0.58767911205E+02 -0.95017379008E+01 -0.29092001205E+02  0.66277427867E+02  0.15500000000E+01 0. -1.
<mgrwt>
<rscale>  2 0.12500214E+03</rscale>
<asrwt>0</asrwt>
<pdfrwt beam="1">  1       21 0.82147081E-02 0.12500214E+03</pdfrwt>
<pdfrwt beam="2">  1       21 0.11255273E-01 0.12500214E+03</pdfrwt>
<totfact> 0.73825843E+06</totfact>
</mgrwt>
</event>
<event>
 5    0  0.1568786E+000  0.1249977E+03  0.7546771E-02  0.1235073E+00
         21   -1    0    0  503  502  0.00000000000E+00  0.00000000000E+00  0.23404459594E+02  0.23404459594E+02  0.00000000000E+00 0.  1.
         21   -1    0    0  502  503 -0.00000000000E+00 -0.00000000000E+00 -0.16689568857E+03  0.16689568857E+03  0.00000000000E+00 0.  1.
         25    2    1    2    0    0  0.00000000000E+00  0.00000000000E+00 -0.14349122898E+03  0.19030014817E+03  0.12499765437E+03 0.  0.
          4    1    3    3  501    0  0.85641038340E+01  0.54283246686E+02 -0.26488559648E+02  0.61025085313E+02  0.15500000000E+01 0. -1.
         -4    1    3    3    0  501 -0.85641038340E+01 -0.54283246686E+02 -0.11700266933E+03  0.12927506285E+03  0.15500000000E+01 0. -1.
<mgrwt>
<rscale>  2 0.12499765E+03</rscale>
<asrwt>0</asrwt>
<pdfrwt beam="1">  1       21 0.36006862E-02 0.12499765E+03</pdfrwt>
<pdfrwt beam="2">  1       21 0.25676259E-01 0.12499765E+03</pdfrwt>
<totfact> 0.65993043E+06</totfact>
</mgrwt>
</event>
<event>
 5    0  0.1533463E+000  0.1250144E+03  0.7546771E-02  0.1235047E+00
         21   -1    0    0  503  502  0.00000000000E+00  0.00000000000E+00  0.22310924828E+03  0.22310924828E+03  0.00000000000E+00 0. -1.
         21   -1    0    0  502  503 -0.00000000000E+00 -0.00000000000E+00 -0.17512262199E+02  0.17512262199E+02  0.00000000000E+00 0. -1.
         25    2    1    2    0    0  0.00000000000E+00  0.00000000000E+00  0.20559698608E+03  0.24062151048E+03  0.12501436165E+03 0.  0.
          4    1    3    3  501    0  0.58422282516E+02 -0.66399022778E+01  0.14351476739E+03  0.15510042668E+03  0.15500000000E+01 0. -1.
         -4    1    3    3    0  501 -0.58422282516E+02  0.66399022778E+01  0.62082218688E+02  0.85521083798E+02  0.15500000000E+01 0. -1.
<mgrwt>
<rscale>  2 0.12501436E+03</rscale>
<asrwt>0</asrwt>
<pdfrwt beam="1">  1       21 0.34324498E-01 0.12501436E+03</pdfrwt>
<pdfrwt beam="2">  1       21 0.26941943E-02 0.12501436E+03</pdfrwt>
<totfact> 0.60750563E+06</totfact>
</mgrwt>
</event>
<event>
 5    0  0.1222151E+000  0.1250013E+03  0.7546771E-02  0.1235067E+00
         21   -1    0    0  503  502  0.00000000000E+00  0.00000000000E+00  0.31162587553E+01  0.31162587553E+01  0.00000000000E+00 0.  1.
         21   -1    0    0  502  503 -0.00000000000E+00 -0.00000000000E+00 -0.12535328716E+04  0.12535328716E+04  0.00000000000E+00 0.  1.
         25    2    1    2    0    0  0.00000000000E+00  0.00000000000E+00 -0.12504166129E+04  0.12566491304E+04  0.12500132457E+03 0.  0.
          4    1    3    3  501    0  0.34158393699E+02  0.76075919321E+01 -0.11455717354E+04  0.11461071829E+04  0.15500000000E+01 0. -1.
         -4    1    3    3    0  501 -0.34158393699E+02 -0.76075919321E+01 -0.10484487751E+03  0.11054194749E+03  0.15500000000E+01 0. -1.
<mgrwt>
<rscale>  2 0.12500132E+03</rscale>
<asrwt>0</asrwt>
<pdfrwt beam="1">  1       21 0.47942334E-03 0.12500132E+03</pdfrwt>
<pdfrwt beam="2">  1       21 0.19285165E+00 0.12500132E+03</pdfrwt>
<totfact> 0.18048436E+06</totfact>
</mgrwt>
</event>
<event>
 5    0  0.1619389E+000  0.1249998E+03  0.7546771E-02  0.1235070E+00
         21   -1    0    0  503  502  0.00000000000E+00  0.00000000000E+00  0.46870253635E+02  0.46870253635E+02  0.00000000000E+00 0. -1.
         21   -1    0    0  502  503 -0.00000000000E+00 -0.00000000000E+00 -0.83341461865E+02  0.83341461865E+02  0.00000000000E+00 0. -1.
         25    2    1    2    0    0  0.00000000000E+00  0.00000000000E+00 -0.36471208230E+02  0.13021171550E+03  0.12499976730E+03 0.  0.
          4    1    3    3  501    0 -0.50371495989E+02 -0.36381245116E+02 -0.25062514747E+02  0.67018018098E+02  0.15500000000E+01 0. -1.
         -4    1    3    3    0  501  0.50371495989E+02  0.36381245116E+02 -0.11408693483E+02  0.63193697402E+02  0.15500000000E+01 0. -1.
<mgrwt>
<rscale>  2 0.12499977E+03</rscale>
<asrwt>0</asrwt>
<pdfrwt beam="1">  1       21 0.72108083E-02 0.12499977E+03</pdfrwt>
<pdfrwt beam="2">  1       21 0.12821763E-01 0.12499977E+03</pdfrwt>
<totfact> 0.73337069E+06</totfact>
</mgrwt>
</event>
<event>
 5    0  0.1222151E+000  0.1250283E+03  0.7546771E-02  0.1235025E+00
         21   -1    0    0  503  502  0.00000000000E+00  0.00000000000E+00  0.62495686569E+01  0.62495686569E+01  0.00000000000E+00 0.  1.
         21   -1    0    0  502  503 -0.00000000000E+00 -0.00000000000E+00 -0.62532654259E+03  0.62532654259E+03  0.00000000000E+00 0.  1.
         25    2    1    2    0    0  0.00000000000E+00  0.00000000000E+00 -0.61907697394E+03  0.63157611125E+03  0.12502833536E+03 0.  0.
          4    1    3    3  501    0  0.22638446726E+02  0.15594736110E+02 -0.26029222152E+02  0.37889549619E+02  0.15500000000E+01 0.  1.
         -4    1    3    3    0  501 -0.22638446726E+02 -0.15594736110E+02 -0.59304775179E+03  0.59368656163E+03  0.15500000000E+01 0.  1.
<mgrwt>
<rscale>  2 0.12502834E+03</rscale>
<asrwt>0</asrwt>
<pdfrwt beam="1">  1       21 0.96147204E-03 0.12502834E+03</pdfrwt>
<pdfrwt beam="2">  1       21 0.96204090E-01 0.12502834E+03</pdfrwt>
<totfact> 0.35677383E+06</totfact>
</mgrwt>
</event>
<event>
 5    0  0.1566602E+000  0.1250077E+03  0.7546771E-02  0.1235057E+00
         21   -1    0    0  503  502  0.00000000000E+00  0.00000000000E+00  0.11161883354E+03  0.11161883354E+03  0.00000000000E+00 0. -1.
         21   -1    0    0  502  503 -0.00000000000E+00 -0.00000000000E+00 -0.35000655962E+02  0.35000655962E+02  0.00000000000E+00 0. -1.
         25    2    1    2    0    0  0.00000000000E+00  0.00000000000E+00  0.76618177577E+02  0.14661948950E+03  0.12500771803E+03 0.  0.
          4    1    3    3  501    0  0.10212027991E+02  0.57124949522E+02  0.11135007738E+02  0.59109527750E+02  0.15500000000E+01 0.  1.
         -4    1    3    3    0  501 -0.10212027991E+02 -0.57124949522E+02  0.65483169839E+02  0.87509961751E+02  0.15500000000E+01 0.  1.
<mgrwt>
<rscale>  2 0.12500772E+03</rscale>
<asrwt>0</asrwt>
<pdfrwt beam="1">  1       21 0.17172128E-01 0.12500772E+03</pdfrwt>
<pdfrwt beam="2">  1       21 0.53847163E-02 0.12500772E+03</pdfrwt>
<totfact> 0.71172496E+06</totfact>
</mgrwt>
</event>
<event>
 5    0  0.1425343E+000  0.1250175E+03  0.7546771E-02  0.1235042E+00
         21   -1    0    0  503  502  0.00000000000E+00  0.00000000000E+00  0.42279162868E+03  0.42279162868E+03  0.00000000000E+00 0. -1.
         21   -1    0    0  502  503 -0.00000000000E+00 -0.00000000000E+00 -0.92417704585E+01  0.92417704585E+01  0.00000000000E+00 0. -1.
         25    2    1    2    0    0  0.00000000000E+00  0.00000000000E+00  0.41354985822E+03  0.43203339914E+03  0.12501748972E+03 0.  0.
          4    1    3    3  501    0  0.47080435342E+02  0.32052455714E+02  0.29562375053E+03  0.30106433147E+03  0.15500000000E+01 0.  1.
         -4    1    3    3    0  501 -0.47080435342E+02 -0.32052455714E+02  0.11792610769E+03  0.13096906766E+03  0.15500000000E+01 0.  1.
<mgrwt>
<rscale>  2 0.12501749E+03</rscale>
<asrwt>0</asrwt>
<pdfrwt beam="1">  1       21 0.65044851E-01 0.12501749E+03</pdfrwt>
<pdfrwt beam="2">  1       21 0.14218112E-02 0.12501749E+03</pdfrwt>
<totfact> 0.45966672E+06</totfact>
</mgrwt>
</event>
<event>
 5    0  0.1325071E+000  0.1249900E+03  0.7546771E-02  0.1235085E+00
         21   -1    0    0  503  502  0.00000000000E+00  0.00000000000E+00  0.51300761461E+03  0.51300761461E+03  0.00000000000E+00 0. -1.
         21   -1    0    0  502  503 -0.00000000000E+00 -0.00000000000E+00 -0.76131937980E+01  0.76131937980E+01  0.00000000000E+00 0. -1.
         25    2    1    2    0    0  0.00000000000E+00  0.00000000000E+00  0.50539442081E+03  0.52062080841E+03  0.12499002184E+03 0.  0.
          4    1    3    3  501    0 -0.50581426957E+02 -0.15178673345E+02  0.11365163162E+03  0.12533143559E+03  0.15500000000E+01 0.  1.
         -4    1    3    3    0  501  0.50581426957E+02  0.15178673345E+02  0.39174278919E+03  0.39528937282E+03  0.15500000000E+01 0.  1.
<mgrwt>
<rscale>  2 0.12499002E+03</rscale>
<asrwt>0</asrwt>
<pdfrwt beam="1">  1       21 0.78924221E-01 0.12499002E+03</pdfrwt>
<pdfrwt beam="2">  1       21 0.11712610E-02 0.12499002E+03</pdfrwt>
<totfact> 0.40957571E+06</totfact>
</mgrwt>
</event>
<event>
 5    0  0.1424618E+000  0.1249842E+03  0.7546771E-02  0.1235094E+00
         21   -1    0    0  503  502  0.00000000000E+00  0.00000000000E+00  0.34004711512E+03  0.34004711512E+03  0.00000000000E+00 0. -1.
         21   -1    0    0  502  503 -0.00000000000E+00 -0.00000000000E+00 -0.11484474645E+02  0.11484474645E+02  0.00000000000E+00 0. -1.
         25    2    1    2    0    0  0.00000000000E+00  0.00000000000E+00  0.32856264048E+03  0.35153158977E+03  0.12498419855E+03 0.  0.
          4    1    3    3  501    0  0.10884144369E+02  0.47789502668E+02  0.27323345869E+03  0.27759903928E+03  0.15500000000E+01 0.  1.
         -4    1    3    3    0  501 -0.10884144369E+02 -0.47789502668E+02  0.55329181792E+02  0.73932550488E+02  0.15500000000E+01 0.  1.
<mgrwt>
<rscale>  2 0.12498420E+03</rscale>
<asrwt>0</asrwt>
<pdfrwt beam="1">  1       21 0.52314933E-01 0.12498420E+03</pdfrwt>
<pdfrwt beam="2">  1       21 0.17668425E-02 0.12498420E+03</pdfrwt>
<totfact> 0.51445881E+06</totfact>
</mgrwt>
</event>
<event>
 5    0  0.1222151E+000  0.1249921E+03  0.7546771E-02  0.1235082E+00
         21   -1    0    0  503  502  0.00000000000E+00  0.00000000000E+00  0.26809167929E+01  0.26809167929E+01  0.00000000000E+00 0.  1.
         21   -1    0    0  502  503 -0.00000000000E+00 -0.00000000000E+00 -0.14568737731E+04  0.14568737731E+04  0.00000000000E+00 0.  1.
         25    2    1    2    0    0  0.00000000000E+00  0.00000000000E+00 -0.14541928563E+04  0.14595546899E+04  0.12499211757E+03 0.  0.
          4    1    3    3  501    0  0.48540515455E+02 -0.35959037137E+02 -0.54094862524E+03  0.54431337632E+03  0.15500000000E+01 0.  1.
         -4    1    3    3    0  501 -0.48540515455E+02  0.35959037137E+02 -0.91324423109E+03  0.91524131360E+03  0.15500000000E+01 0.  1.
<mgrwt>
<rscale>  2 0.12499212E+03</rscale>
<asrwt>0</asrwt>
<pdfrwt beam="1">  1       21 0.41244901E-03 0.12499212E+03</pdfrwt>
<pdfrwt beam="2">  1       21 0.22413428E+00 0.12499212E+03</pdfrwt>
<totfact> 0.14606127E+06</totfact>
</mgrwt>
</event>
<event>
 5    0  0.1676910E+000  0.1250155E+03  0.7546771E-02  0.1235045E+00
         21   -1    0    0  503  502  0.00000000000E+00  0.00000000000E+00  0.36166090108E+02  0.36166090108E+02  0.00000000000E+00 0. -1.
         21   -1    0    0  502  503 -0.00000000000E+00 -0.00000000000E+00 -0.10803537796E+03  0.10803537796E+03  0.00000000000E+00 0. -1.
         25    2    1    2    0    0  0.00000000000E+00  0.00000000000E+00 -0.71869287849E+02  0.14420146807E+03  0.12501547447E+03 0.  0.
          4    1    3    3  501    0  0.50517464023E+02 -0.30865497928E+02 -0.12861759209E+02  0.60601324107E+02  0.15500000000E+01 0.  1.
         -4    1    3    3    0  501 -0.50517464023E+02  0.30865497928E+02 -0.59007528639E+02  0.83600143958E+02  0.15500000000E+01 0.  1.
<mgrwt>
<rscale>  2 0.12501547E+03</rscale>
<asrwt>0</asrwt>
<pdfrwt beam="1">  1       21 0.55640139E-02 0.12501547E+03</pdfrwt>
<pdfrwt beam="2">  1       21 0.16620827E-01 0.12501547E+03</pdfrwt>
<totfact> 0.71467278E+06</totfact>
</mgrwt>
</event>
<event>
 5    0  0.1477819E+000  0.1250290E+03  0.7546771E-02  0.1235024E+00
         21   -1    0    0  503  502  0.00000000000E+00  0.00000000000E+00  0.21447480264E+02  0.21447480264E+02  0.00000000000E+00 0. -1.
         21   -1    0    0  502  503 -0.00000000000E+00 -0.00000000000E+00 -0.18221546372E+03  0.18221546372E+03  0.00000000000E+00 0. -1.
         25    2    1    2    0    0  0.00000000000E+00  0.00000000000E+00 -0.16076798345E+03  0.20366294398E+03  0.12502899763E+03 0.  0.
          4    1    3    3  501    0  0.58946430837E+02 -0.12354776806E+02 -0.10756010831E+03  0.12328382545E+03  0.15500000000E+01 0.  1.
         -4    1    3    3    0  501 -0.58946430837E+02  0.12354776806E+02 -0.53207875143E+02  0.80379118529E+02  0.15500000000E+01 0.  1.
<mgrwt>
<rscale>  2 0.12502900E+03</rscale>
<asrwt>0</asrwt>
<pdfrwt beam="1">  1       21 0.32996122E-02 0.12502900E+03</pdfrwt>
<pdfrwt beam="2">  1       21 0.28033149E-01 0.12502900E+03</pdfrwt>
<totfact> 0.64485159E+06</totfact>
</mgrwt>
</event>
<event>
 5    0  0.1444278E+000  0.1249956E+03  0.7546771E-02  0.1235076E+00
         21   -1    0    0  503  502  0.00000000000E+00  0.00000000000E+00  0.15203904150E+02  0.15203904150E+02  0.00000000000E+00 0. -1.
         21   -1    0    0  502  503 -0.00000000000E+00 -0.00000000000E+00 -0.25690596780E+03  0.25690596780E+03  0.00000000000E+00 0. -1.
         25    2    1    2    0    0  0.00000000000E+00  0.00000000000E+00 -0.24170206365E+03  0.27210987195E+03  0.12499557928E+03 0.  0.
          4    1    3    3  501    0  0.22593423492E+02 -0.26371141368E+02 -0.23392019095E+03  0.23648881182E+03  0.15500000000E+01 0.  1.
         -4    1    3    3    0  501 -0.22593423492E+02  0.26371141368E+02 -0.77818727011E+01  0.35621060131E+02  0.15500000000E+01 0.  1.
<mgrwt>
<rscale>  2 0.12499558E+03</rscale>
<asrwt>0</asrwt>
<pdfrwt beam="1">  1       21 0.23390623E-02 0.12499558E+03</pdfrwt>
<pdfrwt beam="2">  1       21 0.39523992E-01 0.12499558E+03</pdfrwt>
<totfact> 0.57863064E+06</totfact>
</mgrwt>
</event>
<event>
 5    0  0.1444616E+000  0.1250051E+03  0.7546771E-02  0.1235061E+00
         21   -1    0    0  503  502  0.00000000000E+00  0.00000000000E+00  0.15658881970E+03  0.15658881970E+03  0.00000000000E+00 0.  1.
         21   -1    0    0  502  503 -0.00000000000E+00 -0.00000000000E+00 -0.24947922765E+02  0.24947922765E+02  0.00000000000E+00 0.  1.
         25    2    1    2    0    0  0.00000000000E+00  0.00000000000E+00  0.13164089693E+03  0.18153674246E+03  0.12500505237E+03 0.  0.
          4    1    3    3  501    0  0.25584020655E+02  0.32292208038E+02 -0.24011437004E+01  0.41297660998E+02  0.15500000000E+01 0. -1.
         -4    1    3    3    0  501 -0.25584020655E+02 -0.32292208038E+02  0.13404204063E+03  0.14023908146E+03  0.15500000000E+01 0. -1.
<mgrwt>
<rscale>  2 0.12500505E+03</rscale>
<asrwt>0</asrwt>
<pdfrwt beam="1">  1       21 0.24090587E-01 0.12500505E+03</pdfrwt>
<pdfrwt beam="2">  1       21 0.38381421E-02 0.12500505E+03</pdfrwt>
<totfact> 0.66967102E+06</totfact>
</mgrwt>
</event>
<event>
 5    0  0.1515189E+000  0.1249968E+03  0.7546771E-02  0.1235074E+00
         21   -1    0    0  503  502  0.00000000000E+00  0.00000000000E+00  0.16769685542E+02  0.16769685542E+02  0.00000000000E+00 0.  1.
         21   -1    0    0  502  503 -0.00000000000E+00 -0.00000000000E+00 -0.23292341701E+03  0.23292341701E+03  0.00000000000E+00 0.  1.
         25    2    1    2    0    0  0.00000000000E+00  0.00000000000E+00 -0.21615373147E+03  0.24969310256E+03  0.12499683930E+03 0.  0.
          4    1    3    3  501    0 -0.60532567191E+02 -0.14989720535E+02 -0.10040065342E+03  0.11820142605E+03  0.15500000000E+01 0.  1.
         -4    1    3    3    0  501  0.60532567191E+02  0.14989720535E+02 -0.11575307805E+03  0.13149167651E+03  0.15500000000E+01 0.  1.
<mgrwt>
<rscale>  2 0.12499684E+03</rscale>
<asrwt>0</asrwt>
<pdfrwt beam="1">  1       21 0.25799518E-02 0.12499684E+03</pdfrwt>
<pdfrwt beam="2">  1       21 0.35834369E-01 0.12499684E+03</pdfrwt>
<totfact> 0.59911870E+06</totfact>
</mgrwt>
</event>
<event>
 5    0  0.1516364E+000  0.1250023E+03  0.7546771E-02  0.1235066E+00
         21   -1    0    0  503  502  0.00000000000E+00  0.00000000000E+00  0.26703700835E+02  0.26703700835E+02  0.00000000000E+00 0.  1.
         21   -1    0    0  502  503 -0.00000000000E+00 -0.00000000000E+00 -0.14628657633E+03  0.14628657633E+03  0.00000000000E+00 0.  1.
         25    2    1    2    0    0  0.00000000000E+00  0.00000000000E+00 -0.11958287549E+03  0.17299027716E+03  0.12500228751E+03 0.  0.
          4    1    3    3  501    0 -0.43387655162E+02  0.23156041048E+02 -0.11312624966E+03  0.12336385905E+03  0.15500000000E+01 0.  1.
         -4    1    3    3    0  501  0.43387655162E+02 -0.23156041048E+02 -0.64566258310E+01  0.49626418112E+02  0.15500000000E+01 0.  1.
<mgrwt>
<rscale>  2 0.12500229E+03</rscale>
<asrwt>0</asrwt>
<pdfrwt beam="1">  1       21 0.41082617E-02 0.12500229E+03</pdfrwt>
<pdfrwt beam="2">  1       21 0.22505627E-01 0.12500229E+03</pdfrwt>
<totfact> 0.67960966E+06</totfact>
</mgrwt>
</event>
<event>
 5    0  0.1447818E+000  0.1250022E+03  0.7546771E-02  0.1235066E+00
         21   -1    0    0  503  502  0.00000000000E+00  0.00000000000E+00  0.93950398935E+01  0.93950398935E+01  0.00000000000E+00 0. -1.
         21   -1    0    0  502  503 -0.00000000000E+00 -0.00000000000E+00 -0.41579227080E+03  0.41579227080E+03  0.00000000000E+00 0. -1.
         25    2    1    2    0    0  0.00000000000E+00  0.00000000000E+00 -0.40639723091E+03  0.42518731070E+03  0.12500215953E+03 0.  0.
          4    1    3    3  501    0 -0.79479755334E+01 -0.61289326721E+02 -0.17194410633E+03  0.18272036035E+03  0.15500000000E+01 0. -1.
         -4    1    3    3    0  501  0.79479755334E+01  0.61289326721E+02 -0.23445312458E+03  0.24246695034E+03  0.15500000000E+01 0. -1.
<mgrwt>
<rscale>  2 0.12500216E+03</rscale>
<asrwt>0</asrwt>
<pdfrwt beam="1">  1       21 0.14453905E-02 0.12500216E+03</pdfrwt>
<pdfrwt beam="2">  1       21 0.63968052E-01 0.12500216E+03</pdfrwt>
<totfact> 0.46411869E+06</totfact>
</mgrwt>
</event>
<event>
 5    0  0.1222151E+000  0.1250815E+03  0.7546771E-02  0.1234942E+00
         21   -1    0    0  503  502  0.00000000000E+00  0.00000000000E+00  0.52024793895E+01  0.52024793895E+01  0.00000000000E+00 0.  1.
         21   -1    0    0  502  503 -0.00000000000E+00 -0.00000000000E+00 -0.75182320490E+03  0.75182320490E+03  0.00000000000E+00 0.  1.
         25    2    1    2    0    0  0.00000000000E+00  0.00000000000E+00 -0.74662072551E+03  0.75702568429E+03  0.12508148909E+03 0.  0.
          4    1    3    3  501    0  0.37164171340E+02 -0.73380375376E+01 -0.72279945902E+02  0.81619945515E+02  0.15500000000E+01 0. -1.
         -4    1    3    3    0  501 -0.37164171340E+02  0.73380375376E+01 -0.67434077961E+03  0.67540573878E+03  0.15500000000E+01 0. -1.
<mgrwt>
<rscale>  2 0.12508149E+03</rscale>
<asrwt>0</asrwt>
<pdfrwt beam="1">  1       21 0.80038143E-03 0.12508149E+03</pdfrwt>
<pdfrwt beam="2">  1       21 0.11566511E+00 0.12508149E+03</pdfrwt>
<totfact> 0.30761137E+06</totfact>
</mgrwt>
</event>
<event>
 5    0  0.1508550E+000  0.1250090E+03  0.7546771E-02  0.1235055E+00
         21   -1    0    0  503  502  0.00000000000E+00  0.00000000000E+00  0.60840436805E+02  0.60840436805E+02  0.00000000000E+00 0.  1.
         21   -1    0    0  502  503 -0.00000000000E+00 -0.00000000000E+00 -0.64214101122E+02  0.64214101122E+02  0.00000000000E+00 0.  1.
         25    2    1    2    0    0  0.00000000000E+00  0.00000000000E+00 -0.33736643167E+01  0.12505453793E+03  0.12500902305E+03 0.  0.
          4    1    3    3  501    0 -0.37482324905E+02 -0.48966911975E+02 -0.11776549854E+02  0.62799464768E+02  0.15500000000E+01 0.  1.
         -4    1    3    3    0  501  0.37482324905E+02  0.48966911975E+02  0.84028855373E+01  0.62255073159E+02  0.15500000000E+01 0.  1.
<mgrwt>
<rscale>  2 0.12500902E+03</rscale>
<asrwt>0</asrwt>
<pdfrwt beam="1">  1       21 0.93600672E-02 0.12500902E+03</pdfrwt>
<pdfrwt beam="2">  1       21 0.98790925E-02 0.12500902E+03</pdfrwt>
<totfact> 0.74019138E+06</totfact>
</mgrwt>
</event>
<event>
 4    0  0.1222151E+000  0.1264475E+03  0.7546771E-02  0.1232824E+00
         21   -1    0    0  503  502  0.00000000000E+00  0.00000000000E+00  0.10654930369E+04  0.10654930369E+04  0.00000000000E+00 0.  1.
         21   -1    0    0  502  503 -0.00000000000E+00 -0.00000000000E+00 -0.37515406557E+01  0.37515406557E+01  0.00000000000E+00 0.  1.
          4    1    1    2  501    0  0.58224781946E+02 -0.21198890689E+02  0.42548539339E+03  0.42997644201E+03  0.15500000000E+01 0. -1.
         -4    1    1    2    0  501 -0.58224781946E+02  0.21198890689E+02  0.63625610284E+03  0.63926813553E+03  0.15500000000E+01 0. -1.
<mgrwt>
<rscale>  2 0.12644747E+03</rscale>
<asrwt>0</asrwt>
<pdfrwt beam="1">  1       21 0.16392177E+00 0.12644747E+03</pdfrwt>
<pdfrwt beam="2">  1       21 0.57716095E-03 0.12644747E+03</pdfrwt>
<totfact> 0.21180117E+06</totfact>
</mgrwt>
</event>
<event>
 5    0  0.1336985E+000  0.1249867E+03  0.7546771E-02  0.1235090E+00
         21   -1    0    0  503  502  0.00000000000E+00  0.00000000000E+00  0.49239219979E+03  0.49239219979E+03  0.00000000000E+00 0. -1.
         21   -1    0    0  502  503 -0.00000000000E+00 -0.00000000000E+00 -0.79315181591E+01  0.79315181591E+01  0.00000000000E+00 0. -1.
         25    2    1    2    0    0  0.00000000000E+00  0.00000000000E+00  0.48446068163E+03  0.50032371795E+03  0.12498668208E+03 0.  0.
          4    1    3    3  501    0 -0.52707433124E+02 -0.22491798594E+02  0.14263157514E+03  0.15372092647E+03  0.15500000000E+01 0. -1.
         -4    1    3    3    0  501  0.52707433124E+02  0.22491798594E+02  0.34182910649E+03  0.34660279147E+03  0.15500000000E+01 0. -1.
<mgrwt>
<rscale>  2 0.12498668E+03</rscale>
<asrwt>0</asrwt>
<pdfrwt beam="1">  1       21 0.75752622E-01 0.12498668E+03</pdfrwt>
<pdfrwt beam="2">  1       21 0.12202340E-02 0.12498668E+03</pdfrwt>
<totfact> 0.42040468E+06</totfact>
</mgrwt>
</event>
<event>
 5    0  0.1387089E+000  0.1250020E+03  0.7546771E-02  0.1235066E+00
         21   -1    0    0  503  502  0.00000000000E+00  0.00000000000E+00  0.13383055619E+02  0.13383055619E+02  0.00000000000E+00 0. -1.
         21   -1    0    0  502  503 -0.00000000000E+00 -0.00000000000E+00 -0.29188978411E+03  0.29188978411E+03  0.00000000000E+00 0. -1.
         25    2    1    2    0    0  0.00000000000E+00  0.00000000000E+00 -0.27850672850E+03  0.30527283973E+03  0.12500203543E+03 0.  0.
          4    1    3    3  501    0  0.38591075565E+02 -0.14947231621E+02 -0.24933841499E+02  0.48340353725E+02  0.15500000000E+01 0. -1.
         -4    1    3    3    0  501 -0.38591075565E+02  0.14947231621E+02 -0.25357288700E+03  0.25693248601E+03  0.15500000000E+01 0. -1.
<mgrwt>
<rscale>  2 0.12500204E+03</rscale>
<asrwt>0</asrwt>
<pdfrwt beam="1">  1       21 0.20589319E-02 0.12500204E+03</pdfrwt>
<pdfrwt beam="2">  1       21 0.44906115E-01 0.12500204E+03</pdfrwt>
<totfact> 0.55017997E+06</totfact>
</mgrwt>
</event>
<event>
 5    0  0.1594860E+000  0.1249935E+03  0.7546771E-02  0.1235079E+00
         21   -1    0    0  503  502  0.00000000000E+00  0.00000000000E+00  0.99163538524E+02  0.99163538524E+02  0.00000000000E+00 0.  1.
         21   -1    0    0  502  503 -0.00000000000E+00 -0.00000000000E+00 -0.39387884359E+02  0.39387884359E+02  0.00000000000E+00 0.  1.
         25    2    1    2    0    0  0.00000000000E+00  0.00000000000E+00  0.59775654165E+02  0.13855142288E+03  0.12499347164E+03 0.  0.
          4    1    3    3  501    0 -0.61194654468E+02  0.11737290872E+02  0.34954120503E+02  0.71461477542E+02  0.15500000000E+01 0.  1.
         -4    1    3    3    0  501  0.61194654468E+02 -0.11737290872E+02  0.24821533662E+02  0.67089945340E+02  0.15500000000E+01 0.  1.
<mgrwt>
<rscale>  2 0.12499347E+03</rscale>
<asrwt>0</asrwt>
<pdfrwt beam="1">  1       21 0.15255929E-01 0.12499347E+03</pdfrwt>
<pdfrwt beam="2">  1       21 0.60596745E-02 0.12499347E+03</pdfrwt>
<totfact> 0.72241001E+06</totfact>
</mgrwt>
</event>
<event>
 5    0  0.1505152E+000  0.1249886E+03  0.7546771E-02  0.1235087E+00
         21   -1    0    0  503  502  0.00000000000E+00  0.00000000000E+00  0.20897657745E+02  0.20897657745E+02  0.00000000000E+00 0.  1.
         21   -1    0    0  502  503 -0.00000000000E+00 -0.00000000000E+00 -0.18688870150E+03  0.18688870150E+03  0.00000000000E+00 0.  1.
         25    2    1    2    0    0  0.00000000000E+00  0.00000000000E+00 -0.16599104376E+03  0.20778635925E+03  0.12498857740E+03 0.  0.
          4    1    3    3  501    0  0.14274801127E+02 -0.33771755047E+02  0.10989824473E+01  0.36713916279E+02  0.15500000000E+01 0. -1.
         -4    1    3    3    0  501 -0.14274801127E+02  0.33771755047E+02 -0.16709002620E+03  0.17107244297E+03  0.15500000000E+01 0. -1.
<mgrwt>
<rscale>  2 0.12498858E+03</rscale>
<asrwt>0</asrwt>
<pdfrwt beam="1">  1       21 0.32150243E-02 0.12498858E+03</pdfrwt>
<pdfrwt beam="2">  1       21 0.28752107E-01 0.12498858E+03</pdfrwt>
<totfact> 0.64111717E+06</totfact>
</mgrwt>
</event>
<event>
 5    0  0.1410282E+000  0.1250013E+03  0.7546771E-02  0.1235067E+00
         21   -1    0    0  503  502  0.00000000000E+00  0.00000000000E+00  0.87424876729E+01  0.87424876729E+01  0.00000000000E+00 0.  1.
         21   -1    0    0  502  503 -0.00000000000E+00 -0.00000000000E+00 -0.44682130842E+03  0.44682130842E+03  0.00000000000E+00 0.  1.
         25    2    1    2    0    0  0.00000000000E+00  0.00000000000E+00 -0.43807882074E+03  0.45556379609E+03  0.12500127649E+03 0.  0.
          4    1    3    3  501    0 -0.49281227636E+02 -0.35084182897E+02 -0.27601314500E+03  0.28256892610E+03  0.15500000000E+01 0.  1.
         -4    1    3    3    0  501  0.49281227636E+02  0.35084182897E+02 -0.16206567574E+03  0.17299486998E+03  0.15500000000E+01 0.  1.
<mgrwt>
<rscale>  2 0.12500128E+03</rscale>
<asrwt>0</asrwt>
<pdfrwt beam="1">  1       21 0.13449976E-02 0.12500128E+03</pdfrwt>
<pdfrwt beam="2">  1       21 0.68741765E-01 0.12500128E+03</pdfrwt>
<totfact> 0.44559777E+06</totfact>
</mgrwt>
</event>
<event>
 5    0  0.1222151E+000  0.1250012E+03  0.7546771E-02  0.1235067E+00
         21   -1    0    0  503  502  0.00000000000E+00  0.00000000000E+00  0.20926329038E+01  0.20926329038E+01  0.00000000000E+00 0. -1.
         21   -1    0    0  502  503 -0.00000000000E+00 -0.00000000000E+00 -0.18667041370E+04  0.18667041370E+04  0.00000000000E+00 0. -1.
         25    2    1    2    0    0  0.00000000000E+00  0.00000000000E+00 -0.18646115041E+04  0.18687967699E+04  0.12500122397E+03 0.  0.
          4    1    3    3  501    0 -0.33960862463E+02 -0.47475308969E+02 -0.59912059483E+03  0.60195941291E+03  0.15500000000E+01 0. -1.
         -4    1    3    3    0  501  0.33960862463E+02  0.47475308969E+02 -0.12654909092E+04  0.12668373570E+04  0.15500000000E+01 0. -1.
<mgrwt>
<rscale>  2 0.12500122E+03</rscale>
<asrwt>0</asrwt>
<pdfrwt beam="1">  1       21 0.32194351E-03 0.12500122E+03</pdfrwt>
<pdfrwt beam="2">  1       21 0.28718526E+00 0.12500122E+03</pdfrwt>
<totfact> 0.92998955E+05</totfact>
</mgrwt>
</event>
<event>
 5    0  0.1354565E+000  0.1249981E+03  0.7546771E-02  0.1235072E+00
         21   -1    0    0  503  502  0.00000000000E+00  0.00000000000E+00  0.71581107215E+01  0.71581107215E+01  0.00000000000E+00 0.  1.
         21   -1    0    0  502  503 -0.00000000000E+00 -0.00000000000E+00 -0.54569317707E+03  0.54569317707E+03  0.00000000000E+00 0.  1.
         25    2    1    2    0    0  0.00000000000E+00  0.00000000000E+00 -0.53853506635E+03  0.55285128779E+03  0.12499811489E+03 0.  0.
          4    1    3    3  501    0 -0.61840233006E+02 -0.77126809205E+01 -0.24947308751E+03  0.25714378032E+03  0.15500000000E+01 0. -1.
         -4    1    3    3    0  501  0.61840233006E+02  0.77126809205E+01 -0.28906197884E+03  0.29570750747E+03  0.15500000000E+01 0. -1.
<mgrwt>
<rscale>  2 0.12499811E+03</rscale>
<asrwt>0</asrwt>
<pdfrwt beam="1">  1       21 0.11012475E-02 0.12499811E+03</pdfrwt>
<pdfrwt beam="2">  1       21 0.83952817E-01 0.12499811E+03</pdfrwt>
<totfact> 0.39317390E+06</totfact>
</mgrwt>
</event>
<event>
 5    0  0.1488134E+000  0.1250013E+03  0.7546771E-02  0.1235067E+00
         21   -1    0    0  503  502  0.00000000000E+00  0.00000000000E+00  0.24421338981E+03  0.24421338981E+03  0.00000000000E+00 0. -1.
         21   -1    0    0  502  503 -0.00000000000E+00 -0.00000000000E+00 -0.15995556647E+02  0.15995556647E+02  0.00000000000E+00 0. -1.
         25    2    1    2    0    0  0.00000000000E+00  0.00000000000E+00  0.22821783316E+03  0.26020894646E+03  0.12500126577E+03 0.  0.
          4    1    3    3  501    0 -0.35854260060E+02  0.31599186366E+02  0.19789088985E+03  0.20358596054E+03  0.15500000000E+01 0. -1.
         -4    1    3    3    0  501  0.35854260060E+02 -0.31599186366E+02  0.30326943312E+02  0.56622985916E+02  0.15500000000E+01 0. -1.
<mgrwt>
<rscale>  2 0.12500127E+03</rscale>
<asrwt>0</asrwt>
<pdfrwt beam="1">  1       21 0.37571288E-01 0.12500127E+03</pdfrwt>
<pdfrwt beam="2">  1       21 0.24608550E-02 0.12500127E+03</pdfrwt>
<totfact> 0.58928248E+06</totfact>
</mgrwt>
</event>
<event>
 5    0  0.1356569E+000  0.1250035E+03  0.7546771E-02  0.1235064E+00
         21   -1    0    0  503  502  0.00000000000E+00  0.00000000000E+00  0.11060841687E+02  0.11060841687E+02  0.00000000000E+00 0. -1.
         21   -1    0    0  502  503 -0.00000000000E+00 -0.00000000000E+00 -0.35318017728E+03  0.35318017728E+03  0.00000000000E+00 0. -1.
         25    2    1    2    0    0  0.00000000000E+00  0.00000000000E+00 -0.34211933559E+03  0.36424101896E+03  0.12500352039E+03 0.  0.
          4    1    3    3  501    0  0.49527264229E+02  0.41950007016E+01 -0.28138326784E+03  0.28574375558E+03  0.15500000000E+01 0. -1.
         -4    1    3    3    0  501 -0.49527264229E+02 -0.41950007016E+01 -0.60736067750E+02  0.78497263383E+02  0.15500000000E+01 0. -1.
<mgrwt>
<rscale>  2 0.12500352E+03</rscale>
<asrwt>0</asrwt>
<pdfrwt beam="1">  1       21 0.17016681E-02 0.12500352E+03</pdfrwt>
<pdfrwt beam="2">  1       21 0.54335408E-01 0.12500352E+03</pdfrwt>
<totfact> 0.50499135E+06</totfact>
</mgrwt>
</event>
<event>
 5    0  0.1222151E+000  0.1250001E+03  0.7546771E-02  0.1235069E+00
         21   -1    0    0  503  502  0.00000000000E+00  0.00000000000E+00  0.10804191685E+04  0.10804191685E+04  0.00000000000E+00 0.  1.
         21   -1    0    0  502  503 -0.00000000000E+00 -0.00000000000E+00 -0.36154988104E+01  0.36154988104E+01  0.00000000000E+00 0.  1.
         25    2    1    2    0    0  0.00000000000E+00  0.00000000000E+00  0.10768036697E+04  0.10840346673E+04  0.12500006750E+03 0.  0.
          4    1    3    3  501    0 -0.12575882961E+02  0.45208128106E+02  0.18063258535E+03  0.18663456558E+03  0.15500000000E+01 0. -1.
         -4    1    3    3    0  501  0.12575882961E+02 -0.45208128106E+02  0.89617108435E+03  0.89740010174E+03  0.15500000000E+01 0. -1.
<mgrwt>
<rscale>  2 0.12500007E+03</rscale>
<asrwt>0</asrwt>
<pdfrwt beam="1">  1       21 0.16621808E+00 0.12500007E+03</pdfrwt>
<pdfrwt beam="2">  1       21 0.55623145E-03 0.12500007E+03</pdfrwt>
<totfact> 0.21610011E+06</totfact>
</mgrwt>
</event>
<event>
 5    0  0.1431635E+000  0.1250054E+03  0.7546771E-02  0.1235061E+00
         21   -1    0    0  503  502  0.00000000000E+00  0.00000000000E+00  0.17530018021E+03  0.17530018021E+03  0.00000000000E+00 0.  1.
         21   -1    0    0  502  503 -0.00000000000E+00 -0.00000000000E+00 -0.22285124752E+02  0.22285124752E+02  0.00000000000E+00 0.  1.
         25    2    1    2    0    0  0.00000000000E+00  0.00000000000E+00  0.15301505546E+03  0.19758530496E+03  0.12500538204E+03 0.  0.
          4    1    3    3  501    0 -0.27551799517E+02  0.73596162859E+01 -0.11368353081E+02  0.30739348729E+02  0.15500000000E+01 0. -1.
         -4    1    3    3    0  501  0.27551799517E+02 -0.73596162859E+01  0.16438340854E+03  0.16684595624E+03  0.15500000000E+01 0. -1.
<mgrwt>
<rscale>  2 0.12500538E+03</rscale>
<asrwt>0</asrwt>
<pdfrwt beam="1">  1       21 0.26969258E-01 0.12500538E+03</pdfrwt>
<pdfrwt beam="2">  1       21 0.34284809E-02 0.12500538E+03</pdfrwt>
<totfact> 0.65180290E+06</totfact>
</mgrwt>
</event>
<event>
 5    0  0.1401446E+000  0.1250047E+03  0.7546771E-02  0.1235062E+00
         21   -1    0    0  503  502  0.00000000000E+00  0.00000000000E+00  0.17119939127E+03  0.17119939127E+03  0.00000000000E+00 0. -1.
         21   -1    0    0  502  503 -0.00000000000E+00 -0.00000000000E+00 -0.22818675843E+02  0.22818675843E+02  0.00000000000E+00 0. -1.
         25    2    1    2    0    0  0.00000000000E+00  0.00000000000E+00  0.14838071543E+03  0.19401806712E+03  0.12500469454E+03 0.  0.
          4    1    3    3  501    0 -0.23726704115E+02 -0.13671203304E+02  0.16136017836E+03  0.16367457942E+03  0.15500000000E+01 0. -1.
         -4    1    3    3    0  501  0.23726704115E+02  0.13671203304E+02 -0.12979462927E+02  0.30343487700E+02  0.15500000000E+01 0. -1.
<mgrwt>
<rscale>  2 0.12500469E+03</rscale>
<asrwt>0</asrwt>
<pdfrwt beam="1">  1       21 0.26338367E-01 0.12500469E+03</pdfrwt>
<pdfrwt beam="2">  1       21 0.35105656E-02 0.12500469E+03</pdfrwt>
<totfact> 0.65570854E+06</totfact>
</mgrwt>
</event>
<event>
 5    0  0.1589322E+000  0.1250022E+03  0.7546771E-02  0.1235066E+00
         21   -1    0    0  503  502  0.00000000000E+00  0.00000000000E+00  0.63687735068E+02  0.63687735068E+02  0.00000000000E+00 0.  1.
         21   -1    0    0  502  503 -0.00000000000E+00 -0.00000000000E+00 -0.61336599196E+02  0.61336599196E+02  0.00000000000E+00 0.  1.
         25    2    1    2    0    0  0.00000000000E+00  0.00000000000E+00  0.23511358721E+01  0.12502433426E+03  0.12500222525E+03 0.  0.
          4    1    3    3  501    0  0.25727181885E+02  0.53448069046E+02  0.20810713735E+02  0.62881414414E+02  0.15500000000E+01 0. -1.
         -4    1    3    3    0  501 -0.25727181885E+02 -0.53448069046E+02 -0.18459577863E+02  0.62142919850E+02  0.15500000000E+01 0. -1.
<mgrwt>
<rscale>  2 0.12500223E+03</rscale>
<asrwt>0</asrwt>
<pdfrwt beam="1">  1       21 0.97981130E-02 0.12500223E+03</pdfrwt>
<pdfrwt beam="2">  1       21 0.94363999E-02 0.12500223E+03</pdfrwt>
<totfact> 0.74036082E+06</totfact>
</mgrwt>
</event>
<event>
 5    0  0.1222151E+000  0.1250023E+03  0.7546771E-02  0.1235066E+00
         21   -1    0    0  503  502  0.00000000000E+00  0.00000000000E+00  0.48491877030E+01  0.48491877030E+01  0.00000000000E+00 0. -1.
         21   -1    0    0  502  503 -0.00000000000E+00 -0.00000000000E+00 -0.80557748791E+03  0.80557748791E+03  0.00000000000E+00 0. -1.
         25    2    1    2    0    0  0.00000000000E+00  0.00000000000E+00 -0.80072830021E+03  0.81042667561E+03  0.12500234315E+03 0.  0.
          4    1    3    3  501    0 -0.47046978354E+02 -0.24538013798E+02 -0.61425989285E+03  0.61654939036E+03  0.15500000000E+01 0. -1.
         -4    1    3    3    0  501  0.47046978354E+02  0.24538013798E+02 -0.18646840736E+03  0.19387728525E+03  0.15500000000E+01 0. -1.
<mgrwt>
<rscale>  2 0.12500234E+03</rscale>
<asrwt>0</asrwt>
<pdfrwt beam="1">  1       21 0.74602896E-03 0.12500234E+03</pdfrwt>
<pdfrwt beam="2">  1       21 0.12393498E+00 0.12500234E+03</pdfrwt>
<totfact> 0.29018571E+06</totfact>
</mgrwt>
</event>
<event>
 5    0  0.1239612E+000  0.1250040E+03  0.7546771E-02  0.1235063E+00
         21   -1    0    0  503  502  0.00000000000E+00  0.00000000000E+00  0.57216673214E+01  0.57216673214E+01  0.00000000000E+00 0.  1.
         21   -1    0    0  502  503 -0.00000000000E+00 -0.00000000000E+00 -0.68275536784E+03  0.68275536784E+03  0.00000000000E+00 0.  1.
         25    2    1    2    0    0  0.00000000000E+00  0.00000000000E+00 -0.67703370052E+03  0.68847703516E+03  0.12500398516E+03 0.  0.
          4    1    3    3  501    0  0.34259026708E+02  0.28182141329E+02 -0.96169233305E+02  0.10591901593E+03  0.15500000000E+01 0.  1.
         -4    1    3    3    0  501 -0.34259026708E+02 -0.28182141329E+02 -0.58086446721E+03  0.58255801923E+03  0.15500000000E+01 0.  1.
<mgrwt>
<rscale>  2 0.12500399E+03</rscale>
<asrwt>0</asrwt>
<pdfrwt beam="1">  1       21 0.88025645E-03 0.12500399E+03</pdfrwt>
<pdfrwt beam="2">  1       21 0.10503929E+00 0.12500399E+03</pdfrwt>
<totfact> 0.33355846E+06</totfact>
</mgrwt>
</event>
<event>
 5    0  0.1574652E+000  0.1249960E+03  0.7546771E-02  0.1235075E+00
         21   -1    0    0  503  502  0.00000000000E+00  0.00000000000E+00  0.81177698086E+02  0.81177698086E+02  0.00000000000E+00 0. -1.
         21   -1    0    0  502  503 -0.00000000000E+00 -0.00000000000E+00 -0.48116698623E+02  0.48116698623E+02  0.00000000000E+00 0. -1.
         25    2    1    2    0    0  0.00000000000E+00  0.00000000000E+00  0.33060999462E+02  0.12929439671E+03  0.12499604528E+03 0.  0.
          4    1    3    3  501    0 -0.29114945233E+02 -0.53512230400E+02  0.21841139918E+01  0.60978780671E+02  0.15500000000E+01 0. -1.
         -4    1    3    3    0  501  0.29114945233E+02  0.53512230400E+02  0.30876885470E+02  0.68315616038E+02  0.15500000000E+01 0. -1.
<mgrwt>
<rscale>  2 0.12499605E+03</rscale>
<asrwt>0</asrwt>
<pdfrwt beam="1">  1       21 0.12488877E-01 0.12499605E+03</pdfrwt>
<pdfrwt beam="2">  1       21 0.74025690E-02 0.12499605E+03</pdfrwt>
<totfact> 0.73466791E+06</totfact>
</mgrwt>
</event>
<event>
 5    0  0.1544278E+000  0.1250130E+03  0.7546771E-02  0.1235049E+00
         21   -1    0    0  503  502  0.00000000000E+00  0.00000000000E+00  0.68937980330E+02  0.68937980330E+02  0.00000000000E+00 0. -1.
         21   -1    0    0  502  503 -0.00000000000E+00 -0.00000000000E+00 -0.56675031384E+02  0.56675031384E+02  0.00000000000E+00 0. -1.
         25    2    1    2    0    0  0.00000000000E+00  0.00000000000E+00  0.12262948946E+02  0.12561301171E+03  0.12501299451E+03 0.  0.
          4    1    3    3  501    0 -0.32577627229E+02 -0.53229350711E+02  0.29549524068E+01  0.62496398430E+02  0.15500000000E+01 0. -1.
         -4    1    3    3    0  501  0.32577627229E+02  0.53229350711E+02  0.93079965392E+01  0.63116613285E+02  0.15500000000E+01 0. -1.
<mgrwt>
<rscale>  2 0.12501299E+03</rscale>
<asrwt>0</asrwt>
<pdfrwt beam="1">  1       21 0.10605843E-01 0.12501299E+03</pdfrwt>
<pdfrwt beam="2">  1       21 0.87192356E-02 0.12501299E+03</pdfrwt>
<totfact> 0.73935131E+06</totfact>
</mgrwt>
</event>
<event>
 5    0  0.1250966E+000  0.1250011E+03  0.7546771E-02  0.1235067E+00
         21   -1    0    0  503  502  0.00000000000E+00  0.00000000000E+00  0.56571642876E+03  0.56571642876E+03  0.00000000000E+00 0.  1.
         21   -1    0    0  502  503 -0.00000000000E+00 -0.00000000000E+00 -0.69050872537E+01  0.69050872537E+01  0.00000000000E+00 0.  1.
         25    2    1    2    0    0  0.00000000000E+00  0.00000000000E+00  0.55881134150E+03  0.57262151601E+03  0.12500114082E+03 0.  0.
          4    1    3    3  501    0  0.23820763244E+02 -0.34078891614E+02  0.65759449714E+02  0.77817140412E+02  0.15500000000E+01 0. -1.
         -4    1    3    3    0  501 -0.23820763244E+02  0.34078891614E+02  0.49305189179E+03  0.49480437560E+03  0.15500000000E+01 0. -1.
<mgrwt>
<rscale>  2 0.12500114E+03</rscale>
<asrwt>0</asrwt>
<pdfrwt beam="1">  1       21 0.87033260E-01 0.12500114E+03</pdfrwt>
<pdfrwt beam="2">  1       21 0.10623216E-02 0.12500114E+03</pdfrwt>
<totfact> 0.38359724E+06</totfact>
</mgrwt>
</event>
<event>
 5    0  0.1556692E+000  0.1249994E+03  0.7546771E-02  0.1235070E+00
         21   -1    0    0  503  502  0.00000000000E+00  0.00000000000E+00  0.13586480502E+03  0.13586480502E+03  0.00000000000E+00 0.  1.
         21   -1    0    0  502  503 -0.00000000000E+00 -0.00000000000E+00 -0.28750737092E+02  0.28750737092E+02  0.00000000000E+00 0.  1.
         25    2    1    2    0    0  0.00000000000E+00  0.00000000000E+00  0.10711406793E+03  0.16461554211E+03  0.12499941263E+03 0.  0.
          4    1    3    3  501    0  0.52427008329E+02 -0.19725026247E+02  0.17105336055E+02  0.58588931414E+02  0.15500000000E+01 0. -1.
         -4    1    3    3    0  501 -0.52427008329E+02  0.19725026247E+02  0.90008731874E+02  0.10602661070E+03  0.15500000000E+01 0. -1.
<mgrwt>
<rscale>  2 0.12499941E+03</rscale>
<asrwt>0</asrwt>
<pdfrwt beam="1">  1       21 0.20902277E-01 0.12499941E+03</pdfrwt>
<pdfrwt beam="2">  1       21 0.44231904E-02 0.12499941E+03</pdfrwt>
<totfact> 0.68960908E+06</totfact>
</mgrwt>
</event>
<event>
 5    0  0.1532339E+000  0.1250167E+03  0.7546771E-02  0.1235043E+00
         21   -1    0    0  503  502  0.00000000000E+00  0.00000000000E+00  0.23858177037E+03  0.23858177037E+03  0.00000000000E+00 0. -1.
         21   -1    0    0  502  503 -0.00000000000E+00 -0.00000000000E+00 -0.16377155357E+02  0.16377155357E+02  0.00000000000E+00 0. -1.
         25    2    1    2    0    0  0.00000000000E+00  0.00000000000E+00  0.22220461502E+03  0.25495892573E+03  0.12501665039E+03 0.  0.
          4    1    3    3  501    0 -0.60036109275E+02 -0.16956270337E+02  0.10373821091E+03  0.12106142418E+03  0.15500000000E+01 0.  1.
         -4    1    3    3    0  501  0.60036109275E+02  0.16956270337E+02  0.11846640410E+03  0.13389750155E+03  0.15500000000E+01 0.  1.
<mgrwt>
<rscale>  2 0.12501665E+03</rscale>
<asrwt>0</asrwt>
<pdfrwt beam="1">  1       21 0.36704885E-01 0.12501665E+03</pdfrwt>
<pdfrwt beam="2">  1       21 0.25195625E-02 0.12501665E+03</pdfrwt>
<totfact> 0.59389509E+06</totfact>
</mgrwt>
</event>
<event>
 5    0  0.1222151E+000  0.1250003E+03  0.7546771E-02  0.1235069E+00
         21   -1    0    0  503  502  0.00000000000E+00  0.00000000000E+00  0.20365199399E+01  0.20365199399E+01  0.00000000000E+00 0. -1.
         21   -1    0    0  502  503 -0.00000000000E+00 -0.00000000000E+00 -0.19181086503E+04  0.19181086503E+04  0.00000000000E+00 0. -1.
         25    2    1    2    0    0  0.00000000000E+00  0.00000000000E+00 -0.19160721304E+04  0.19201451702E+04  0.12500026421E+03 0.  0.
          4    1    3    3  501    0  0.26456079523E+02  0.21080084582E+02 -0.17649808761E+04  0.17653056929E+04  0.15500000000E+01 0. -1.
         -4    1    3    3    0  501 -0.26456079523E+02 -0.21080084582E+02 -0.15109125429E+03  0.15483947731E+03  0.15500000000E+01 0. -1.
<mgrwt>
<rscale>  2 0.12500026E+03</rscale>
<asrwt>0</asrwt>
<pdfrwt beam="1">  1       21 0.31331269E-03 0.12500026E+03</pdfrwt>
<pdfrwt beam="2">  1       21 0.29509182E+00 0.12500026E+03</pdfrwt>
<totfact> 0.87532959E+05</totfact>
</mgrwt>
</event>
<event>
 5    0  0.1505040E+000  0.1249984E+03  0.7546771E-02  0.1235072E+00
         21   -1    0    0  503  502  0.00000000000E+00  0.00000000000E+00  0.10697006662E+02  0.10697006662E+02  0.00000000000E+00 0. -1.
         21   -1    0    0  502  503 -0.00000000000E+00 -0.00000000000E+00 -0.36516297008E+03  0.36516297008E+03  0.00000000000E+00 0. -1.
         25    2    1    2    0    0  0.00000000000E+00  0.00000000000E+00 -0.35446596342E+03  0.37585997674E+03  0.12499841157E+03 0.  0.
          4    1    3    3  501    0  0.47055454572E+01  0.62233282423E+02 -0.18606361159E+03  0.19625797730E+03  0.15500000000E+01 0. -1.
         -4    1    3    3    0  501 -0.47055454572E+01 -0.62233282423E+02 -0.16840235183E+03  0.17960199944E+03  0.15500000000E+01 0. -1.
<mgrwt>
<rscale>  2 0.12499841E+03</rscale>
<asrwt>0</asrwt>
<pdfrwt beam="1">  1       21 0.16456932E-02 0.12499841E+03</pdfrwt>
<pdfrwt beam="2">  1       21 0.56178922E-01 0.12499841E+03</pdfrwt>
<totfact> 0.49685462E+06</totfact>
</mgrwt>
</event>
<event>
 5    0  0.1475276E+000  0.1249901E+03  0.7546771E-02  0.1235085E+00
         21   -1    0    0  503  502  0.00000000000E+00  0.00000000000E+00  0.95553688609E+02  0.95553688609E+02  0.00000000000E+00 0. -1.
         21   -1    0    0  502  503 -0.00000000000E+00 -0.00000000000E+00 -0.40873683405E+02  0.40873683405E+02  0.00000000000E+00 0. -1.
         25    2    1    2    0    0  0.00000000000E+00  0.00000000000E+00  0.54680005204E+02  0.13642737201E+03  0.12499009907E+03 0.  0.
          4    1    3    3  501    0 -0.38065207657E+02  0.19915323351E+02 -0.22172115246E+02  0.48369260203E+02  0.15500000000E+01 0. -1.
         -4    1    3    3    0  501  0.38065207657E+02 -0.19915323351E+02  0.76852120450E+02  0.88058111811E+02  0.15500000000E+01 0. -1.
<mgrwt>
<rscale>  2 0.12499010E+03</rscale>
<asrwt>0</asrwt>
<pdfrwt beam="1">  1       21 0.14700567E-01 0.12499010E+03</pdfrwt>
<pdfrwt beam="2">  1       21 0.62882590E-02 0.12499010E+03</pdfrwt>
<totfact> 0.72526337E+06</totfact>
</mgrwt>
</event>
<event>
 5    0  0.1509247E+000  0.1249971E+03  0.7546771E-02  0.1235074E+00
         21   -1    0    0  503  502  0.00000000000E+00  0.00000000000E+00  0.85243236788E+02  0.85243236788E+02  0.00000000000E+00 0. -1.
         21   -1    0    0  502  503 -0.00000000000E+00 -0.00000000000E+00 -0.45822647842E+02  0.45822647842E+02  0.00000000000E+00 0. -1.
         25    2    1    2    0    0  0.00000000000E+00  0.00000000000E+00  0.39420588946E+02  0.13106588463E+03  0.12499713309E+03 0.  0.
          4    1    3    3  501    0 -0.13794359927E+02  0.30075018034E+02  0.75282289835E+02  0.82247290158E+02  0.15500000000E+01 0.  1.
         -4    1    3    3    0  501  0.13794359927E+02 -0.30075018034E+02 -0.35861700889E+02  0.48818594472E+02  0.15500000000E+01 0.  1.
<mgrwt>
<rscale>  2 0.12499713E+03</rscale>
<asrwt>0</asrwt>
<pdfrwt beam="1">  1       21 0.13114344E-01 0.12499713E+03</pdfrwt>
<pdfrwt beam="2">  1       21 0.70496381E-02 0.12499713E+03</pdfrwt>
<totfact> 0.73227150E+06</totfact>
</mgrwt>
</event>
<event>
 5    0  0.1554156E+000  0.1250032E+03  0.7546771E-02  0.1235064E+00
         21   -1    0    0  503  502  0.00000000000E+00  0.00000000000E+00  0.66961849108E+02  0.66961849108E+02  0.00000000000E+00 0. -1.
         21   -1    0    0  502  503 -0.00000000000E+00 -0.00000000000E+00 -0.58338465036E+02  0.58338465036E+02  0.00000000000E+00 0. -1.
         25    2    1    2    0    0  0.00000000000E+00  0.00000000000E+00  0.86233840713E+01  0.12530031414E+03  0.12500322385E+03 0.  0.
          4    1    3    3  501    0 -0.44838272054E+02  0.25138771800E+02  0.39915407004E+02  0.65100466240E+02  0.15500000000E+01 0.  1.
         -4    1    3    3    0  501  0.44838272054E+02 -0.25138771800E+02 -0.31292022932E+02  0.60199847904E+02  0.15500000000E+01 0.  1.
<mgrwt>
<rscale>  2 0.12500322E+03</rscale>
<asrwt>0</asrwt>
<pdfrwt beam="1">  1       21 0.10301823E-01 0.12500322E+03</pdfrwt>
<pdfrwt beam="2">  1       21 0.89751484E-02 0.12500322E+03</pdfrwt>
<totfact> 0.73996930E+06</totfact>
</mgrwt>
</event>
<event>
 5    0  0.1419878E+000  0.1249824E+03  0.7546771E-02  0.1235097E+00
         21   -1    0    0  503  502  0.00000000000E+00  0.00000000000E+00  0.10318794208E+02  0.10318794208E+02  0.00000000000E+00 0.  1.
         21   -1    0    0  502  503 -0.00000000000E+00 -0.00000000000E+00 -0.37845039655E+03  0.37845039655E+03  0.00000000000E+00 0.  1.
         25    2    1    2    0    0  0.00000000000E+00  0.00000000000E+00 -0.36813160234E+03  0.38876919076E+03  0.12498242693E+03 0.  0.
          4    1    3    3  501    0  0.10275301717E+02 -0.61599769711E+02 -0.18911589710E+03  0.19916660987E+03  0.15500000000E+01 0.  1.
         -4    1    3    3    0  501 -0.10275301717E+02  0.61599769711E+02 -0.17901570525E+03  0.18960258089E+03  0.15500000000E+01 0.  1.
<mgrwt>
<rscale>  2 0.12498243E+03</rscale>
<asrwt>0</asrwt>
<pdfrwt beam="1">  1       21 0.15875069E-02 0.12498243E+03</pdfrwt>
<pdfrwt beam="2">  1       21 0.58223133E-01 0.12498243E+03</pdfrwt>
<totfact> 0.48816759E+06</totfact>
</mgrwt>
</event>
<event>
 5    0  0.1487066E+000  0.1250023E+03  0.7546771E-02  0.1235066E+00
         21   -1    0    0  503  502  0.00000000000E+00  0.00000000000E+00  0.15632108728E+03  0.15632108728E+03  0.00000000000E+00 0. -1.
         21   -1    0    0  502  503 -0.00000000000E+00 -0.00000000000E+00 -0.24989567619E+02  0.24989567619E+02  0.00000000000E+00 0. -1.
         25    2    1    2    0    0  0.00000000000E+00  0.00000000000E+00  0.13133151966E+03  0.18131065490E+03  0.12500234207E+03 0.  0.
          4    1    3    3  501    0  0.48841204674E+02 -0.10204197637E+02  0.12021542151E+03  0.13016811818E+03  0.15500000000E+01 0.  1.
         -4    1    3    3    0  501 -0.48841204674E+02  0.10204197637E+02  0.11116098153E+02  0.51142536715E+02  0.15500000000E+01 0.  1.
<mgrwt>
<rscale>  2 0.12500234E+03</rscale>
<asrwt>0</asrwt>
<pdfrwt beam="1">  1       21 0.24049397E-01 0.12500234E+03</pdfrwt>
<pdfrwt beam="2">  1       21 0.38445490E-02 0.12500234E+03</pdfrwt>
<totfact> 0.66997520E+06</totfact>
</mgrwt>
</event>
<event>
 5    0  0.1361947E+000  0.1249959E+03  0.7546771E-02  0.1235076E+00
         21   -1    0    0  503  502  0.00000000000E+00  0.00000000000E+00  0.92791077486E+01  0.92791077486E+01  0.00000000000E+00 0. -1.
         21   -1    0    0  502  503 -0.00000000000E+00 -0.00000000000E+00 -0.42094503471E+03  0.42094503471E+03  0.00000000000E+00 0. -1.
         25    2    1    2    0    0  0.00000000000E+00  0.00000000000E+00 -0.41166592696E+03  0.43022414245E+03  0.12499590927E+03 0.  0.
          4    1    3    3  501    0  0.59606296008E+02  0.13562065432E+02 -0.25027910865E+03  0.25764098057E+03  0.15500000000E+01 0. -1.
         -4    1    3    3    0  501 -0.59606296008E+02 -0.13562065432E+02 -0.16138681831E+03  0.17258316188E+03  0.15500000000E+01 0. -1.
<mgrwt>
<rscale>  2 0.12499591E+03</rscale>
<asrwt>0</asrwt>
<pdfrwt beam="1">  1       21 0.14275548E-02 0.12499591E+03</pdfrwt>
<pdfrwt beam="2">  1       21 0.64760784E-01 0.12499591E+03</pdfrwt>
<totfact> 0.46103870E+06</totfact>
</mgrwt>
</event>
<event>
 5    0  0.1222151E+000  0.1250003E+03  0.7546771E-02  0.1235069E+00
         21   -1    0    0  503  502  0.00000000000E+00  0.00000000000E+00  0.35274406914E+01  0.35274406914E+01  0.00000000000E+00 0. -1.
         21   -1    0    0  502  503 -0.00000000000E+00 -0.00000000000E+00 -0.11073948096E+04  0.11073948096E+04  0.00000000000E+00 0. -1.
         25    2    1    2    0    0  0.00000000000E+00  0.00000000000E+00 -0.11038673689E+04  0.11109222503E+04  0.12500031220E+03 0.  0.
          4    1    3    3  501    0  0.20908833161E+02  0.21440493477E+02 -0.10392812178E+04  0.10397137713E+04  0.15500000000E+01 0. -1.
         -4    1    3    3    0  501 -0.20908833161E+02 -0.21440493477E+02 -0.64586151097E+02  0.71208478977E+02  0.15500000000E+01 0. -1.
<mgrwt>
<rscale>  2 0.12500031E+03</rscale>
<asrwt>0</asrwt>
<pdfrwt beam="1">  1       21 0.54268289E-03 0.12500031E+03</pdfrwt>
<pdfrwt beam="2">  1       21 0.17036853E+00 0.12500031E+03</pdfrwt>
<totfact> 0.21009949E+06</totfact>
</mgrwt>
</event>
<event>
 5    0  0.1493005E+000  0.1250027E+03  0.7546771E-02  0.1235065E+00
         21   -1    0    0  503  502  0.00000000000E+00  0.00000000000E+00  0.29465025381E+03  0.29465025381E+03  0.00000000000E+00 0.  1.
         21   -1    0    0  502  503 -0.00000000000E+00 -0.00000000000E+00 -0.13257809281E+02  0.13257809281E+02  0.00000000000E+00 0.  1.
         25    2    1    2    0    0  0.00000000000E+00  0.00000000000E+00  0.28139244453E+03  0.30790806309E+03  0.12500266989E+03 0.  0.
          4    1    3    3  501    0 -0.55151049616E+02 -0.26724968930E+02  0.17067788572E+03  0.18135381279E+03  0.15500000000E+01 0. -1.
         -4    1    3    3    0  501  0.55151049616E+02  0.26724968930E+02  0.11071455880E+03  0.12655425030E+03  0.15500000000E+01 0. -1.
<mgrwt>
<rscale>  2 0.12500267E+03</rscale>
<asrwt>0</asrwt>
<pdfrwt beam="1">  1       21 0.45330803E-01 0.12500267E+03</pdfrwt>
<pdfrwt beam="2">  1       21 0.20396632E-02 0.12500267E+03</pdfrwt>
<totfact> 0.54801647E+06</totfact>
</mgrwt>
</event>
<event>
 5    0  0.1558974E+000  0.1250041E+03  0.7546771E-02  0.1235063E+00
         21   -1    0    0  503  502  0.00000000000E+00  0.00000000000E+00  0.22094581248E+02  0.22094581248E+02  0.00000000000E+00 0.  1.
         21   -1    0    0  502  503 -0.00000000000E+00 -0.00000000000E+00 -0.17680834077E+03  0.17680834077E+03  0.00000000000E+00 0.  1.
         25    2    1    2    0    0  0.00000000000E+00  0.00000000000E+00 -0.15471375953E+03  0.19890292202E+03  0.12500409994E+03 0.  0.
          4    1    3    3  501    0  0.40487411157E+02 -0.47281383009E+02 -0.68737473125E+02  0.92746980290E+02  0.15500000000E+01 0. -1.
         -4    1    3    3    0  501 -0.40487411157E+02  0.47281383009E+02 -0.85976286402E+02  0.10615594173E+03  0.15500000000E+01 0. -1.
<mgrwt>
<rscale>  2 0.12500410E+03</rscale>
<asrwt>0</asrwt>
<pdfrwt beam="1">  1       21 0.33991662E-02 0.12500410E+03</pdfrwt>
<pdfrwt beam="2">  1       21 0.27201284E-01 0.12500410E+03</pdfrwt>
<totfact> 0.65039569E+06</totfact>
</mgrwt>
</event>
<event>
 5    0  0.1456223E+000  0.1250012E+03  0.7546771E-02  0.1235067E+00
         21   -1    0    0  503  502  0.00000000000E+00  0.00000000000E+00  0.25713642598E+03  0.25713642598E+03  0.00000000000E+00 0. -1.
         21   -1    0    0  502  503 -0.00000000000E+00 -0.00000000000E+00 -0.15191652858E+02  0.15191652858E+02  0.00000000000E+00 0. -1.
         25    2    1    2    0    0  0.00000000000E+00  0.00000000000E+00  0.24194477312E+03  0.27232807884E+03  0.12500123712E+03 0.  0.
          4    1    3    3  501    0  0.59576828973E+02 -0.17554816197E+02  0.10613952337E+03  0.12298606036E+03  0.15500000000E+01 0. -1.
         -4    1    3    3    0  501 -0.59576828973E+02  0.17554816197E+02  0.13580524976E+03  0.14934201848E+03  0.15500000000E+01 0. -1.
<mgrwt>
<rscale>  2 0.12500124E+03</rscale>
<asrwt>0</asrwt>
<pdfrwt beam="1">  1       21 0.39559447E-01 0.12500124E+03</pdfrwt>
<pdfrwt beam="2">  1       21 0.23371776E-02 0.12500124E+03</pdfrwt>
<totfact> 0.57835379E+06</totfact>
</mgrwt>
</event>
<event>
 5    0  0.1443800E+000  0.1250008E+03  0.7546771E-02  0.1235068E+00
         21   -1    0    0  503  502  0.00000000000E+00  0.00000000000E+00  0.46129885555E+02  0.46129885555E+02  0.00000000000E+00 0.  1.
         21   -1    0    0  502  503 -0.00000000000E+00 -0.00000000000E+00 -0.84680517417E+02  0.84680517417E+02  0.00000000000E+00 0.  1.
         25    2    1    2    0    0  0.00000000000E+00  0.00000000000E+00 -0.38550631863E+02  0.13081040297E+03  0.12500084123E+03 0.  0.
          4    1    3    3  501    0  0.29250561708E+02 -0.29950304559E+02 -0.67812907040E+02  0.79709528694E+02  0.15500000000E+01 0.  1.
         -4    1    3    3    0  501 -0.29250561708E+02  0.29950304559E+02  0.29262275177E+02  0.51100874278E+02  0.15500000000E+01 0.  1.
<mgrwt>
<rscale>  2 0.12500084E+03</rscale>
<asrwt>0</asrwt>
<pdfrwt beam="1">  1       21 0.70969056E-02 0.12500084E+03</pdfrwt>
<pdfrwt beam="2">  1       21 0.13027772E-01 0.12500084E+03</pdfrwt>
<totfact> 0.73254660E+06</totfact>
</mgrwt>
</event>
<event>
 5    0  0.1600066E+000  0.1250123E+03  0.7546771E-02  0.1235050E+00
         21   -1    0    0  503  502  0.00000000000E+00  0.00000000000E+00  0.10132058632E+03  0.10132058632E+03  0.00000000000E+00 0. -1.
         21   -1    0    0  502  503 -0.00000000000E+00 -0.00000000000E+00 -0.38560931870E+02  0.38560931870E+02  0.00000000000E+00 0. -1.
         25    2    1    2    0    0  0.00000000000E+00  0.00000000000E+00  0.62759654455E+02  0.13988151819E+03  0.12501225902E+03 0.  0.
          4    1    3    3  501    0 -0.38197662421E+02 -0.88865177748E+01  0.85813610905E+02  0.94363181004E+02  0.15500000000E+01 0.  1.
         -4    1    3    3    0  501  0.38197662421E+02  0.88865177748E+01 -0.23053956450E+02  0.45518337191E+02  0.15500000000E+01 0.  1.
<mgrwt>
<rscale>  2 0.12501226E+03</rscale>
<asrwt>0</asrwt>
<pdfrwt beam="1">  1       21 0.15587782E-01 0.12501226E+03</pdfrwt>
<pdfrwt beam="2">  1       21 0.59324511E-02 0.12501226E+03</pdfrwt>
<totfact> 0.72032279E+06</totfact>
</mgrwt>
</event>
<event>
 5    0  0.1264761E+000  0.1249962E+03  0.7546771E-02  0.1235075E+00
         21   -1    0    0  503  502  0.00000000000E+00  0.00000000000E+00  0.50625994297E+01  0.50625994297E+01  0.00000000000E+00 0. -1.
         21   -1    0    0  502  503 -0.00000000000E+00 -0.00000000000E+00 -0.77154280689E+03  0.77154280689E+03  0.00000000000E+00 0. -1.
         25    2    1    2    0    0  0.00000000000E+00  0.00000000000E+00 -0.76648020746E+03  0.77660540632E+03  0.12499619473E+03 0.  0.
          4    1    3    3  501    0 -0.63363432672E+01 -0.62061163854E+02 -0.36183229019E+03  0.36717399966E+03  0.15500000000E+01 0.  1.
         -4    1    3    3    0  501  0.63363432672E+01  0.62061163854E+02 -0.40464791727E+03  0.40943140666E+03  0.15500000000E+01 0.  1.
<mgrwt>
<rscale>  2 0.12499619E+03</rscale>
<asrwt>0</asrwt>
<pdfrwt beam="1">  1       21 0.77886136E-03 0.12499619E+03</pdfrwt>
<pdfrwt beam="2">  1       21 0.11869891E+00 0.12499619E+03</pdfrwt>
<totfact> 0.30155534E+06</totfact>
</mgrwt>
</event>
<event>
 5    0  0.1477431E+000  0.1249975E+03  0.7546771E-02  0.1235073E+00
         21   -1    0    0  503  502  0.00000000000E+00  0.00000000000E+00  0.17004938696E+02  0.17004938696E+02  0.00000000000E+00 0. -1.
         21   -1    0    0  502  503 -0.00000000000E+00 -0.00000000000E+00 -0.22970333898E+03  0.22970333898E+03  0.00000000000E+00 0. -1.
         25    2    1    2    0    0  0.00000000000E+00  0.00000000000E+00 -0.21269840028E+03  0.24670827767E+03  0.12499745913E+03 0.  0.
          4    1    3    3  501    0 -0.22633729928E+02  0.44822721352E+02 -0.17973091756E+03  0.18661984703E+03  0.15500000000E+01 0. -1.
         -4    1    3    3    0  501  0.22633729928E+02 -0.44822721352E+02 -0.32967482725E+02  0.60088430643E+02  0.15500000000E+01 0. -1.
<mgrwt>
<rscale>  2 0.12499746E+03</rscale>
<asrwt>0</asrwt>
<pdfrwt beam="1">  1       21 0.26161445E-02 0.12499746E+03</pdfrwt>
<pdfrwt beam="2">  1       21 0.35338974E-01 0.12499746E+03</pdfrwt>
<totfact> 0.60193348E+06</totfact>
</mgrwt>
</event>
<event>
 5    0  0.1222151E+000  0.1250087E+03  0.7546771E-02  0.1235056E+00
         21   -1    0    0  503  502  0.00000000000E+00  0.00000000000E+00  0.97035911890E+03  0.97035911890E+03  0.00000000000E+00 0.  1.
         21   -1    0    0  502  503 -0.00000000000E+00 -0.00000000000E+00 -0.40261320124E+01  0.40261320124E+01  0.00000000000E+00 0.  1.
         25    2    1    2    0    0  0.00000000000E+00  0.00000000000E+00  0.96633298689E+03  0.97438525091E+03  0.12500870229E+03 0.  0.
          4    1    3    3  501    0  0.62345302266E+02 -0.24365345641E+01  0.50961973712E+03  0.51342726104E+03  0.15500000000E+01 0.  1.
         -4    1    3    3    0  501 -0.62345302266E+02  0.24365345641E+01  0.45671324977E+03  0.46095798988E+03  0.15500000000E+01 0.  1.
<mgrwt>
<rscale>  2 0.12500870E+03</rscale>
<asrwt>0</asrwt>
<pdfrwt beam="1">  1       21 0.14928583E+00 0.12500870E+03</pdfrwt>
<pdfrwt beam="2">  1       21 0.61940570E-03 0.12500870E+03</pdfrwt>
<totfact> 0.24264498E+06</totfact>
</mgrwt>
</event>
<event>
 5    0  0.1444627E+000  0.1250025E+03  0.7546771E-02  0.1235065E+00
         21   -1    0    0  503  502  0.00000000000E+00  0.00000000000E+00  0.28957598774E+02  0.28957598774E+02  0.00000000000E+00 0. -1.
         21   -1    0    0  502  503 -0.00000000000E+00 -0.00000000000E+00 -0.13490095630E+03  0.13490095630E+03  0.00000000000E+00 0. -1.
         25    2    1    2    0    0  0.00000000000E+00  0.00000000000E+00 -0.10594335753E+03  0.16385855508E+03  0.12500252424E+03 0.  0.
          4    1    3    3  501    0 -0.16394653299E+01 -0.27974508210E+02  0.20233233286E+02  0.34598369692E+02  0.15500000000E+01 0.  1.
         -4    1    3    3    0  501  0.16394653299E+01  0.27974508210E+02 -0.12617659081E+03  0.12926018538E+03  0.15500000000E+01 0.  1.
<mgrwt>
<rscale>  2 0.12500252E+03</rscale>
<asrwt>0</asrwt>
<pdfrwt beam="1">  1       21 0.44550152E-02 0.12500252E+03</pdfrwt>
<pdfrwt beam="2">  1       21 0.20753993E-01 0.12500252E+03</pdfrwt>
<totfact> 0.69046639E+06</totfact>
</mgrwt>
</event>
<event>
 5    0  0.1447815E+000  0.1249983E+03  0.7546771E-02  0.1235072E+00
         21   -1    0    0  503  502  0.00000000000E+00  0.00000000000E+00  0.10506945696E+02  0.10506945696E+02  0.00000000000E+00 0. -1.
         21   -1    0    0  502  503 -0.00000000000E+00 -0.00000000000E+00 -0.37176774912E+03  0.37176774912E+03  0.00000000000E+00 0. -1.
         25    2    1    2    0    0  0.00000000000E+00  0.00000000000E+00 -0.36126080342E+03  0.38227469482E+03  0.12499829681E+03 0.  0.
          4    1    3    3  501    0  0.38671277692E+02  0.18664566851E+02 -0.41828540158E+02  0.59965515472E+02  0.15500000000E+01 0.  1.
         -4    1    3    3    0  501 -0.38671277692E+02 -0.18664566851E+02 -0.31943226327E+03  0.32230917934E+03  0.15500000000E+01 0.  1.
<mgrwt>
<rscale>  2 0.12499830E+03</rscale>
<asrwt>0</asrwt>
<pdfrwt beam="1">  1       21 0.16164533E-02 0.12499830E+03</pdfrwt>
<pdfrwt beam="2">  1       21 0.57195034E-01 0.12499830E+03</pdfrwt>
<totfact> 0.49241770E+06</totfact>
</mgrwt>
</event>
<event>
 5    0  0.1313899E+000  0.1250019E+03  0.7546771E-02  0.1235066E+00
         21   -1    0    0  503  502  0.00000000000E+00  0.00000000000E+00  0.50759682177E+03  0.50759682177E+03  0.00000000000E+00 0. -1.
         21   -1    0    0  502  503 -0.00000000000E+00 -0.00000000000E+00 -0.76958061201E+01  0.76958061201E+01  0.00000000000E+00 0. -1.
         25    2    1    2    0    0  0.00000000000E+00  0.00000000000E+00  0.49990101565E+03  0.51529262789E+03  0.12500186763E+03 0.  0.
          4    1    3    3  501    0  0.30618516099E+02  0.52281293780E+02  0.31289287152E+03  0.31870861105E+03  0.15500000000E+01 0. -1.
         -4    1    3    3    0  501 -0.30618516099E+02 -0.52281293780E+02  0.18700814413E+03  0.19658401685E+03  0.15500000000E+01 0. -1.
<mgrwt>
<rscale>  2 0.12500187E+03</rscale>
<asrwt>0</asrwt>
<pdfrwt beam="1">  1       21 0.78091792E-01 0.12500187E+03</pdfrwt>
<pdfrwt beam="2">  1       21 0.11839706E-02 0.12500187E+03</pdfrwt>
<totfact> 0.41224771E+06</totfact>
</mgrwt>
</event>
<event>
 5    0  0.1235983E+000  0.1249491E+03  0.7546771E-02  0.1235149E+00
         21   -1    0    0  503  502  0.00000000000E+00  0.00000000000E+00  0.54682536364E+03  0.54682536364E+03  0.00000000000E+00 0.  1.
         21   -1    0    0  502  503 -0.00000000000E+00 -0.00000000000E+00 -0.71376924517E+01  0.71376924517E+01  0.00000000000E+00 0.  1.
         25    2    1    2    0    0  0.00000000000E+00  0.00000000000E+00  0.53968767119E+03  0.55396305609E+03  0.12494912998E+03 0.  0.
          4    1    3    3  501    0 -0.42461918326E+02  0.67019629539E+01  0.68974185857E+02  0.81288201050E+02  0.15500000000E+01 0.  1.
         -4    1    3    3    0  501  0.42461918326E+02 -0.67019629539E+01  0.47071348533E+03  0.47267485504E+03  0.15500000000E+01 0.  1.
<mgrwt>
<rscale>  2 0.12494913E+03</rscale>
<asrwt>0</asrwt>
<pdfrwt beam="1">  1       21 0.84126946E-01 0.12494913E+03</pdfrwt>
<pdfrwt beam="2">  1       21 0.10981070E-02 0.12494913E+03</pdfrwt>
<totfact> 0.39310667E+06</totfact>
</mgrwt>
</event>
<event>
 5    0  0.1535276E+000  0.1249994E+03  0.7546771E-02  0.1235070E+00
         21   -1    0    0  503  502  0.00000000000E+00  0.00000000000E+00  0.22519417596E+03  0.22519417596E+03  0.00000000000E+00 0.  1.
         21   -1    0    0  502  503 -0.00000000000E+00 -0.00000000000E+00 -0.17345962180E+02  0.17345962180E+02  0.00000000000E+00 0.  1.
         25    2    1    2    0    0  0.00000000000E+00  0.00000000000E+00  0.20784821378E+03  0.24254013814E+03  0.12499935455E+03 0.  0.
          4    1    3    3  501    0  0.50319031512E+02 -0.33431896770E+02  0.72993591260E+02  0.94763724700E+02  0.15500000000E+01 0.  1.
         -4    1    3    3    0  501 -0.50319031512E+02  0.33431896770E+02  0.13485462252E+03  0.14777641344E+03  0.15500000000E+01 0.  1.
<mgrwt>
<rscale>  2 0.12499935E+03</rscale>
<asrwt>0</asrwt>
<pdfrwt beam="1">  1       21 0.34645256E-01 0.12499935E+03</pdfrwt>
<pdfrwt beam="2">  1       21 0.26686097E-02 0.12499935E+03</pdfrwt>
<totfact> 0.60588709E+06</totfact>
</mgrwt>
</event>
<event>
 5    0  0.1629443E+000  0.1250040E+03  0.7546771E-02  0.1235063E+00
         21   -1    0    0  503  502  0.00000000000E+00  0.00000000000E+00  0.13012611635E+03  0.13012611635E+03  0.00000000000E+00 0. -1.
         21   -1    0    0  502  503 -0.00000000000E+00 -0.00000000000E+00 -0.30020863917E+02  0.30020863917E+02  0.00000000000E+00 0. -1.
         25    2    1    2    0    0  0.00000000000E+00  0.00000000000E+00  0.10010525244E+03  0.16014698027E+03  0.12500397483E+03 0.  0.
          4    1    3    3  501    0 -0.50184628676E+02 -0.35866820490E+02  0.37294542541E+02  0.72098621143E+02  0.15500000000E+01 0.  1.
         -4    1    3    3    0  501  0.50184628676E+02  0.35866820490E+02  0.62810709894E+02  0.88048359126E+02  0.15500000000E+01 0.  1.
<mgrwt>
<rscale>  2 0.12500397E+03</rscale>
<asrwt>0</asrwt>
<pdfrwt beam="1">  1       21 0.20019402E-01 0.12500397E+03</pdfrwt>
<pdfrwt beam="2">  1       21 0.46185945E-02 0.12500397E+03</pdfrwt>
<totfact> 0.69494518E+06</totfact>
</mgrwt>
</event>
<event>
 5    0  0.1489575E+000  0.1249991E+03  0.7546771E-02  0.1235071E+00
         21   -1    0    0  503  502  0.00000000000E+00  0.00000000000E+00  0.83074137195E+02  0.83074137195E+02  0.00000000000E+00 0. -1.
         21   -1    0    0  502  503 -0.00000000000E+00 -0.00000000000E+00 -0.47020550876E+02  0.47020550876E+02  0.00000000000E+00 0. -1.
         25    2    1    2    0    0  0.00000000000E+00  0.00000000000E+00  0.36053586319E+02  0.13009468807E+03  0.12499906711E+03 0.  0.
          4    1    3    3  501    0 -0.37804415546E+02  0.15341430369E+02  0.67276613821E+02  0.78696115456E+02  0.15500000000E+01 0. -1.
         -4    1    3    3    0  501  0.37804415546E+02 -0.15341430369E+02 -0.31223027502E+02  0.51398572616E+02  0.15500000000E+01 0. -1.
<mgrwt>
<rscale>  2 0.12499907E+03</rscale>
<asrwt>0</asrwt>
<pdfrwt beam="1">  1       21 0.12780636E-01 0.12499907E+03</pdfrwt>
<pdfrwt beam="2">  1       21 0.72339309E-02 0.12499907E+03</pdfrwt>
<totfact> 0.73354010E+06</totfact>
</mgrwt>
</event>
<event>
 5    0  0.1312344E+000  0.1249953E+03  0.7546771E-02  0.1235077E+00
         21   -1    0    0  503  502  0.00000000000E+00  0.00000000000E+00  0.10793654911E+02  0.10793654911E+02  0.00000000000E+00 0.  1.
         21   -1    0    0  502  503 -0.00000000000E+00 -0.00000000000E+00 -0.36187531140E+03  0.36187531140E+03  0.00000000000E+00 0.  1.
         25    2    1    2    0    0  0.00000000000E+00  0.00000000000E+00 -0.35108165649E+03  0.37266896631E+03  0.12499531563E+03 0.  0.
          4    1    3    3  501    0 -0.12703301533E+02  0.31327653575E+02 -0.33219563971E+03  0.33391487133E+03  0.15500000000E+01 0. -1.
         -4    1    3    3    0  501  0.12703301533E+02 -0.31327653575E+02 -0.18886016772E+02  0.38754094982E+02  0.15500000000E+01 0. -1.
<mgrwt>
<rscale>  2 0.12499532E+03</rscale>
<asrwt>0</asrwt>
<pdfrwt beam="1">  1       21 0.16605625E-02 0.12499532E+03</pdfrwt>
<pdfrwt beam="2">  1       21 0.55673118E-01 0.12499532E+03</pdfrwt>
<totfact> 0.49912466E+06</totfact>
</mgrwt>
</event>
<event>
 5    0  0.1501147E+000  0.1250002E+03  0.7546771E-02  0.1235069E+00
         21   -1    0    0  503  502  0.00000000000E+00  0.00000000000E+00  0.12869717615E+03  0.12869717615E+03  0.00000000000E+00 0. -1.
         21   -1    0    0  502  503 -0.00000000000E+00 -0.00000000000E+00 -0.30352359555E+02  0.30352359555E+02  0.00000000000E+00 0. -1.
         25    2    1    2    0    0  0.00000000000E+00  0.00000000000E+00  0.98344816595E+02  0.15904953570E+03  0.12500020743E+03 0.  0.
          4    1    3    3  501    0  0.37925993088E+02 -0.11243358250E+02  0.11071034743E+03  0.11757541233E+03  0.15500000000E+01 0.  1.
         -4    1    3    3    0  501 -0.37925993088E+02  0.11243358250E+02 -0.12365530839E+02  0.41474123371E+02  0.15500000000E+01 0.  1.
<mgrwt>
<rscale>  2 0.12500021E+03</rscale>
<asrwt>0</asrwt>
<pdfrwt beam="1">  1       21 0.19799565E-01 0.12500021E+03</pdfrwt>
<pdfrwt beam="2">  1       21 0.46695938E-02 0.12500021E+03</pdfrwt>
<totfact> 0.69635452E+06</totfact>
</mgrwt>
</event>
<event>
 5    0  0.1343597E+000  0.1250014E+03  0.7546771E-02  0.1235067E+00
         21   -1    0    0  503  502  0.00000000000E+00  0.00000000000E+00  0.20535861350E+03  0.20535861350E+03  0.00000000000E+00 0. -1.
         21   -1    0    0  502  503 -0.00000000000E+00 -0.00000000000E+00 -0.19022035701E+02  0.19022035701E+02  0.00000000000E+00 0. -1.
         25    2    1    2    0    0  0.00000000000E+00  0.00000000000E+00  0.18633657780E+03  0.22438064920E+03  0.12500142203E+03 0.  0.
          4    1    3    3  501    0 -0.41181104005E+02 -0.30279628366E+01  0.17734106575E+03  0.18209148246E+03  0.15500000000E+01 0. -1.
         -4    1    3    3    0  501  0.41181104005E+02  0.30279628366E+01  0.89955120505E+01  0.42289166734E+02  0.15500000000E+01 0. -1.
<mgrwt>
<rscale>  2 0.12500142E+03</rscale>
<asrwt>0</asrwt>
<pdfrwt beam="1">  1       21 0.31593631E-01 0.12500142E+03</pdfrwt>
<pdfrwt beam="2">  1       21 0.29264672E-02 0.12500142E+03</pdfrwt>
<totfact> 0.62375320E+06</totfact>
</mgrwt>
</event>
<event>
 5    0  0.1524603E+000  0.1249621E+03  0.7546771E-02  0.1235129E+00
         21   -1    0    0  503  502  0.00000000000E+00  0.00000000000E+00  0.49552482860E+02  0.49552482860E+02  0.00000000000E+00 0. -1.
         21   -1    0    0  502  503 -0.00000000000E+00 -0.00000000000E+00 -0.78782707392E+02  0.78782707392E+02  0.00000000000E+00 0. -1.
         25    2    1    2    0    0  0.00000000000E+00  0.00000000000E+00 -0.29230224533E+02  0.12833519025E+03  0.12496205436E+03 0.  0.
          4    1    3    3  501    0 -0.30815263239E+02 -0.49308030172E+02 -0.38047983776E+02  0.69504775788E+02  0.15500000000E+01 0.  1.
         -4    1    3    3    0  501  0.30815263239E+02  0.49308030172E+02  0.88177592433E+01  0.58830414464E+02  0.15500000000E+01 0.  1.
<mgrwt>
<rscale>  2 0.12496205E+03</rscale>
<asrwt>0</asrwt>
<pdfrwt beam="1">  1       21 0.76234590E-02 0.12496205E+03</pdfrwt>
<pdfrwt beam="2">  1       21 0.12120416E-01 0.12496205E+03</pdfrwt>
<totfact> 0.73659663E+06</totfact>
</mgrwt>
</event>
<event>
 5    0  0.1427125E+000  0.1249949E+03  0.7546771E-02  0.1235077E+00
         21   -1    0    0  503  502  0.00000000000E+00  0.00000000000E+00  0.99996715700E+01  0.99996715700E+01  0.00000000000E+00 0.  1.
         21   -1    0    0  502  503 -0.00000000000E+00 -0.00000000000E+00 -0.39060616100E+03  0.39060616100E+03  0.00000000000E+00 0.  1.
         25    2    1    2    0    0  0.00000000000E+00  0.00000000000E+00 -0.38060648943E+03  0.40060583257E+03  0.12499493307E+03 0.  0.
          4    1    3    3  501    0 -0.44871753712E+02 -0.32599005943E+02 -0.98115651837E+02  0.11271758117E+03  0.15500000000E+01 0. -1.
         -4    1    3    3    0  501  0.44871753712E+02  0.32599005943E+02 -0.28249083759E+03  0.28788825140E+03  0.15500000000E+01 0. -1.
<mgrwt>
<rscale>  2 0.12499493E+03</rscale>
<asrwt>0</asrwt>
<pdfrwt beam="1">  1       21 0.15384113E-02 0.12499493E+03</pdfrwt>
<pdfrwt beam="2">  1       21 0.60093244E-01 0.12499493E+03</pdfrwt>
<totfact> 0.48007276E+06</totfact>
</mgrwt>
</event>
<event>
 5    0  0.1419195E+000  0.1250028E+03  0.7546771E-02  0.1235065E+00
         21   -1    0    0  503  502  0.00000000000E+00  0.00000000000E+00  0.38551481539E+03  0.38551481539E+03  0.00000000000E+00 0. -1.
         21   -1    0    0  502  503 -0.00000000000E+00 -0.00000000000E+00 -0.10133007201E+02  0.10133007201E+02  0.00000000000E+00 0. -1.
         25    2    1    2    0    0  0.00000000000E+00  0.00000000000E+00  0.37538180819E+03  0.39564782259E+03  0.12500279037E+03 0.  0.
          4    1    3    3  501    0  0.40110134412E+02 -0.46350993607E+02  0.14934411215E+03  0.16144133245E+03  0.15500000000E+01 0.  1.
         -4    1    3    3    0  501 -0.40110134412E+02  0.46350993607E+02  0.22603769604E+03  0.23420649014E+03  0.15500000000E+01 0.  1.
<mgrwt>
<rscale>  2 0.12500279E+03</rscale>
<asrwt>0</asrwt>
<pdfrwt beam="1">  1       21 0.59309960E-01 0.12500279E+03</pdfrwt>
<pdfrwt beam="2">  1       21 0.15589245E-02 0.12500279E+03</pdfrwt>
<totfact> 0.48328005E+06</totfact>
</mgrwt>
</event>
<event>
 5    0  0.1222151E+000  0.1249992E+03  0.7546771E-02  0.1235071E+00
         21   -1    0    0  503  502  0.00000000000E+00  0.00000000000E+00  0.30789197928E+01  0.30789197928E+01  0.00000000000E+00 0. -1.
         21   -1    0    0  502  503 -0.00000000000E+00 -0.00000000000E+00 -0.12686910216E+04  0.12686910216E+04  0.00000000000E+00 0. -1.
         25    2    1    2    0    0  0.00000000000E+00  0.00000000000E+00 -0.12656121018E+04  0.12717699414E+04  0.12499916635E+03 0.  0.
          4    1    3    3  501    0  0.62002364845E+02 -0.76443478573E+01 -0.64331114066E+03  0.64633919539E+03  0.15500000000E+01 0. -1.
         -4    1    3    3    0  501 -0.62002364845E+02  0.76443478573E+01 -0.62230096116E+03  0.62543074602E+03  0.15500000000E+01 0. -1.
<mgrwt>
<rscale>  2 0.12499917E+03</rscale>
<asrwt>0</asrwt>
<pdfrwt beam="1">  1       21 0.47368011E-03 0.12499917E+03</pdfrwt>
<pdfrwt beam="2">  1       21 0.19518318E+00 0.12499917E+03</pdfrwt>
<totfact> 0.17767334E+06</totfact>
</mgrwt>
</event>
<event>
 5    0  0.1262405E+000  0.1249466E+03  0.7546771E-02  0.1235153E+00
         21   -1    0    0  503  502  0.00000000000E+00  0.00000000000E+00  0.16860819818E+02  0.16860819818E+02  0.00000000000E+00 0.  1.
         21   -1    0    0  502  503 -0.00000000000E+00 -0.00000000000E+00 -0.23147820186E+03  0.23147820186E+03  0.00000000000E+00 0.  1.
         25    2    1    2    0    0  0.00000000000E+00  0.00000000000E+00 -0.21461738204E+03  0.24833902167E+03  0.12494658464E+03 0.  0.
          4    1    3    3  501    0  0.13930356894E+02  0.55626945199E+02 -0.15648217884E+03  0.16666579334E+03  0.15500000000E+01 0.  1.
         -4    1    3    3    0  501 -0.13930356894E+02 -0.55626945199E+02 -0.58135203194E+02  0.81673228330E+02  0.15500000000E+01 0.  1.
<mgrwt>
<rscale>  2 0.12494658E+03</rscale>
<asrwt>0</asrwt>
<pdfrwt beam="1">  1       21 0.25939724E-02 0.12494658E+03</pdfrwt>
<pdfrwt beam="2">  1       21 0.35612029E-01 0.12494658E+03</pdfrwt>
<totfact> 0.60115837E+06</totfact>
</mgrwt>
</event>
<event>
 5    0  0.1601030E+000  0.1249998E+03  0.7546771E-02  0.1235070E+00
         21   -1    0    0  503  502  0.00000000000E+00  0.00000000000E+00  0.34841944334E+02  0.34841944334E+02  0.00000000000E+00 0.  1.
         21   -1    0    0  502  503 -0.00000000000E+00 -0.00000000000E+00 -0.11211308905E+03  0.11211308905E+03  0.00000000000E+00 0.  1.
         25    2    1    2    0    0  0.00000000000E+00  0.00000000000E+00 -0.77271144716E+02  0.14695503338E+03  0.12499980813E+03 0.  0.
          4    1    3    3  501    0 -0.81398527517E+01  0.38413136671E+02  0.18501227838E+02  0.43434136382E+02  0.15500000000E+01 0. -1.
         -4    1    3    3    0  501  0.81398527517E+01 -0.38413136671E+02 -0.95772372554E+02  0.10352089700E+03  0.15500000000E+01 0. -1.
<mgrwt>
<rscale>  2 0.12499981E+03</rscale>
<asrwt>0</asrwt>
<pdfrwt beam="1">  1       21 0.53602990E-02 0.12499981E+03</pdfrwt>
<pdfrwt beam="2">  1       21 0.17248168E-01 0.12499981E+03</pdfrwt>
<totfact> 0.71144181E+06</totfact>
</mgrwt>
</event>
<event>
 5    0  0.1246003E+000  0.1250035E+03  0.7546771E-02  0.1235064E+00
         21   -1    0    0  503  502  0.00000000000E+00  0.00000000000E+00  0.63362212002E+03  0.63362212002E+03  0.00000000000E+00 0.  1.
         21   -1    0    0  502  503 -0.00000000000E+00 -0.00000000000E+00 -0.61653020880E+01  0.61653020880E+01  0.00000000000E+00 0.  1.
         25    2    1    2    0    0  0.00000000000E+00  0.00000000000E+00  0.62745681793E+03  0.63978742210E+03  0.12500354842E+03 0.  0.
          4    1    3    3  501    0 -0.10128166256E+02 -0.43128389506E+02  0.53924287079E+03  0.54106183929E+03  0.15500000000E+01 0. -1.
         -4    1    3    3    0  501  0.10128166256E+02  0.43128389506E+02  0.88213947134E+02  0.98725582814E+02  0.15500000000E+01 0. -1.
<mgrwt>
<rscale>  2 0.12500355E+03</rscale>
<asrwt>0</asrwt>
<pdfrwt beam="1">  1       21 0.97480275E-01 0.12500355E+03</pdfrwt>
<pdfrwt beam="2">  1       21 0.94850851E-03 0.12500355E+03</pdfrwt>
<totfact> 0.35349767E+06</totfact>
</mgrwt>
</event>
<event>
 5    0  0.1449880E+000  0.1250015E+03  0.7546771E-02  0.1235067E+00
         21   -1    0    0  503  502  0.00000000000E+00  0.00000000000E+00  0.22687261851E+02  0.22687261851E+02  0.00000000000E+00 0. -1.
         21   -1    0    0  502  503 -0.00000000000E+00 -0.00000000000E+00 -0.17218237678E+03  0.17218237678E+03  0.00000000000E+00 0. -1.
         25    2    1    2    0    0  0.00000000000E+00  0.00000000000E+00 -0.14949511493E+03  0.19486963863E+03  0.12500154668E+03 0.  0.
          4    1    3    3  501    0  0.40126842040E+02  0.87242564406E+01 -0.14816124929E+03  0.15375446138E+03  0.15500000000E+01 0.  1.
         -4    1    3    3    0  501 -0.40126842040E+02 -0.87242564406E+01 -0.13338656348E+01  0.41115177248E+02  0.15500000000E+01 0.  1.
<mgrwt>
<rscale>  2 0.12500155E+03</rscale>
<asrwt>0</asrwt>
<pdfrwt beam="1">  1       21 0.34903478E-02 0.12500155E+03</pdfrwt>
<pdfrwt beam="2">  1       21 0.26489597E-01 0.12500155E+03</pdfrwt>
<totfact> 0.65482727E+06</totfact>
</mgrwt>
</event>
<event>
 5    0  0.1339609E+000  0.1250042E+03  0.7546771E-02  0.1235063E+00
         21   -1    0    0  503  502  0.00000000000E+00  0.00000000000E+00  0.79779653839E+01  0.79779653839E+01  0.00000000000E+00 0. -1.
         21   -1    0    0  502  503 -0.00000000000E+00 -0.00000000000E+00 -0.48966310295E+03  0.48966310295E+03  0.00000000000E+00 0. -1.
         25    2    1    2    0    0  0.00000000000E+00  0.00000000000E+00 -0.48168513756E+03  0.49764106833E+03  0.12500424449E+03 0.  0.
          4    1    3    3  501    0 -0.78075270355E+00  0.55848427007E+02 -0.35234282426E+03  0.35674574235E+03  0.15500000000E+01 0. -1.
         -4    1    3    3    0  501  0.78075270355E+00 -0.55848427007E+02 -0.12934231330E+03  0.14089532598E+03  0.15500000000E+01 0. -1.
<mgrwt>
<rscale>  2 0.12500424E+03</rscale>
<asrwt>0</asrwt>
<pdfrwt beam="1">  1       21 0.12273790E-02 0.12500424E+03</pdfrwt>
<pdfrwt beam="2">  1       21 0.75332806E-01 0.12500424E+03</pdfrwt>
<totfact> 0.42167826E+06</totfact>
</mgrwt>
</event>
<event>
 5    0  0.1222151E+000  0.1250023E+03  0.7546771E-02  0.1235066E+00
         21   -1    0    0  503  502  0.00000000000E+00  0.00000000000E+00  0.35721583541E+01  0.35721583541E+01  0.00000000000E+00 0.  1.
         21   -1    0    0  502  503 -0.00000000000E+00 -0.00000000000E+00 -0.10935666762E+04  0.10935666762E+04  0.00000000000E+00 0.  1.
         25    2    1    2    0    0  0.00000000000E+00  0.00000000000E+00 -0.10899945179E+04  0.10971388346E+04  0.12500229339E+03 0.  0.
          4    1    3    3  501    0 -0.21306094226E+02 -0.14146534808E+02 -0.10453539642E+04  0.10456679144E+04  0.15500000000E+01 0. -1.
         -4    1    3    3    0  501  0.21306094226E+02  0.14146534808E+02 -0.44640553627E+02  0.51470920201E+02  0.15500000000E+01 0. -1.
<mgrwt>
<rscale>  2 0.12500229E+03</rscale>
<asrwt>0</asrwt>
<pdfrwt beam="1">  1       21 0.54956258E-03 0.12500229E+03</pdfrwt>
<pdfrwt beam="2">  1       21 0.16824110E+00 0.12500229E+03</pdfrwt>
<totfact> 0.21313926E+06</totfact>
</mgrwt>
</event>
<event>
 5    0  0.1480659E+000  0.1249990E+03  0.7546771E-02  0.1235071E+00
         21   -1    0    0  503  502  0.00000000000E+00  0.00000000000E+00  0.19688060083E+03  0.19688060083E+03  0.00000000000E+00 0. -1.
         21   -1    0    0  502  503 -0.00000000000E+00 -0.00000000000E+00 -0.19840376163E+02  0.19840376163E+02  0.00000000000E+00 0. -1.
         25    2    1    2    0    0  0.00000000000E+00  0.00000000000E+00  0.17704022466E+03  0.21672097699E+03  0.12499896287E+03 0.  0.
          4    1    3    3  501    0  0.88100644080E+01  0.33901184483E+02  0.17822344888E+03  0.18163949949E+03  0.15500000000E+01 0.  1.
         -4    1    3    3    0  501 -0.88100644080E+01 -0.33901184483E+02 -0.11832242144E+01  0.35081477502E+02  0.15500000000E+01 0.  1.
<mgrwt>
<rscale>  2 0.12499896E+03</rscale>
<asrwt>0</asrwt>
<pdfrwt beam="1">  1       21 0.30289322E-01 0.12499896E+03</pdfrwt>
<pdfrwt beam="2">  1       21 0.30523657E-02 0.12499896E+03</pdfrwt>
<totfact> 0.63160932E+06</totfact>
</mgrwt>
</event>
<event>
 5    0  0.1508578E+000  0.1249951E+03  0.7546771E-02  0.1235077E+00
         21   -1    0    0  503  502  0.00000000000E+00  0.00000000000E+00  0.20906136280E+02  0.20906136280E+02  0.00000000000E+00 0. -1.
         21   -1    0    0  502  503 -0.00000000000E+00 -0.00000000000E+00 -0.18683236062E+03  0.18683236062E+03  0.00000000000E+00 0. -1.
         25    2    1    2    0    0  0.00000000000E+00  0.00000000000E+00 -0.16592622434E+03  0.20773849690E+03  0.12499508458E+03 0.  0.
          4    1    3    3  501    0 -0.22448971145E+02 -0.45719686802E+02 -0.22825985134E+02  0.55836136722E+02  0.15500000000E+01 0.  1.
         -4    1    3    3    0  501  0.22448971145E+02  0.45719686802E+02 -0.14310023920E+03  0.15190236017E+03  0.15500000000E+01 0.  1.
<mgrwt>
<rscale>  2 0.12499508E+03</rscale>
<asrwt>0</asrwt>
<pdfrwt beam="1">  1       21 0.32163288E-02 0.12499508E+03</pdfrwt>
<pdfrwt beam="2">  1       21 0.28743439E-01 0.12499508E+03</pdfrwt>
<totfact> 0.64106232E+06</totfact>
</mgrwt>
</event>
<event>
 5    0  0.1531235E+000  0.1249892E+03  0.7546771E-02  0.1235086E+00
         21   -1    0    0  503  502  0.00000000000E+00  0.00000000000E+00  0.27540940252E+02  0.27540940252E+02  0.00000000000E+00 0.  1.
         21   -1    0    0  502  503 -0.00000000000E+00 -0.00000000000E+00 -0.14180988413E+03  0.14180988413E+03  0.00000000000E+00 0.  1.
         25    2    1    2    0    0  0.00000000000E+00  0.00000000000E+00 -0.11426894388E+03  0.16935082438E+03  0.12498924027E+03 0.  0.
          4    1    3    3  501    0 -0.52130658057E+02  0.49095556471E+01 -0.10958302830E+02  0.53518185199E+02  0.15500000000E+01 0.  1.
         -4    1    3    3    0  501  0.52130658057E+02 -0.49095556471E+01 -0.10331064105E+03  0.11583263918E+03  0.15500000000E+01 0.  1.
<mgrwt>
<rscale>  2 0.12498924E+03</rscale>
<asrwt>0</asrwt>
<pdfrwt beam="1">  1       21 0.42370678E-02 0.12498924E+03</pdfrwt>
<pdfrwt beam="2">  1       21 0.21816905E-01 0.12498924E+03</pdfrwt>
<totfact> 0.68413287E+06</totfact>
</mgrwt>
</event>
<event>
 5    0  0.1501249E+000  0.1250003E+03  0.7546771E-02  0.1235069E+00
         21   -1    0    0  503  502  0.00000000000E+00  0.00000000000E+00  0.25934910118E+02  0.25934910118E+02  0.00000000000E+00 0. -1.
         21   -1    0    0  502  503 -0.00000000000E+00 -0.00000000000E+00 -0.15061817879E+03  0.15061817879E+03  0.00000000000E+00 0. -1.
         25    2    1    2    0    0  0.00000000000E+00  0.00000000000E+00 -0.12468326867E+03  0.17655308891E+03  0.12500030286E+03 0.  0.
          4    1    3    3  501    0  0.40431670111E+02 -0.44040353618E+02 -0.36699526135E+02  0.70167873086E+02  0.15500000000E+01 0.  1.
         -4    1    3    3    0  501 -0.40431670111E+02  0.44040353618E+02 -0.87983742538E+02  0.10638521582E+03  0.15500000000E+01 0.  1.
<mgrwt>
<rscale>  2 0.12500030E+03</rscale>
<asrwt>0</asrwt>
<pdfrwt beam="1">  1       21 0.39899861E-02 0.12500030E+03</pdfrwt>
<pdfrwt beam="2">  1       21 0.23172028E-01 0.12500030E+03</pdfrwt>
<totfact> 0.67548652E+06</totfact>
</mgrwt>
</event>
<event>
 5    0  0.1442050E+000  0.1249959E+03  0.7546771E-02  0.1235076E+00
         21   -1    0    0  503  502  0.00000000000E+00  0.00000000000E+00  0.23848400058E+03  0.23848400058E+03  0.00000000000E+00 0.  1.
         21   -1    0    0  502  503 -0.00000000000E+00 -0.00000000000E+00 -0.16378424124E+02  0.16378424124E+02  0.00000000000E+00 0.  1.
         25    2    1    2    0    0  0.00000000000E+00  0.00000000000E+00  0.22210557646E+03  0.25486242471E+03  0.12499587366E+03 0.  0.
          4    1    3    3  501    0  0.37450452948E+02  0.34417258703E+01  0.21278083420E+03  0.21608439973E+03  0.15500000000E+01 0.  1.
         -4    1    3    3    0  501 -0.37450452948E+02 -0.34417258703E+01  0.93247422579E+01  0.38778024978E+02  0.15500000000E+01 0.  1.
<mgrwt>
<rscale>  2 0.12499587E+03</rscale>
<asrwt>0</asrwt>
<pdfrwt beam="1">  1       21 0.36689844E-01 0.12499587E+03</pdfrwt>
<pdfrwt beam="2">  1       21 0.25197577E-02 0.12499587E+03</pdfrwt>
<totfact> 0.59429576E+06</totfact>
</mgrwt>
</event>
<event>
 5    0  0.1222151E+000  0.1249180E+03  0.7546771E-02  0.1235197E+00
         21   -1    0    0  503  502  0.00000000000E+00  0.00000000000E+00  0.78214322615E+03  0.78214322615E+03  0.00000000000E+00 0. -1.
         21   -1    0    0  502  503 -0.00000000000E+00 -0.00000000000E+00 -0.49877407915E+01  0.49877407915E+01  0.00000000000E+00 0. -1.
         25    2    1    2    0    0  0.00000000000E+00  0.00000000000E+00  0.77715548536E+03  0.78713096694E+03  0.12491801590E+03 0.  0.
          4    1    3    3  501    0  0.56370856891E+02  0.25683584434E+02  0.43795470258E+03  0.44231667844E+03  0.15500000000E+01 0. -1.
         -4    1    3    3    0  501 -0.56370856891E+02 -0.25683584434E+02  0.33920078278E+03  0.34481428850E+03  0.15500000000E+01 0. -1.
<mgrwt>
<rscale>  2 0.12491802E+03</rscale>
<asrwt>0</asrwt>
<pdfrwt beam="1">  1       21 0.12032963E+00 0.12491802E+03</pdfrwt>
<pdfrwt beam="2">  1       21 0.76734536E-03 0.12491802E+03</pdfrwt>
<totfact> 0.29854254E+06</totfact>
</mgrwt>
</event>
<event>
 5    0  0.1222151E+000  0.1250028E+03  0.7546771E-02  0.1235065E+00
         21   -1    0    0  503  502  0.00000000000E+00  0.00000000000E+00  0.15020604585E+04  0.15020604585E+04  0.00000000000E+00 0.  1.
         21   -1    0    0  502  503 -0.00000000000E+00 -0.00000000000E+00 -0.26007088653E+01  0.26007088653E+01  0.00000000000E+00 0.  1.
         25    2    1    2    0    0  0.00000000000E+00  0.00000000000E+00  0.14994597496E+04  0.15046611674E+04  0.12500275118E+03 0.  0.
          4    1    3    3  501    0 -0.20137665412E+02 -0.33834638632E+02  0.16575290534E+03  0.17037234655E+03  0.15500000000E+01 0.  1.
         -4    1    3    3    0  501  0.20137665412E+02  0.33834638632E+02  0.13337068443E+04  0.13342888208E+04  0.15500000000E+01 0.  1.
<mgrwt>
<rscale>  2 0.12500275E+03</rscale>
<asrwt>0</asrwt>
<pdfrwt beam="1">  1       21 0.23108553E+00 0.12500275E+03</pdfrwt>
<pdfrwt beam="2">  1       21 0.40011026E-03 0.12500275E+03</pdfrwt>
<totfact> 0.13923140E+06</totfact>
</mgrwt>
</event>
<event>
 5    0  0.1396554E+000  0.1249922E+03  0.7546771E-02  0.1235082E+00
         21   -1    0    0  503  502  0.00000000000E+00  0.00000000000E+00  0.17500102301E+02  0.17500102301E+02  0.00000000000E+00 0.  1.
         21   -1    0    0  502  503 -0.00000000000E+00 -0.00000000000E+00 -0.22318498914E+03  0.22318498914E+03  0.00000000000E+00 0.  1.
         25    2    1    2    0    0  0.00000000000E+00  0.00000000000E+00 -0.20568488684E+03  0.24068509145E+03  0.12499216203E+03 0.  0.
          4    1    3    3  501    0 -0.19013844536E+02  0.46784858406E+02 -0.17367234743E+03  0.18087243025E+03  0.15500000000E+01 0. -1.
         -4    1    3    3    0  501  0.19013844536E+02 -0.46784858406E+02 -0.32012539409E+02  0.59812661198E+02  0.15500000000E+01 0. -1.
<mgrwt>
<rscale>  2 0.12499216E+03</rscale>
<asrwt>0</asrwt>
<pdfrwt beam="1">  1       21 0.26923235E-02 0.12499216E+03</pdfrwt>
<pdfrwt beam="2">  1       21 0.34336151E-01 0.12499216E+03</pdfrwt>
<totfact> 0.60778447E+06</totfact>
</mgrwt>
</event>
<event>
 5    0  0.1524147E+000  0.1249990E+03  0.7546771E-02  0.1235071E+00
         21   -1    0    0  503  502  0.00000000000E+00  0.00000000000E+00  0.17646394008E+02  0.17646394008E+02  0.00000000000E+00 0. -1.
         21   -1    0    0  502  503 -0.00000000000E+00 -0.00000000000E+00 -0.22135880638E+03  0.22135880638E+03  0.00000000000E+00 0. -1.
         25    2    1    2    0    0  0.00000000000E+00  0.00000000000E+00 -0.20371241238E+03  0.23900520039E+03  0.12499895543E+03 0.  0.
          4    1    3    3  501    0  0.84609231993E+01  0.56012831572E+02 -0.15225471060E+03  0.16245899151E+03  0.15500000000E+01 0.  1.
         -4    1    3    3    0  501 -0.84609231993E+01 -0.56012831572E+02 -0.51457701772E+02  0.76546208879E+02  0.15500000000E+01 0.  1.
<mgrwt>
<rscale>  2 0.12499896E+03</rscale>
<asrwt>0</asrwt>
<pdfrwt beam="1">  1       21 0.27148299E-02 0.12499896E+03</pdfrwt>
<pdfrwt beam="2">  1       21 0.34055200E-01 0.12499896E+03</pdfrwt>
<totfact> 0.60930666E+06</totfact>
</mgrwt>
</event>
<event>
 5    0  0.1609094E+000  0.1250579E+03  0.7546771E-02  0.1234979E+00
         21   -1    0    0  503  502  0.00000000000E+00  0.00000000000E+00  0.19608053568E+03  0.19608053568E+03  0.00000000000E+00 0. -1.
         21   -1    0    0  502  503 -0.00000000000E+00 -0.00000000000E+00 -0.19940135512E+02  0.19940135512E+02  0.00000000000E+00 0. -1.
         25    2    1    2    0    0  0.00000000000E+00  0.00000000000E+00  0.17614040017E+03  0.21602067119E+03  0.12505794581E+03 0.  0.
          4    1    3    3  501    0 -0.65352168266E+01  0.60900100061E+02  0.10964073843E+03  0.12559866747E+03  0.15500000000E+01 0.  1.
         -4    1    3    3    0  501  0.65352168266E+01 -0.60900100061E+02  0.66499661744E+02  0.90422003729E+02  0.15500000000E+01 0.  1.
<mgrwt>
<rscale>  2 0.12505795E+03</rscale>
<asrwt>0</asrwt>
<pdfrwt beam="1">  1       21 0.30166235E-01 0.12505795E+03</pdfrwt>
<pdfrwt beam="2">  1       21 0.30677133E-02 0.12505795E+03</pdfrwt>
<totfact> 0.63139061E+06</totfact>
</mgrwt>
</event>
<event>
 5    0  0.1282271E+000  0.1249982E+03  0.7546771E-02  0.1235072E+00
         21   -1    0    0  503  502  0.00000000000E+00  0.00000000000E+00  0.66383433955E+03  0.66383433955E+03  0.00000000000E+00 0. -1.
         21   -1    0    0  502  503 -0.00000000000E+00 -0.00000000000E+00 -0.58842059263E+01  0.58842059263E+01  0.00000000000E+00 0. -1.
         25    2    1    2    0    0  0.00000000000E+00  0.00000000000E+00  0.65795013362E+03  0.66971854548E+03  0.12499820727E+03 0.  0.
          4    1    3    3  501    0 -0.33056616885E+02  0.39024124531E+02  0.13668114230E+03  0.14594437082E+03  0.15500000000E+01 0.  1.
         -4    1    3    3    0  501  0.33056616885E+02 -0.39024124531E+02  0.52126899132E+03  0.52377417465E+03  0.15500000000E+01 0.  1.
<mgrwt>
<rscale>  2 0.12499821E+03</rscale>
<asrwt>0</asrwt>
<pdfrwt beam="1">  1       21 0.10212830E+00 0.12499821E+03</pdfrwt>
<pdfrwt beam="2">  1       21 0.90526297E-03 0.12499821E+03</pdfrwt>
<totfact> 0.34112112E+06</totfact>
</mgrwt>
</event>
<event>
 5    0  0.1451609E+000  0.1249999E+03  0.7546771E-02  0.1235069E+00
         21   -1    0    0  503  502  0.00000000000E+00  0.00000000000E+00  0.14634919706E+02  0.14634919706E+02  0.00000000000E+00 0. -1.
         21   -1    0    0  502  503 -0.00000000000E+00 -0.00000000000E+00 -0.26691269164E+03  0.26691269164E+03  0.00000000000E+00 0. -1.
         25    2    1    2    0    0  0.00000000000E+00  0.00000000000E+00 -0.25227777193E+03  0.28154761135E+03  0.12499993297E+03 0.  0.
          4    1    3    3  501    0 -0.12271535748E+01 -0.61002457913E+02 -0.15644472965E+03  0.16792903773E+03  0.15500000000E+01 0. -1.
         -4    1    3    3    0  501  0.12271535748E+01  0.61002457913E+02 -0.95833042283E+02  0.11361857362E+03  0.15500000000E+01 0. -1.
<mgrwt>
<rscale>  2 0.12499993E+03</rscale>
<asrwt>0</asrwt>
<pdfrwt beam="1">  1       21 0.22515262E-02 0.12499993E+03</pdfrwt>
<pdfrwt beam="2">  1       21 0.41063490E-01 0.12499993E+03</pdfrwt>
<totfact> 0.57025467E+06</totfact>
</mgrwt>
</event>
<event>
 5    0  0.1463598E+000  0.1250013E+03  0.7546771E-02  0.1235067E+00
         21   -1    0    0  503  502  0.00000000000E+00  0.00000000000E+00  0.11717688350E+03  0.11717688350E+03  0.00000000000E+00 0. -1.
         21   -1    0    0  502  503 -0.00000000000E+00 -0.00000000000E+00 -0.33337029000E+02  0.33337029000E+02  0.00000000000E+00 0. -1.
         25    2    1    2    0    0  0.00000000000E+00  0.00000000000E+00  0.83839854497E+02  0.15051391250E+03  0.12500126661E+03 0.  0.
          4    1    3    3  501    0  0.35676074791E+02 -0.37423702909E+02  0.84159799352E+02  0.98785576776E+02  0.15500000000E+01 0. -1.
         -4    1    3    3    0  501 -0.35676074791E+02  0.37423702909E+02 -0.31994485502E+00  0.51728335722E+02  0.15500000000E+01 0. -1.
<mgrwt>
<rscale>  2 0.12500127E+03</rscale>
<asrwt>0</asrwt>
<pdfrwt beam="1">  1       21 0.18027213E-01 0.12500127E+03</pdfrwt>
<pdfrwt beam="2">  1       21 0.51287737E-02 0.12500127E+03</pdfrwt>
<totfact> 0.70692425E+06</totfact>
</mgrwt>
</event>
<event>
 5    0  0.1306806E+000  0.1250048E+03  0.7546771E-02  0.1235062E+00
         21   -1    0    0  503  502  0.00000000000E+00  0.00000000000E+00  0.78447538596E+01  0.78447538596E+01  0.00000000000E+00 0. -1.
         21   -1    0    0  502  503 -0.00000000000E+00 -0.00000000000E+00 -0.49798217536E+03  0.49798217536E+03  0.00000000000E+00 0. -1.
         25    2    1    2    0    0  0.00000000000E+00  0.00000000000E+00 -0.49013742150E+03  0.50582692922E+03  0.12500476138E+03 0.  0.
          4    1    3    3  501    0  0.33611570655E+02  0.14159330957E+02 -0.39776260952E+02  0.53988681873E+02  0.15500000000E+01 0.  1.
         -4    1    3    3    0  501 -0.33611570655E+02 -0.14159330957E+02 -0.45036116055E+03  0.45183824734E+03  0.15500000000E+01 0.  1.
<mgrwt>
<rscale>  2 0.12500476E+03</rscale>
<asrwt>0</asrwt>
<pdfrwt beam="1">  1       21 0.12068844E-02 0.12500476E+03</pdfrwt>
<pdfrwt beam="2">  1       21 0.76612692E-01 0.12500476E+03</pdfrwt>
<totfact> 0.41724853E+06</totfact>
</mgrwt>
</event>
<event>
 5    0  0.1566762E+000  0.1250008E+03  0.7546771E-02  0.1235068E+00
         21   -1    0    0  503  502  0.00000000000E+00  0.00000000000E+00  0.15749261045E+03  0.15749261045E+03  0.00000000000E+00 0. -1.
         21   -1    0    0  502  503 -0.00000000000E+00 -0.00000000000E+00 -0.24803054234E+02  0.24803054234E+02  0.00000000000E+00 0. -1.
         25    2    1    2    0    0  0.00000000000E+00  0.00000000000E+00  0.13268955622E+03  0.18229566469E+03  0.12500076413E+03 0.  0.
          4    1    3    3  501    0  0.40625439386E+02  0.44380259647E+02  0.90915443024E+02  0.10903235324E+03  0.15500000000E+01 0.  1.
         -4    1    3    3    0  501 -0.40625439386E+02 -0.44380259647E+02  0.41774113195E+02  0.73263311451E+02  0.15500000000E+01 0.  1.
<mgrwt>
<rscale>  2 0.12500076E+03</rscale>
<asrwt>0</asrwt>
<pdfrwt beam="1">  1       21 0.24229632E-01 0.12500076E+03</pdfrwt>
<pdfrwt beam="2">  1       21 0.38158546E-02 0.12500076E+03</pdfrwt>
<totfact> 0.66887860E+06</totfact>
</mgrwt>
</event>
<event>
 5    0  0.1507135E+000  0.1250026E+03  0.7546771E-02  0.1235065E+00
         21   -1    0    0  503  502  0.00000000000E+00  0.00000000000E+00  0.45840685329E+02  0.45840685329E+02  0.00000000000E+00 0.  1.
         21   -1    0    0  502  503 -0.00000000000E+00 -0.00000000000E+00 -0.85217097657E+02  0.85217097657E+02  0.00000000000E+00 0.  1.
         25    2    1    2    0    0  0.00000000000E+00  0.00000000000E+00 -0.39376412328E+02  0.13105778299E+03  0.12500256251E+03 0.  0.
          4    1    3    3  501    0  0.49419919358E+02 -0.12635460951E+02 -0.57519696926E+02  0.76895392172E+02  0.15500000000E+01 0.  1.
         -4    1    3    3    0  501 -0.49419919358E+02  0.12635460951E+02  0.18143284598E+02  0.54162390815E+02  0.15500000000E+01 0.  1.
<mgrwt>
<rscale>  2 0.12500256E+03</rscale>
<asrwt>0</asrwt>
<pdfrwt beam="1">  1       21 0.70524132E-02 0.12500256E+03</pdfrwt>
<pdfrwt beam="2">  1       21 0.13110323E-01 0.12500256E+03</pdfrwt>
<totfact> 0.73218099E+06</totfact>
</mgrwt>
</event>
<event>
 5    0  0.1617562E+000  0.1249968E+03  0.7546771E-02  0.1235074E+00
         21   -1    0    0  503  502  0.00000000000E+00  0.00000000000E+00  0.15982885056E+03  0.15982885056E+03  0.00000000000E+00 0. -1.
         21   -1    0    0  502  503 -0.00000000000E+00 -0.00000000000E+00 -0.24438957582E+02  0.24438957582E+02  0.00000000000E+00 0. -1.
         25    2    1    2    0    0  0.00000000000E+00  0.00000000000E+00  0.13538989298E+03  0.18426780815E+03  0.12499680795E+03 0.  0.
          4    1    3    3  501    0  0.33143792710E+02  0.50104451995E+02  0.93001123246E+02  0.11072749672E+03  0.15500000000E+01 0.  1.
         -4    1    3    3    0  501 -0.33143792710E+02 -0.50104451995E+02  0.42388769737E+02  0.73540311426E+02  0.15500000000E+01 0.  1.
<mgrwt>
<rscale>  2 0.12499681E+03</rscale>
<asrwt>0</asrwt>
<pdfrwt beam="1">  1       21 0.24589053E-01 0.12499681E+03</pdfrwt>
<pdfrwt beam="2">  1       21 0.37598397E-02 0.12499681E+03</pdfrwt>
<totfact> 0.66670684E+06</totfact>
</mgrwt>
</event>
<event>
 5    0  0.1222151E+000  0.1250135E+03  0.7546771E-02  0.1235048E+00
         21   -1    0    0  503  502  0.00000000000E+00  0.00000000000E+00  0.26890409371E+01  0.26890409371E+01  0.00000000000E+00 0.  1.
         21   -1    0    0  502  503 -0.00000000000E+00 -0.00000000000E+00 -0.14529695380E+04  0.14529695380E+04  0.00000000000E+00 0.  1.
         25    2    1    2    0    0  0.00000000000E+00  0.00000000000E+00 -0.14502804971E+04  0.14556585789E+04  0.12501351236E+03 0.  0.
          4    1    3    3  501    0  0.31250609161E+02 -0.23616442665E+02 -0.15823656894E+03  0.16302009442E+03  0.15500000000E+01 0. -1.
         -4    1    3    3    0  501 -0.31250609161E+02  0.23616442665E+02 -0.12920439281E+04  0.12926384845E+04  0.15500000000E+01 0. -1.
<mgrwt>
<rscale>  2 0.12501351E+03</rscale>
<asrwt>0</asrwt>
<pdfrwt beam="1">  1       21 0.41369901E-03 0.12501351E+03</pdfrwt>
<pdfrwt beam="2">  1       21 0.22353356E+00 0.12501351E+03</pdfrwt>
<totfact> 0.14658294E+06</totfact>
</mgrwt>
</event>
<event>
 5    0  0.1420436E+000  0.1250016E+03  0.7546771E-02  0.1235067E+00
         21   -1    0    0  503  502  0.00000000000E+00  0.00000000000E+00  0.26339560325E+03  0.26339560325E+03  0.00000000000E+00 0.  1.
         21   -1    0    0  502  503 -0.00000000000E+00 -0.00000000000E+00 -0.14830725331E+02  0.14830725331E+02  0.00000000000E+00 0.  1.
         25    2    1    2    0    0  0.00000000000E+00  0.00000000000E+00  0.24856487792E+03  0.27822632858E+03  0.12500156551E+03 0.  0.
          4    1    3    3  501    0 -0.39390262396E+02 -0.48275824128E+02  0.11389077954E+03  0.12982935004E+03  0.15500000000E+01 0. -1.
         -4    1    3    3    0  501  0.39390262396E+02  0.48275824128E+02  0.13467409838E+03  0.14839697855E+03  0.15500000000E+01 0. -1.
<mgrwt>
<rscale>  2 0.12500157E+03</rscale>
<asrwt>0</asrwt>
<pdfrwt beam="1">  1       21 0.40522397E-01 0.12500157E+03</pdfrwt>
<pdfrwt beam="2">  1       21 0.22816502E-02 0.12500157E+03</pdfrwt>
<totfact> 0.57313369E+06</totfact>
</mgrwt>
</event>
<event>
 5    0  0.1603996E+000  0.1250013E+03  0.7546771E-02  0.1235067E+00
         21   -1    0    0  503  502  0.00000000000E+00  0.00000000000E+00  0.47285874357E+02  0.47285874357E+02  0.00000000000E+00 0.  1.
         21   -1    0    0  502  503 -0.00000000000E+00 -0.00000000000E+00 -0.82610956959E+02  0.82610956959E+02  0.00000000000E+00 0.  1.
         25    2    1    2    0    0  0.00000000000E+00  0.00000000000E+00 -0.35325082602E+02  0.12989683132E+03  0.12500130129E+03 0.  0.
          4    1    3    3  501    0 -0.58358381019E+02  0.85095945801E+01  0.37809007732E+01  0.59116931126E+02  0.15500000000E+01 0.  1.
         -4    1    3    3    0  501  0.58358381019E+02 -0.85095945801E+01 -0.39105983375E+02  0.70779900190E+02  0.15500000000E+01 0.  1.
<mgrwt>
<rscale>  2 0.12500130E+03</rscale>
<asrwt>0</asrwt>
<pdfrwt beam="1">  1       21 0.72747499E-02 0.12500130E+03</pdfrwt>
<pdfrwt beam="2">  1       21 0.12709378E-01 0.12500130E+03</pdfrwt>
<totfact> 0.73376269E+06</totfact>
</mgrwt>
</event>
<event>
 5    0  0.1458613E+000  0.1249962E+03  0.7546771E-02  0.1235075E+00
         21   -1    0    0  503  502  0.00000000000E+00  0.00000000000E+00  0.12749227845E+02  0.12749227845E+02  0.00000000000E+00 0. -1.
         21   -1    0    0  502  503 -0.00000000000E+00 -0.00000000000E+00 -0.30637247800E+03  0.30637247800E+03  0.00000000000E+00 0. -1.
         25    2    1    2    0    0  0.00000000000E+00  0.00000000000E+00 -0.29362325016E+03  0.31912170585E+03  0.12499620038E+03 0.  0.
          4    1    3    3  501    0  0.36971815553E+02  0.50260644302E+02 -0.15510904814E+03  0.16719529546E+03  0.15500000000E+01 0. -1.
         -4    1    3    3    0  501 -0.36971815553E+02 -0.50260644302E+02 -0.13851420202E+03  0.15192641038E+03  0.15500000000E+01 0. -1.
<mgrwt>
<rscale>  2 0.12499620E+03</rscale>
<asrwt>0</asrwt>
<pdfrwt beam="1">  1       21 0.19614197E-02 0.12499620E+03</pdfrwt>
<pdfrwt beam="2">  1       21 0.47134226E-01 0.12499620E+03</pdfrwt>
<totfact> 0.53908156E+06</totfact>
</mgrwt>
</event>
<event>
 5    0  0.1564210E+000  0.1250017E+03  0.7546771E-02  0.1235067E+00
         21   -1    0    0  503  502  0.00000000000E+00  0.00000000000E+00  0.56701361639E+02  0.56701361639E+02  0.00000000000E+00 0. -1.
         21   -1    0    0  502  503 -0.00000000000E+00 -0.00000000000E+00 -0.68893476184E+02  0.68893476184E+02  0.00000000000E+00 0. -1.
         25    2    1    2    0    0  0.00000000000E+00  0.00000000000E+00 -0.12192114546E+02  0.12559483782E+03  0.12500166251E+03 0.  0.
          4    1    3    3  501    0  0.13003396168E+02 -0.34019428946E+02  0.44914355493E+02  0.57845584854E+02  0.15500000000E+01 0.  1.
         -4    1    3    3    0  501 -0.13003396168E+02  0.34019428946E+02 -0.57106470038E+02  0.67749252970E+02  0.15500000000E+01 0.  1.
<mgrwt>
<rscale>  2 0.12500166E+03</rscale>
<asrwt>0</asrwt>
<pdfrwt beam="1">  1       21 0.87232864E-02 0.12500166E+03</pdfrwt>
<pdfrwt beam="2">  1       21 0.10598996E-01 0.12500166E+03</pdfrwt>
<totfact> 0.73959027E+06</totfact>
</mgrwt>
</event>
<event>
 5    0  0.1639273E+000  0.1249982E+03  0.7546771E-02  0.1235072E+00
         21   -1    0    0  503  502  0.00000000000E+00  0.00000000000E+00  0.69111771152E+02  0.69111771152E+02  0.00000000000E+00 0.  1.
         21   -1    0    0  502  503 -0.00000000000E+00 -0.00000000000E+00 -0.56519164841E+02  0.56519164841E+02  0.00000000000E+00 0.  1.
         25    2    1    2    0    0  0.00000000000E+00  0.00000000000E+00  0.12592606311E+02  0.12563093599E+03  0.12499823337E+03 0.  0.
          4    1    3    3  501    0  0.13534398827E+02  0.60954008112E+02  0.40119083282E+01  0.62586491873E+02  0.15500000000E+01 0. -1.
         -4    1    3    3    0  501 -0.13534398827E+02 -0.60954008112E+02  0.85806979831E+01  0.63044444120E+02  0.15500000000E+01 0. -1.
<mgrwt>
<rscale>  2 0.12499823E+03</rscale>
<asrwt>0</asrwt>
<pdfrwt beam="1">  1       21 0.10632580E-01 0.12499823E+03</pdfrwt>
<pdfrwt beam="2">  1       21 0.86952562E-02 0.12499823E+03</pdfrwt>
<totfact> 0.73960468E+06</totfact>
</mgrwt>
</event>
<event>
 5    0  0.1520335E+000  0.1249992E+03  0.7546771E-02  0.1235071E+00
         21   -1    0    0  503  502  0.00000000000E+00  0.00000000000E+00  0.24832958807E+02  0.24832958807E+02  0.00000000000E+00 0.  1.
         21   -1    0    0  502  503 -0.00000000000E+00 -0.00000000000E+00 -0.15729897720E+03  0.15729897720E+03  0.00000000000E+00 0.  1.
         25    2    1    2    0    0  0.00000000000E+00  0.00000000000E+00 -0.13246601839E+03  0.18213193601E+03  0.12499918434E+03 0.  0.
          4    1    3    3  501    0 -0.15049152509E+02 -0.34787923022E+02 -0.13860558950E+03  0.14370312634E+03  0.15500000000E+01 0. -1.
         -4    1    3    3    0  501  0.15049152509E+02  0.34787923022E+02  0.61395711022E+01  0.38428809671E+02  0.15500000000E+01 0. -1.
<mgrwt>
<rscale>  2 0.12499918E+03</rscale>
<asrwt>0</asrwt>
<pdfrwt beam="1">  1       21 0.38204552E-02 0.12499918E+03</pdfrwt>
<pdfrwt beam="2">  1       21 0.24199843E-01 0.12499918E+03</pdfrwt>
<totfact> 0.66909189E+06</totfact>
</mgrwt>
</event>
<event>
 5    0  0.1305806E+000  0.1250054E+03  0.7546771E-02  0.1235061E+00
         21   -1    0    0  503  502  0.00000000000E+00  0.00000000000E+00  0.41828589822E+03  0.41828589822E+03  0.00000000000E+00 0. -1.
         21   -1    0    0  502  503 -0.00000000000E+00 -0.00000000000E+00 -0.93395204850E+01  0.93395204850E+01  0.00000000000E+00 0. -1.
         25    2    1    2    0    0  0.00000000000E+00  0.00000000000E+00  0.40894637773E+03  0.42762541870E+03  0.12500543532E+03 0.  0.
          4    1    3    3  501    0  0.46163714983E+02 -0.16211510724E+02  0.33741578324E+03  0.34094825845E+03  0.15500000000E+01 0. -1.
         -4    1    3    3    0  501 -0.46163714983E+02  0.16211510724E+02  0.71530594495E+02  0.86677160254E+02  0.15500000000E+01 0. -1.
<mgrwt>
<rscale>  2 0.12500544E+03</rscale>
<asrwt>0</asrwt>
<pdfrwt beam="1">  1       21 0.64351662E-01 0.12500544E+03</pdfrwt>
<pdfrwt beam="2">  1       21 0.14368496E-02 0.12500544E+03</pdfrwt>
<totfact> 0.46255115E+06</totfact>
</mgrwt>
</event>
<event>
 5    0  0.1590454E+000  0.1250082E+03  0.7546771E-02  0.1235057E+00
         21   -1    0    0  503  502  0.00000000000E+00  0.00000000000E+00  0.57413900360E+02  0.57413900360E+02  0.00000000000E+00 0.  1.
         21   -1    0    0  502  503 -0.00000000000E+00 -0.00000000000E+00 -0.68045544985E+02  0.68045544985E+02  0.00000000000E+00 0.  1.
         25    2    1    2    0    0  0.00000000000E+00  0.00000000000E+00 -0.10631644626E+02  0.12545944534E+03  0.12500816197E+03 0.  0.
          4    1    3    3  501    0 -0.16784231225E+02  0.59029970204E+02  0.64786171046E+01  0.61730242019E+02  0.15500000000E+01 0.  1.
         -4    1    3    3    0  501  0.16784231225E+02 -0.59029970204E+02 -0.17110261730E+02  0.63729203326E+02  0.15500000000E+01 0.  1.
<mgrwt>
<rscale>  2 0.12500816E+03</rscale>
<asrwt>0</asrwt>
<pdfrwt beam="1">  1       21 0.88329077E-02 0.12500816E+03</pdfrwt>
<pdfrwt beam="2">  1       21 0.10468545E-01 0.12500816E+03</pdfrwt>
<totfact> 0.73965684E+06</totfact>
</mgrwt>
</event>
<event>
 5    0  0.1222151E+000  0.1250012E+03  0.7546771E-02  0.1235067E+00
         21   -1    0    0  503  502  0.00000000000E+00  0.00000000000E+00  0.12875717045E+02  0.12875717045E+02  0.00000000000E+00 0.  1.
         21   -1    0    0  502  503 -0.00000000000E+00 -0.00000000000E+00 -0.30338680656E+03  0.30338680656E+03  0.00000000000E+00 0.  1.
         25    2    1    2    0    0  0.00000000000E+00  0.00000000000E+00 -0.29051108952E+03  0.31626252361E+03  0.12500116282E+03 0.  0.
          4    1    3    3  501    0  0.11088442654E+02  0.21568176066E+02  0.43338697888E+00  0.24304939901E+02  0.15500000000E+01 0. -1.
         -4    1    3    3    0  501 -0.11088442654E+02 -0.21568176066E+02 -0.29094447650E+03  0.29195758371E+03  0.15500000000E+01 0. -1.
<mgrwt>
<rscale>  2 0.12500116E+03</rscale>
<asrwt>0</asrwt>
<pdfrwt beam="1">  1       21 0.19808796E-02 0.12500116E+03</pdfrwt>
<pdfrwt beam="2">  1       21 0.46674891E-01 0.12500116E+03</pdfrwt>
<totfact> 0.54129275E+06</totfact>
</mgrwt>
</event>
<event>
 5    0  0.1312717E+000  0.1250049E+03  0.7546771E-02  0.1235062E+00
         21   -1    0    0  503  502  0.00000000000E+00  0.00000000000E+00  0.91681092194E+01  0.91681092194E+01  0.00000000000E+00 0. -1.
         21   -1    0    0  502  503 -0.00000000000E+00 -0.00000000000E+00 -0.42610287680E+03  0.42610287680E+03  0.00000000000E+00 0. -1.
         25    2    1    2    0    0  0.00000000000E+00  0.00000000000E+00 -0.41693476758E+03  0.43527098602E+03  0.12500492331E+03 0.  0.
          4    1    3    3  501    0  0.31498101002E+02 -0.15422306595E+02 -0.28403049124E+02  0.45156545561E+02  0.15500000000E+01 0. -1.
         -4    1    3    3    0  501 -0.31498101002E+02  0.15422306595E+02 -0.38853171845E+03  0.39011444046E+03  0.15500000000E+01 0. -1.
<mgrwt>
<rscale>  2 0.12500492E+03</rscale>
<asrwt>0</asrwt>
<pdfrwt beam="1">  1       21 0.14104783E-02 0.12500492E+03</pdfrwt>
<pdfrwt beam="2">  1       21 0.65554291E-01 0.12500492E+03</pdfrwt>
<totfact> 0.45780966E+06</totfact>
</mgrwt>
</event>
<event>
 5    0  0.1529521E+000  0.1249992E+03  0.7546771E-02  0.1235070E+00
         21   -1    0    0  503  502  0.00000000000E+00  0.00000000000E+00  0.18035881046E+02  0.18035881046E+02  0.00000000000E+00 0. -1.
         21   -1    0    0  502  503 -0.00000000000E+00 -0.00000000000E+00 -0.21657947416E+03  0.21657947416E+03  0.00000000000E+00 0. -1.
         25    2    1    2    0    0  0.00000000000E+00  0.00000000000E+00 -0.19854359311E+03  0.23461535520E+03  0.12499922612E+03 0.  0.
          4    1    3    3  501    0  0.38119436792E+02  0.46333185095E+02 -0.13199423290E+03  0.14499908800E+03  0.15500000000E+01 0. -1.
         -4    1    3    3    0  501 -0.38119436792E+02 -0.46333185095E+02 -0.66549360207E+02  0.89616267198E+02  0.15500000000E+01 0. -1.
<mgrwt>
<rscale>  2 0.12499923E+03</rscale>
<asrwt>0</asrwt>
<pdfrwt beam="1">  1       21 0.27747507E-02 0.12499923E+03</pdfrwt>
<pdfrwt beam="2">  1       21 0.33319922E-01 0.12499923E+03</pdfrwt>
<totfact> 0.61358845E+06</totfact>
</mgrwt>
</event>
<event>
 5    0  0.1458697E+000  0.1249900E+03  0.7546771E-02  0.1235085E+00
         21   -1    0    0  503  502  0.00000000000E+00  0.00000000000E+00  0.11937261440E+03  0.11937261440E+03  0.00000000000E+00 0. -1.
         21   -1    0    0  502  503 -0.00000000000E+00 -0.00000000000E+00 -0.32717915552E+02  0.32717915552E+02  0.00000000000E+00 0. -1.
         25    2    1    2    0    0  0.00000000000E+00  0.00000000000E+00  0.86654698844E+02  0.15209052995E+03  0.12498996947E+03 0.  0.
          4    1    3    3  501    0 -0.24875132239E+02  0.36406796021E+02  0.97184518497E+02  0.10673078345E+03  0.15500000000E+01 0. -1.
         -4    1    3    3    0  501  0.24875132239E+02 -0.36406796021E+02 -0.10529819653E+02  0.45359746498E+02  0.15500000000E+01 0. -1.
<mgrwt>
<rscale>  2 0.12498997E+03</rscale>
<asrwt>0</asrwt>
<pdfrwt beam="1">  1       21 0.18365017E-01 0.12498997E+03</pdfrwt>
<pdfrwt beam="2">  1       21 0.50335255E-02 0.12498997E+03</pdfrwt>
<totfact> 0.70515570E+06</totfact>
</mgrwt>
</event>
<event>
 5    0  0.1222151E+000  0.1249979E+03  0.7546771E-02  0.1235073E+00
         21   -1    0    0  503  502  0.00000000000E+00  0.00000000000E+00  0.29697671027E+01  0.29697671027E+01  0.00000000000E+00 0.  1.
         21   -1    0    0  502  503 -0.00000000000E+00 -0.00000000000E+00 -0.13152939199E+04  0.13152939199E+04  0.00000000000E+00 0.  1.
         25    2    1    2    0    0  0.00000000000E+00  0.00000000000E+00 -0.13123241528E+04  0.13182636870E+04  0.12499786580E+03 0.  0.
          4    1    3    3  501    0 -0.43032621080E+02  0.10606489148E+02 -0.11206073089E+04  0.11214844838E+04  0.15500000000E+01 0. -1.
         -4    1    3    3    0  501  0.43032621080E+02 -0.10606489148E+02 -0.19171684392E+03  0.19677920325E+03  0.15500000000E+01 0. -1.
<mgrwt>
<rscale>  2 0.12499787E+03</rscale>
<asrwt>0</asrwt>
<pdfrwt beam="1">  1       21 0.45688693E-03 0.12499787E+03</pdfrwt>
<pdfrwt beam="2">  1       21 0.20235305E+00 0.12499787E+03</pdfrwt>
<totfact> 0.16928449E+06</totfact>
</mgrwt>
</event>
<event>
 5    0  0.1565028E+000  0.1249992E+03  0.7546771E-02  0.1235070E+00
         21   -1    0    0  503  502  0.00000000000E+00  0.00000000000E+00  0.23712098330E+03  0.23712098330E+03  0.00000000000E+00 0.  1.
         21   -1    0    0  502  503 -0.00000000000E+00 -0.00000000000E+00 -0.16473459893E+02  0.16473459893E+02  0.00000000000E+00 0.  1.
         25    2    1    2    0    0  0.00000000000E+00  0.00000000000E+00  0.22064752341E+03  0.25359444319E+03  0.12499924813E+03 0.  0.
          4    1    3    3  501    0  0.30659244980E+02  0.51569237956E+02  0.14572124778E+03  0.15759587609E+03  0.15500000000E+01 0. -1.
         -4    1    3    3    0  501 -0.30659244980E+02 -0.51569237956E+02  0.74926275622E+02  0.95998567097E+02  0.15500000000E+01 0. -1.
<mgrwt>
<rscale>  2 0.12499925E+03</rscale>
<asrwt>0</asrwt>
<pdfrwt beam="1">  1       21 0.36480149E-01 0.12499925E+03</pdfrwt>
<pdfrwt beam="2">  1       21 0.25343786E-02 0.12499925E+03</pdfrwt>
<totfact> 0.59542548E+06</totfact>
</mgrwt>
</event>
<event>
 5    0  0.1222151E+000  0.1250082E+03  0.7546771E-02  0.1235057E+00
         21   -1    0    0  503  502  0.00000000000E+00  0.00000000000E+00  0.92919881319E+03  0.92919881319E+03  0.00000000000E+00 0. -1.
         21   -1    0    0  502  503 -0.00000000000E+00 -0.00000000000E+00 -0.42044401150E+01  0.42044401150E+01  0.00000000000E+00 0. -1.
         25    2    1    2    0    0  0.00000000000E+00  0.00000000000E+00  0.92499437307E+03  0.93340325330E+03  0.12500817197E+03 0.  0.
          4    1    3    3  501    0  0.41813361058E+02  0.31210198959E+02  0.71919713924E+03  0.72108901065E+03  0.15500000000E+01 0. -1.
         -4    1    3    3    0  501 -0.41813361058E+02 -0.31210198959E+02  0.20579723383E+03  0.21231424265E+03  0.15500000000E+01 0. -1.
<mgrwt>
<rscale>  2 0.12500817E+03</rscale>
<asrwt>0</asrwt>
<pdfrwt beam="1">  1       21 0.14295350E+00 0.12500817E+03</pdfrwt>
<pdfrwt beam="2">  1       21 0.64683768E-03 0.12500817E+03</pdfrwt>
<totfact> 0.25355991E+06</totfact>
</mgrwt>
</event>
<event>
 5    0  0.1617073E+000  0.1250014E+03  0.7546771E-02  0.1235067E+00
         21   -1    0    0  503  502  0.00000000000E+00  0.00000000000E+00  0.88654962413E+02  0.88654962413E+02  0.00000000000E+00 0. -1.
         21   -1    0    0  502  503 -0.00000000000E+00 -0.00000000000E+00 -0.44062258007E+02  0.44062258007E+02  0.00000000000E+00 0. -1.
         25    2    1    2    0    0  0.00000000000E+00  0.00000000000E+00  0.44592704406E+02  0.13271722042E+03  0.12500140523E+03 0.  0.
          4    1    3    3  501    0  0.49915021353E+02 -0.35241351468E+02  0.84338913173E+01  0.61700852772E+02  0.15500000000E+01 0.  1.
         -4    1    3    3    0  501 -0.49915021353E+02  0.35241351468E+02  0.36158813088E+02  0.71016367648E+02  0.15500000000E+01 0.  1.
<mgrwt>
<rscale>  2 0.12500141E+03</rscale>
<asrwt>0</asrwt>
<pdfrwt beam="1">  1       21 0.13639225E-01 0.12500141E+03</pdfrwt>
<pdfrwt beam="2">  1       21 0.67788089E-02 0.12500141E+03</pdfrwt>
<totfact> 0.72997566E+06</totfact>
</mgrwt>
</event>
<event>
 5    0  0.1354834E+000  0.1249971E+03  0.7546771E-02  0.1235074E+00
         21   -1    0    0  503  502  0.00000000000E+00  0.00000000000E+00  0.11445833243E+02  0.11445833243E+02  0.00000000000E+00 0.  1.
         21   -1    0    0  502  503 -0.00000000000E+00 -0.00000000000E+00 -0.34126558839E+03  0.34126558839E+03  0.00000000000E+00 0.  1.
         25    2    1    2    0    0  0.00000000000E+00  0.00000000000E+00 -0.32981975514E+03  0.35271142163E+03  0.12499710423E+03 0.  0.
          4    1    3    3  501    0 -0.31840132796E+01 -0.29266269590E+02 -0.94053739663E+01  0.30943756006E+02  0.15500000000E+01 0. -1.
         -4    1    3    3    0  501  0.31840132796E+01  0.29266269590E+02 -0.32041438118E+03  0.32176766563E+03  0.15500000000E+01 0. -1.
<mgrwt>
<rscale>  2 0.12499710E+03</rscale>
<asrwt>0</asrwt>
<pdfrwt beam="1">  1       21 0.17608976E-02 0.12499710E+03</pdfrwt>
<pdfrwt beam="2">  1       21 0.52502394E-01 0.12499710E+03</pdfrwt>
<totfact> 0.51342533E+06</totfact>
</mgrwt>
</event>
<event>
 5    0  0.1539903E+000  0.1249838E+03  0.7546771E-02  0.1235095E+00
         21   -1    0    0  503  502  0.00000000000E+00  0.00000000000E+00  0.78129440912E+02  0.78129440912E+02  0.00000000000E+00 0.  1.
         21   -1    0    0  502  503 -0.00000000000E+00 -0.00000000000E+00 -0.49984217000E+02  0.49984217000E+02  0.00000000000E+00 0.  1.
         25    2    1    2    0    0  0.00000000000E+00  0.00000000000E+00  0.28145223912E+02  0.12811365791E+03  0.12498382181E+03 0.  0.
          4    1    3    3  501    0  0.40547538937E+02 -0.45236238163E+02  0.29012093345E+02  0.67338875973E+02  0.15500000000E+01 0. -1.
         -4    1    3    3    0  501 -0.40547538937E+02  0.45236238163E+02 -0.86686943255E+00  0.60774781939E+02  0.15500000000E+01 0. -1.
<mgrwt>
<rscale>  2 0.12498382E+03</rscale>
<asrwt>0</asrwt>
<pdfrwt beam="1">  1       21 0.12019914E-01 0.12498382E+03</pdfrwt>
<pdfrwt beam="2">  1       21 0.76898796E-02 0.12498382E+03</pdfrwt>
<totfact> 0.73648626E+06</totfact>
</mgrwt>
</event>
<event>
 5    0  0.1222151E+000  0.1249749E+03  0.7546771E-02  0.1235108E+00
         21   -1    0    0  503  502  0.00000000000E+00  0.00000000000E+00  0.19492623395E+01  0.19492623395E+01  0.00000000000E+00 0. -1.
         21   -1    0    0  502  503 -0.00000000000E+00 -0.00000000000E+00 -0.20031591604E+04  0.20031591604E+04  0.00000000000E+00 0. -1.
         25    2    1    2    0    0  0.00000000000E+00  0.00000000000E+00 -0.20012098981E+04  0.20051084228E+04  0.12497492087E+03 0.  0.
          4    1    3    3  501    0  0.45627752142E+02  0.38751020308E+02 -0.71416211889E+03  0.71666831094E+03  0.15500000000E+01 0.  1.
         -4    1    3    3    0  501 -0.45627752142E+02 -0.38751020308E+02 -0.12870477792E+04  0.12884401119E+04  0.15500000000E+01 0.  1.
<mgrwt>
<rscale>  2 0.12497492E+03</rscale>
<asrwt>0</asrwt>
<pdfrwt beam="1">  1       21 0.29988635E-03 0.12497492E+03</pdfrwt>
<pdfrwt beam="2">  1       21 0.30817850E+00 0.12497492E+03</pdfrwt>
<totfact> 0.79032017E+05</totfact>
</mgrwt>
</event>
<event>
 5    0  0.1658826E+000  0.1249982E+03  0.7546771E-02  0.1235072E+00
         21   -1    0    0  503  502  0.00000000000E+00  0.00000000000E+00  0.59960116500E+02  0.59960116500E+02  0.00000000000E+00 0. -1.
         21   -1    0    0  502  503 -0.00000000000E+00 -0.00000000000E+00 -0.65145647553E+02  0.65145647553E+02  0.00000000000E+00 0. -1.
         25    2    1    2    0    0  0.00000000000E+00  0.00000000000E+00 -0.51855310533E+01  0.12510576405E+03  0.12499824986E+03 0.  0.
          4    1    3    3  501    0  0.52508482240E+02  0.33364249842E+02 -0.83791084955E+01  0.62792721185E+02  0.15500000000E+01 0.  1.
         -4    1    3    3    0  501 -0.52508482240E+02 -0.33364249842E+02  0.31935774422E+01  0.62313042869E+02  0.15500000000E+01 0.  1.
<mgrwt>
<rscale>  2 0.12499825E+03</rscale>
<asrwt>0</asrwt>
<pdfrwt beam="1">  1       21 0.92246333E-02 0.12499825E+03</pdfrwt>
<pdfrwt beam="2">  1       21 0.10022407E-01 0.12499825E+03</pdfrwt>
<totfact> 0.74032609E+06</totfact>
</mgrwt>
</event>
<event>
 5    0  0.1439736E+000  0.1250008E+03  0.7546771E-02  0.1235068E+00
         21   -1    0    0  503  502  0.00000000000E+00  0.00000000000E+00  0.12258766369E+02  0.12258766369E+02  0.00000000000E+00 0. -1.
         21   -1    0    0  502  503 -0.00000000000E+00 -0.00000000000E+00 -0.31865373423E+03  0.31865373423E+03  0.00000000000E+00 0. -1.
         25    2    1    2    0    0  0.00000000000E+00  0.00000000000E+00 -0.30639496786E+03  0.33091250060E+03  0.12500082689E+03 0.  0.
          4    1    3    3  501    0 -0.40493340098E+02 -0.45841113200E+02 -0.11942196357E+03  0.13418318126E+03  0.15500000000E+01 0. -1.
         -4    1    3    3    0  501  0.40493340098E+02  0.45841113200E+02 -0.18697300429E+03  0.19672931933E+03  0.15500000000E+01 0. -1.
<mgrwt>
<rscale>  2 0.12500083E+03</rscale>
<asrwt>0</asrwt>
<pdfrwt beam="1">  1       21 0.18859641E-02 0.12500083E+03</pdfrwt>
<pdfrwt beam="2">  1       21 0.49023651E-01 0.12500083E+03</pdfrwt>
<totfact> 0.52978658E+06</totfact>
</mgrwt>
</event>
<event>
 5    0  0.1445613E+000  0.1250044E+03  0.7546771E-02  0.1235062E+00
         21   -1    0    0  503  502  0.00000000000E+00  0.00000000000E+00  0.26418605143E+03  0.26418605143E+03  0.00000000000E+00 0.  1.
         21   -1    0    0  502  503 -0.00000000000E+00 -0.00000000000E+00 -0.14787011203E+02  0.14787011203E+02  0.00000000000E+00 0.  1.
         25    2    1    2    0    0  0.00000000000E+00  0.00000000000E+00  0.24939904023E+03  0.27897306263E+03  0.12500435356E+03 0.  0.
          4    1    3    3  501    0 -0.54140852863E+02  0.46241856112E+01  0.55859249505E+02  0.77944039519E+02  0.15500000000E+01 0.  1.
         -4    1    3    3    0  501  0.54140852863E+02 -0.46241856112E+01  0.19353979072E+03  0.20102902311E+03  0.15500000000E+01 0.  1.
<mgrwt>
<rscale>  2 0.12500435E+03</rscale>
<asrwt>0</asrwt>
<pdfrwt beam="1">  1       21 0.40644004E-01 0.12500435E+03</pdfrwt>
<pdfrwt beam="2">  1       21 0.22749250E-02 0.12500435E+03</pdfrwt>
<totfact> 0.57243884E+06</totfact>
</mgrwt>
</event>
<event>
 5    0  0.1645891E+000  0.1249994E+03  0.7546771E-02  0.1235070E+00
         21   -1    0    0  503  502  0.00000000000E+00  0.00000000000E+00  0.43425973144E+02  0.43425973144E+02  0.00000000000E+00 0. -1.
         21   -1    0    0  502  503 -0.00000000000E+00 -0.00000000000E+00 -0.89950999920E+02  0.89950999920E+02  0.00000000000E+00 0. -1.
         25    2    1    2    0    0  0.00000000000E+00  0.00000000000E+00 -0.46525026775E+02  0.13337697306E+03  0.12499935531E+03 0.  0.
          4    1    3    3  501    0 -0.58750200972E+02 -0.11352418059E+02 -0.40755925577E+01  0.59995637048E+02  0.15500000000E+01 0.  1.
         -4    1    3    3    0  501  0.58750200972E+02  0.11352418059E+02 -0.42449434218E+02  0.73381336016E+02  0.15500000000E+01 0.  1.
<mgrwt>
<rscale>  2 0.12499936E+03</rscale>
<asrwt>0</asrwt>
<pdfrwt beam="1">  1       21 0.66809189E-02 0.12499936E+03</pdfrwt>
<pdfrwt beam="2">  1       21 0.13838615E-01 0.12499936E+03</pdfrwt>
<totfact> 0.72913300E+06</totfact>
</mgrwt>
</event>
<event>
 5    0  0.1395652E+000  0.1250059E+03  0.7546771E-02  0.1235060E+00
         21   -1    0    0  503  502  0.00000000000E+00  0.00000000000E+00  0.10267356565E+02  0.10267356565E+02  0.00000000000E+00 0.  1.
         21   -1    0    0  502  503 -0.00000000000E+00 -0.00000000000E+00 -0.38048935984E+03  0.38048935984E+03  0.00000000000E+00 0.  1.
         25    2    1    2    0    0  0.00000000000E+00  0.00000000000E+00 -0.37022200328E+03  0.39075671641E+03  0.12500591869E+03 0.  0.
          4    1    3    3  501    0 -0.57065914861E+02 -0.14212758585E+02 -0.11911838016E+03  0.13285372459E+03  0.15500000000E+01 0. -1.
         -4    1    3    3    0  501  0.57065914861E+02  0.14212758585E+02 -0.25110362311E+03  0.25790299181E+03  0.15500000000E+01 0. -1.
<mgrwt>
<rscale>  2 0.12500592E+03</rscale>
<asrwt>0</asrwt>
<pdfrwt beam="1">  1       21 0.15795934E-02 0.12500592E+03</pdfrwt>
<pdfrwt beam="2">  1       21 0.58536822E-01 0.12500592E+03</pdfrwt>
<totfact> 0.48653352E+06</totfact>
</mgrwt>
</event>
<event>
 5    0  0.1509439E+000  0.1250006E+03  0.7546771E-02  0.1235068E+00
         21   -1    0    0  503  502  0.00000000000E+00  0.00000000000E+00  0.44161146595E+02  0.44161146595E+02  0.00000000000E+00 0.  1.
         21   -1    0    0  502  503 -0.00000000000E+00 -0.00000000000E+00 -0.88455358479E+02  0.88455358479E+02  0.00000000000E+00 0.  1.
         25    2    1    2    0    0  0.00000000000E+00  0.00000000000E+00 -0.44294211884E+02  0.13261650507E+03  0.12500064085E+03 0.  0.
          4    1    3    3  501    0  0.21801395815E+02 -0.40368669504E+02  0.22851157749E+02  0.51278730946E+02  0.15500000000E+01 0.  1.
         -4    1    3    3    0  501 -0.21801395815E+02  0.40368669504E+02 -0.67145369633E+02  0.81337774128E+02  0.15500000000E+01 0.  1.
<mgrwt>
<rscale>  2 0.12500064E+03</rscale>
<asrwt>0</asrwt>
<pdfrwt beam="1">  1       21 0.67940226E-02 0.12500064E+03</pdfrwt>
<pdfrwt beam="2">  1       21 0.13608517E-01 0.12500064E+03</pdfrwt>
<totfact> 0.73012457E+06</totfact>
</mgrwt>
</event>
<event>
 5    0  0.1222151E+000  0.1250020E+03  0.7546771E-02  0.1235066E+00
         21   -1    0    0  503  502  0.00000000000E+00  0.00000000000E+00  0.32600396441E+04  0.32600396441E+04  0.00000000000E+00 0. -1.
         21   -1    0    0  502  503 -0.00000000000E+00 -0.00000000000E+00 -0.11982608361E+01  0.11982608361E+01  0.00000000000E+00 0. -1.
         25    2    1    2    0    0  0.00000000000E+00  0.00000000000E+00  0.32588413833E+04  0.32612379049E+04  0.12500204526E+03 0.  0.
          4    1    3    3  501    0  0.45242471498E+02 -0.24032622869E+02  0.69618763536E+03  0.69807168280E+03  0.15500000000E+01 0. -1.
         -4    1    3    3    0  501 -0.45242471498E+02  0.24032622869E+02  0.25626537479E+04  0.25631662221E+04  0.15500000000E+01 0. -1.
<mgrwt>
<rscale>  2 0.12500205E+03</rscale>
<asrwt>0</asrwt>
<pdfrwt beam="1">  1       21 0.50153746E+00 0.12500205E+03</pdfrwt>
<pdfrwt beam="2">  1       21 0.18435043E-03 0.12500205E+03</pdfrwt>
<totfact> 0.10473928E+05</totfact>
</mgrwt>
</event>
<event>
 5    0  0.1441286E+000  0.1250024E+03  0.7546771E-02  0.1235066E+00
         21   -1    0    0  503  502  0.00000000000E+00  0.00000000000E+00  0.11696854912E+02  0.11696854912E+02  0.00000000000E+00 0. -1.
         21   -1    0    0  502  503 -0.00000000000E+00 -0.00000000000E+00 -0.33397005977E+03  0.33397005977E+03  0.00000000000E+00 0. -1.
         25    2    1    2    0    0  0.00000000000E+00  0.00000000000E+00 -0.32227320486E+03  0.34566691468E+03  0.12500238932E+03 0.  0.
          4    1    3    3  501    0 -0.35786174579E+02  0.31439750125E+02 -0.49325845106E+02  0.68589719888E+02  0.15500000000E+01 0. -1.
         -4    1    3    3    0  501  0.35786174579E+02 -0.31439750125E+02 -0.27294735975E+03  0.27707719479E+03  0.15500000000E+01 0. -1.
<mgrwt>
<rscale>  2 0.12500239E+03</rscale>
<asrwt>0</asrwt>
<pdfrwt beam="1">  1       21 0.17995164E-02 0.12500239E+03</pdfrwt>
<pdfrwt beam="2">  1       21 0.51380002E-01 0.12500239E+03</pdfrwt>
<totfact> 0.51856941E+06</totfact>
</mgrwt>
</event>
<event>
 5    0  0.1519866E+000  0.1250140E+03  0.7546771E-02  0.1235047E+00
         21   -1    0    0  503  502  0.00000000000E+00  0.00000000000E+00  0.20974848967E+03  0.20974848967E+03  0.00000000000E+00 0.  1.
         21   -1    0    0  502  503 -0.00000000000E+00 -0.00000000000E+00 -0.18627663230E+02  0.18627663230E+02  0.00000000000E+00 0.  1.
         25    2    1    2    0    0  0.00000000000E+00  0.00000000000E+00  0.19112082644E+03  0.22837615290E+03  0.12501398687E+03 0.  0.
          4    1    3    3  501    0  0.52456863797E+02  0.68376385554E+01  0.34800383457E+02  0.63339916713E+02  0.15500000000E+01 0.  1.
         -4    1    3    3    0  501 -0.52456863797E+02 -0.68376385554E+01  0.15632044298E+03  0.16503623618E+03  0.15500000000E+01 0.  1.
<mgrwt>
<rscale>  2 0.12501399E+03</rscale>
<asrwt>0</asrwt>
<pdfrwt beam="1">  1       21 0.32268997E-01 0.12501399E+03</pdfrwt>
<pdfrwt beam="2">  1       21 0.28657945E-02 0.12501399E+03</pdfrwt>
<totfact> 0.61954073E+06</totfact>
</mgrwt>
</event>
<event>
 4    0  0.1522070E+000  0.1251307E+03  0.7546771E-02  0.1234865E+00
         21   -1    0    0  503  502  0.00000000000E+00  0.00000000000E+00  0.21698375837E+02  0.21698375837E+02  0.00000000000E+00 0. -1.
         21   -1    0    0  502  503 -0.00000000000E+00 -0.00000000000E+00 -0.18040156709E+03  0.18040156709E+03  0.00000000000E+00 0. -1.
          4    1    1    2  501    0 -0.49745280438E+02  0.28440735810E+02 -0.38859301094E+02  0.69252553460E+02  0.15500000000E+01 0.  1.
         -4    1    1    2    0  501  0.49745280438E+02 -0.28440735810E+02 -0.11984389016E+03  0.13284738947E+03  0.15500000000E+01 0.  1.
<mgrwt>
<rscale>  2 0.12513067E+03</rscale>
<asrwt>0</asrwt>
<pdfrwt beam="1">  1       21 0.33382116E-02 0.12513067E+03</pdfrwt>
<pdfrwt beam="2">  1       21 0.27754088E-01 0.12513067E+03</pdfrwt>
<totfact> 0.64486880E+06</totfact>
</mgrwt>
</event>
<event>
 5    0  0.1493169E+000  0.1249933E+03  0.7546771E-02  0.1235080E+00
         21   -1    0    0  503  502  0.00000000000E+00  0.00000000000E+00  0.17510440766E+02  0.17510440766E+02  0.00000000000E+00 0.  1.
         21   -1    0    0  502  503 -0.00000000000E+00 -0.00000000000E+00 -0.22305718117E+03  0.22305718117E+03  0.00000000000E+00 0.  1.
         25    2    1    2    0    0  0.00000000000E+00  0.00000000000E+00 -0.20554674041E+03  0.24056762194E+03  0.12499327275E+03 0.  0.
          4    1    3    3  501    0  0.36723853563E+02  0.46744588390E+02 -0.65765648560E+02  0.88663526858E+02  0.15500000000E+01 0. -1.
         -4    1    3    3    0  501 -0.36723853563E+02 -0.46744588390E+02 -0.13978109185E+03  0.15190409508E+03  0.15500000000E+01 0. -1.
<mgrwt>
<rscale>  2 0.12499327E+03</rscale>
<asrwt>0</asrwt>
<pdfrwt beam="1">  1       21 0.26939138E-02 0.12499327E+03</pdfrwt>
<pdfrwt beam="2">  1       21 0.34316492E-01 0.12499327E+03</pdfrwt>
<totfact> 0.60788091E+06</totfact>
</mgrwt>
</event>
<event>
 5    0  0.1567150E+000  0.1249812E+03  0.7546771E-02  0.1235099E+00
         21   -1    0    0  503  502  0.00000000000E+00  0.00000000000E+00  0.17417813367E+03  0.17417813367E+03  0.00000000000E+00 0. -1.
         21   -1    0    0  502  503 -0.00000000000E+00 -0.00000000000E+00 -0.22419991079E+02  0.22419991079E+02  0.00000000000E+00 0. -1.
         25    2    1    2    0    0  0.00000000000E+00  0.00000000000E+00  0.15175814259E+03  0.19659812475E+03  0.12498115383E+03 0.  0.
          4    1    3    3  501    0  0.60795828102E+02 -0.10489134976E+02  0.91332766044E+02  0.11022808771E+03  0.15500000000E+01 0. -1.
         -4    1    3    3    0  501 -0.60795828102E+02  0.10489134976E+02  0.60425376547E+02  0.86370037039E+02  0.15500000000E+01 0. -1.
<mgrwt>
<rscale>  2 0.12498115E+03</rscale>
<asrwt>0</asrwt>
<pdfrwt beam="1">  1       21 0.26796635E-01 0.12498115E+03</pdfrwt>
<pdfrwt beam="2">  1       21 0.34492295E-02 0.12498115E+03</pdfrwt>
<totfact> 0.65327712E+06</totfact>
</mgrwt>
</event>
<event>
 5    0  0.1397665E+000  0.1249982E+03  0.7546771E-02  0.1235072E+00
         21   -1    0    0  503  502  0.00000000000E+00  0.00000000000E+00  0.37357107904E+02  0.37357107904E+02  0.00000000000E+00 0.  1.
         21   -1    0    0  502  503 -0.00000000000E+00 -0.00000000000E+00 -0.10456215074E+03  0.10456215074E+03  0.00000000000E+00 0.  1.
         25    2    1    2    0    0  0.00000000000E+00  0.00000000000E+00 -0.67205042835E+02  0.14191925864E+03  0.12499823275E+03 0.  0.
          4    1    3    3  501    0  0.17818027902E+02  0.14277541411E+02 -0.99633901832E+02  0.10222840702E+03  0.15500000000E+01 0. -1.
         -4    1    3    3    0  501 -0.17818027902E+02 -0.14277541411E+02  0.32428858996E+02  0.39690851627E+02  0.15500000000E+01 0. -1.
<mgrwt>
<rscale>  2 0.12499823E+03</rscale>
<asrwt>0</asrwt>
<pdfrwt beam="1">  1       21 0.57472474E-02 0.12499823E+03</pdfrwt>
<pdfrwt beam="2">  1       21 0.16086485E-01 0.12499823E+03</pdfrwt>
<totfact> 0.71792965E+06</totfact>
</mgrwt>
</event>
<event>
 5    0  0.1483383E+000  0.1250215E+03  0.7546771E-02  0.1235036E+00
         21   -1    0    0  503  502  0.00000000000E+00  0.00000000000E+00  0.32156785450E+03  0.32156785450E+03  0.00000000000E+00 0. -1.
         21   -1    0    0  502  503 -0.00000000000E+00 -0.00000000000E+00 -0.12151688449E+02  0.12151688449E+02  0.00000000000E+00 0. -1.
         25    2    1    2    0    0  0.00000000000E+00  0.00000000000E+00  0.30941616605E+03  0.33371954295E+03  0.12502147628E+03 0.  0.
          4    1    3    3  501    0 -0.19370018944E+02 -0.45399951197E+02  0.52406166010E+02  0.72008068565E+02  0.15500000000E+01 0.  1.
         -4    1    3    3    0  501  0.19370018944E+02  0.45399951197E+02  0.25701000004E+03  0.26171147439E+03  0.15500000000E+01 0.  1.
<mgrwt>
<rscale>  2 0.12502148E+03</rscale>
<asrwt>0</asrwt>
<pdfrwt beam="1">  1       21 0.49471971E-01 0.12502148E+03</pdfrwt>
<pdfrwt beam="2">  1       21 0.18694908E-02 0.12502148E+03</pdfrwt>
<totfact> 0.52735340E+06</totfact>
</mgrwt>
</event>
<event>
 5    0  0.1579706E+000  0.1250143E+03  0.7546771E-02  0.1235047E+00
         21   -1    0    0  503  502  0.00000000000E+00  0.00000000000E+00  0.17409008602E+02  0.17409008602E+02  0.00000000000E+00 0.  1.
         21   -1    0    0  502  503 -0.00000000000E+00 -0.00000000000E+00 -0.22443240283E+03  0.22443240283E+03  0.00000000000E+00 0.  1.
         25    2    1    2    0    0  0.00000000000E+00  0.00000000000E+00 -0.20702339423E+03  0.24184141143E+03  0.12501432928E+03 0.  0.
          4    1    3    3  501    0  0.36303348864E+02  0.50437560368E+02 -0.11617682579E+03  0.13176243010E+03  0.15500000000E+01 0.  1.
         -4    1    3    3    0  501 -0.36303348864E+02 -0.50437560368E+02 -0.90846568435E+02  0.11007898133E+03  0.15500000000E+01 0.  1.
<mgrwt>
<rscale>  2 0.12501433E+03</rscale>
<asrwt>0</asrwt>
<pdfrwt beam="1">  1       21 0.26783094E-02 0.12501433E+03</pdfrwt>
<pdfrwt beam="2">  1       21 0.34528058E-01 0.12501433E+03</pdfrwt>
<totfact> 0.60633013E+06</totfact>
</mgrwt>
</event>
<event>
 5    0  0.1484400E+000  0.1250111E+03  0.7546771E-02  0.1235052E+00
         21   -1    0    0  503  502  0.00000000000E+00  0.00000000000E+00  0.13154334257E+03  0.13154334257E+03  0.00000000000E+00 0. -1.
         21   -1    0    0  502  503 -0.00000000000E+00 -0.00000000000E+00 -0.29700808381E+02  0.29700808381E+02  0.00000000000E+00 0. -1.
         25    2    1    2    0    0  0.00000000000E+00  0.00000000000E+00  0.10184253419E+03  0.16124415095E+03  0.12501109729E+03 0.  0.
          4    1    3    3  501    0  0.14395152099E+02  0.43103634361E+02 -0.43975886341E+01  0.45682436285E+02  0.15500000000E+01 0. -1.
         -4    1    3    3    0  501 -0.14395152099E+02 -0.43103634361E+02  0.10624012282E+03  0.11556171467E+03  0.15500000000E+01 0. -1.
<mgrwt>
<rscale>  2 0.12501110E+03</rscale>
<asrwt>0</asrwt>
<pdfrwt beam="1">  1       21 0.20237437E-01 0.12501110E+03</pdfrwt>
<pdfrwt beam="2">  1       21 0.45693552E-02 0.12501110E+03</pdfrwt>
<totfact> 0.69348227E+06</totfact>
</mgrwt>
</event>
<event>
 5    0  0.1487183E+000  0.1249542E+03  0.7546771E-02  0.1235141E+00
         21   -1    0    0  503  502  0.00000000000E+00  0.00000000000E+00  0.14840169242E+02  0.14840169242E+02  0.00000000000E+00 0. -1.
         21   -1    0    0  502  503 -0.00000000000E+00 -0.00000000000E+00 -0.26302836985E+03  0.26302836985E+03  0.00000000000E+00 0. -1.
         25    2    1    2    0    0  0.00000000000E+00  0.00000000000E+00 -0.24818820061E+03  0.27786853909E+03  0.12495415998E+03 0.  0.
          4    1    3    3  501    0  0.24324018242E+02  0.37206979407E+02 -0.26527724622E+02  0.51789379738E+02  0.15500000000E+01 0.  1.
         -4    1    3    3    0  501 -0.24324018242E+02 -0.37206979407E+02 -0.22166047599E+03  0.22607915935E+03  0.15500000000E+01 0.  1.
<mgrwt>
<rscale>  2 0.12495416E+03</rscale>
<asrwt>0</asrwt>
<pdfrwt beam="1">  1       21 0.22831028E-02 0.12495416E+03</pdfrwt>
<pdfrwt beam="2">  1       21 0.40465907E-01 0.12495416E+03</pdfrwt>
<totfact> 0.57413226E+06</totfact>
</mgrwt>
</event>
<event>
 5    0  0.1476220E+000  0.1249976E+03  0.7546771E-02  0.1235073E+00
         21   -1    0    0  503  502  0.00000000000E+00  0.00000000000E+00  0.26618350954E+03  0.26618350954E+03  0.00000000000E+00 0. -1.
         21   -1    0    0  502  503 -0.00000000000E+00 -0.00000000000E+00 -0.14674461597E+02  0.14674461597E+02  0.00000000000E+00 0. -1.
         25    2    1    2    0    0  0.00000000000E+00  0.00000000000E+00  0.25150904794E+03  0.28085797114E+03  0.12499759499E+03 0.  0.
          4    1    3    3  501    0 -0.54200843491E+02  0.81738382699E+01  0.19313004967E+03  0.20076394510E+03  0.15500000000E+01 0. -1.
         -4    1    3    3    0  501  0.54200843491E+02 -0.81738382699E+01  0.58378998272E+02  0.80094026034E+02  0.15500000000E+01 0. -1.
<mgrwt>
<rscale>  2 0.12499759E+03</rscale>
<asrwt>0</asrwt>
<pdfrwt beam="1">  1       21 0.40951305E-01 0.12499759E+03</pdfrwt>
<pdfrwt beam="2">  1       21 0.22576097E-02 0.12499759E+03</pdfrwt>
<totfact> 0.57088894E+06</totfact>
</mgrwt>
</event>
<event>
 5    0  0.1579440E+000  0.1249998E+03  0.7546771E-02  0.1235070E+00
         21   -1    0    0  503  502  0.00000000000E+00  0.00000000000E+00  0.11192054532E+03  0.11192054532E+03  0.00000000000E+00 0.  1.
         21   -1    0    0  502  503 -0.00000000000E+00 -0.00000000000E+00 -0.34901905424E+02  0.34901905424E+02  0.00000000000E+00 0.  1.
         25    2    1    2    0    0  0.00000000000E+00  0.00000000000E+00  0.77018639898E+02  0.14682245074E+03  0.12499984460E+03 0.  0.
          4    1    3    3  501    0  0.45140629256E+02  0.42478895685E+02  0.29282703477E+02  0.68571219992E+02  0.15500000000E+01 0. -1.
         -4    1    3    3    0  501 -0.45140629256E+02 -0.42478895685E+02  0.47735936421E+02  0.78251230753E+02  0.15500000000E+01 0. -1.
<mgrwt>
<rscale>  2 0.12499984E+03</rscale>
<asrwt>0</asrwt>
<pdfrwt beam="1">  1       21 0.17218545E-01 0.12499984E+03</pdfrwt>
<pdfrwt beam="2">  1       21 0.53695240E-02 0.12499984E+03</pdfrwt>
<totfact> 0.71160961E+06</totfact>
</mgrwt>
</event>
<event>
 5    0  0.1589559E+000  0.1249975E+03  0.7546771E-02  0.1235073E+00
         21   -1    0    0  503  502  0.00000000000E+00  0.00000000000E+00  0.58653163541E+02  0.58653163541E+02  0.00000000000E+00 0.  1.
         21   -1    0    0  502  503 -0.00000000000E+00 -0.00000000000E+00 -0.66596433098E+02  0.66596433098E+02  0.00000000000E+00 0.  1.
         25    2    1    2    0    0  0.00000000000E+00  0.00000000000E+00 -0.79432695562E+01  0.12524959664E+03  0.12499746368E+03 0.  0.
          4    1    3    3  501    0 -0.36166777847E+02  0.44878075165E+02 -0.28136904079E+02  0.64157348149E+02  0.15500000000E+01 0. -1.
         -4    1    3    3    0  501  0.36166777847E+02 -0.44878075165E+02  0.20193634522E+02  0.61092248490E+02  0.15500000000E+01 0. -1.
<mgrwt>
<rscale>  2 0.12499746E+03</rscale>
<asrwt>0</asrwt>
<pdfrwt beam="1">  1       21 0.90235636E-02 0.12499746E+03</pdfrwt>
<pdfrwt beam="2">  1       21 0.10245605E-01 0.12499746E+03</pdfrwt>
<totfact> 0.74014675E+06</totfact>
</mgrwt>
</event>
<event>
 5    0  0.1535671E+000  0.1250038E+03  0.7546771E-02  0.1235063E+00
         21   -1    0    0  503  502  0.00000000000E+00  0.00000000000E+00  0.17748005068E+03  0.17748005068E+03  0.00000000000E+00 0. -1.
         21   -1    0    0  502  503 -0.00000000000E+00 -0.00000000000E+00 -0.22010858159E+02  0.22010858159E+02  0.00000000000E+00 0. -1.
         25    2    1    2    0    0  0.00000000000E+00  0.00000000000E+00  0.15546919252E+03  0.19949090884E+03  0.12500381149E+03 0.  0.
          4    1    3    3  501    0 -0.41815252907E+01 -0.41336321066E+02  0.15221117726E+03  0.15778726683E+03  0.15500000000E+01 0.  1.
         -4    1    3    3    0  501  0.41815252907E+01  0.41336321066E+02  0.32580152642E+01  0.41703642005E+02  0.15500000000E+01 0.  1.
<mgrwt>
<rscale>  2 0.12500381E+03</rscale>
<asrwt>0</asrwt>
<pdfrwt beam="1">  1       21 0.27304622E-01 0.12500381E+03</pdfrwt>
<pdfrwt beam="2">  1       21 0.33862860E-02 0.12500381E+03</pdfrwt>
<totfact> 0.64976187E+06</totfact>
</mgrwt>
</event>
<event>
 5    0  0.1494723E+000  0.1250050E+03  0.7546771E-02  0.1235061E+00
         21   -1    0    0  503  502  0.00000000000E+00  0.00000000000E+00  0.11729797950E+03  0.11729797950E+03  0.00000000000E+00 0.  1.
         21   -1    0    0  502  503 -0.00000000000E+00 -0.00000000000E+00 -0.33304601376E+02  0.33304601376E+02  0.00000000000E+00 0.  1.
         25    2    1    2    0    0  0.00000000000E+00  0.00000000000E+00  0.83993378120E+02  0.15060258087E+03  0.12500499909E+03 0.  0.
          4    1    3    3  501    0  0.56142860608E+02 -0.10960984822E+02  0.72284102467E+02  0.92193047217E+02  0.15500000000E+01 0. -1.
         -4    1    3    3    0  501 -0.56142860608E+02  0.10960984822E+02  0.11709275653E+02  0.58409533656E+02  0.15500000000E+01 0. -1.
<mgrwt>
<rscale>  2 0.12500500E+03</rscale>
<asrwt>0</asrwt>
<pdfrwt beam="1">  1       21 0.18045843E-01 0.12500500E+03</pdfrwt>
<pdfrwt beam="2">  1       21 0.51237849E-02 0.12500500E+03</pdfrwt>
<totfact> 0.70674595E+06</totfact>
</mgrwt>
</event>
<event>
 5    0  0.1424641E+000  0.1249933E+03  0.7546771E-02  0.1235080E+00
         21   -1    0    0  503  502  0.00000000000E+00  0.00000000000E+00  0.15741615167E+02  0.15741615167E+02  0.00000000000E+00 0. -1.
         21   -1    0    0  502  503 -0.00000000000E+00 -0.00000000000E+00 -0.24812130474E+03  0.24812130474E+03  0.00000000000E+00 0. -1.
         25    2    1    2    0    0  0.00000000000E+00  0.00000000000E+00 -0.23237968957E+03  0.26386291990E+03  0.12499328132E+03 0.  0.
          4    1    3    3  501    0  0.57555835712E+02  0.40069232040E+01 -0.16679695204E+03  0.17650029849E+03  0.15500000000E+01 0.  1.
         -4    1    3    3    0  501 -0.57555835712E+02 -0.40069232040E+01 -0.65582737532E+02  0.87362621414E+02  0.15500000000E+01 0.  1.
<mgrwt>
<rscale>  2 0.12499328E+03</rscale>
<asrwt>0</asrwt>
<pdfrwt beam="1">  1       21 0.24217869E-02 0.12499328E+03</pdfrwt>
<pdfrwt beam="2">  1       21 0.38172509E-01 0.12499328E+03</pdfrwt>
<totfact> 0.58606929E+06</totfact>
</mgrwt>
</event>
<event>
 5    0  0.1403142E+000  0.1250107E+03  0.7546771E-02  0.1235053E+00
         21   -1    0    0  503  502  0.00000000000E+00  0.00000000000E+00  0.25045766311E+03  0.25045766311E+03  0.00000000000E+00 0. -1.
         21   -1    0    0  502  503 -0.00000000000E+00 -0.00000000000E+00 -0.15599121964E+02  0.15599121964E+02  0.00000000000E+00 0. -1.
         25    2    1    2    0    0  0.00000000000E+00  0.00000000000E+00  0.23485854114E+03  0.26605678507E+03  0.12501071368E+03 0.  0.
          4    1    3    3  501    0 -0.45154886918E+02 -0.21144659977E+02  0.19758510548E+03  0.20378502611E+03  0.15500000000E+01 0. -1.
         -4    1    3    3    0  501  0.45154886918E+02  0.21144659977E+02  0.37273435657E+02  0.62271758959E+02  0.15500000000E+01 0. -1.
<mgrwt>
<rscale>  2 0.12501071E+03</rscale>
<asrwt>0</asrwt>
<pdfrwt beam="1">  1       21 0.38531945E-01 0.12501071E+03</pdfrwt>
<pdfrwt beam="2">  1       21 0.23998651E-02 0.12501071E+03</pdfrwt>
<totfact> 0.58382794E+06</totfact>
</mgrwt>
</event>
<event>
 5    0  0.1699507E+000  0.1249995E+03  0.7546771E-02  0.1235070E+00
         21   -1    0    0  503  502  0.00000000000E+00  0.00000000000E+00  0.56627459167E+02  0.56627459167E+02  0.00000000000E+00 0. -1.
         21   -1    0    0  502  503 -0.00000000000E+00 -0.00000000000E+00 -0.68981004276E+02  0.68981004276E+02  0.00000000000E+00 0. -1.
         25    2    1    2    0    0  0.00000000000E+00  0.00000000000E+00 -0.12353545109E+02  0.12560846344E+03  0.12499950405E+03 0.  0.
          4    1    3    3  501    0  0.47526338839E+02 -0.36736171157E+02  0.11097592913E+02  0.61105304378E+02  0.15500000000E+01 0.  1.
         -4    1    3    3    0  501 -0.47526338839E+02  0.36736171157E+02 -0.23451138022E+02  0.64503159064E+02  0.15500000000E+01 0.  1.
<mgrwt>
<rscale>  2 0.12499950E+03</rscale>
<asrwt>0</asrwt>
<pdfrwt beam="1">  1       21 0.87119168E-02 0.12499950E+03</pdfrwt>
<pdfrwt beam="2">  1       21 0.10612462E-01 0.12499950E+03</pdfrwt>
<totfact> 0.73961199E+06</totfact>
</mgrwt>
</event>
<event>
 5    0  0.1426430E+000  0.1249991E+03  0.7546771E-02  0.1235071E+00
         21   -1    0    0  503  502  0.00000000000E+00  0.00000000000E+00  0.28269409711E+03  0.28269409711E+03  0.00000000000E+00 0.  1.
         21   -1    0    0  502  503 -0.00000000000E+00 -0.00000000000E+00 -0.13817742384E+02  0.13817742384E+02  0.00000000000E+00 0.  1.
         25    2    1    2    0    0  0.00000000000E+00  0.00000000000E+00  0.26887635472E+03  0.29651183949E+03  0.12499910731E+03 0.  0.
          4    1    3    3  501    0  0.15377799884E+02  0.52710588636E+02  0.63714678815E+02  0.84123989921E+02  0.15500000000E+01 0.  1.
         -4    1    3    3    0  501 -0.15377799884E+02 -0.52710588636E+02  0.20516167591E+03  0.21238784957E+03  0.15500000000E+01 0.  1.
<mgrwt>
<rscale>  2 0.12499911E+03</rscale>
<asrwt>0</asrwt>
<pdfrwt beam="1">  1       21 0.43491395E-01 0.12499911E+03</pdfrwt>
<pdfrwt beam="2">  1       21 0.21258067E-02 0.12499911E+03</pdfrwt>
<totfact> 0.55748557E+06</totfact>
</mgrwt>
</event>
<event>
 5    0  0.1492831E+000  0.1250031E+03  0.7546771E-02  0.1235064E+00
         21   -1    0    0  503  502  0.00000000000E+00  0.00000000000E+00  0.21930873830E+02  0.21930873830E+02  0.00000000000E+00 0.  1.
         21   -1    0    0  502  503 -0.00000000000E+00 -0.00000000000E+00 -0.17812540883E+03  0.17812540883E+03  0.00000000000E+00 0.  1.
         25    2    1    2    0    0  0.00000000000E+00  0.00000000000E+00 -0.15619453500E+03  0.20005628266E+03  0.12500313383E+03 0.  0.
          4    1    3    3  501    0  0.46503263288E+02 -0.15459174555E+02 -0.14013259542E+03  0.14846240727E+03  0.15500000000E+01 0. -1.
         -4    1    3    3    0  501 -0.46503263288E+02  0.15459174555E+02 -0.16061939581E+02  0.51593875387E+02  0.15500000000E+01 0. -1.
<mgrwt>
<rscale>  2 0.12500313E+03</rscale>
<asrwt>0</asrwt>
<pdfrwt beam="1">  1       21 0.33739806E-02 0.12500313E+03</pdfrwt>
<pdfrwt beam="2">  1       21 0.27403909E-01 0.12500313E+03</pdfrwt>
<totfact> 0.64916004E+06</totfact>
</mgrwt>
</event>
<event>
 5    0  0.1621164E+000  0.1250013E+03  0.7546771E-02  0.1235067E+00
         21   -1    0    0  503  502  0.00000000000E+00  0.00000000000E+00  0.34525864248E+02  0.34525864248E+02  0.00000000000E+00 0. -1.
         21   -1    0    0  502  503 -0.00000000000E+00 -0.00000000000E+00 -0.11314211223E+03  0.11314211223E+03  0.00000000000E+00 0. -1.
         25    2    1    2    0    0  0.00000000000E+00  0.00000000000E+00 -0.78616247987E+02  0.14766797648E+03  0.12500126732E+03 0.  0.
          4    1    3    3  501    0  0.50362565772E+02 -0.33227795708E+02 -0.58482572392E+02  0.84042181150E+02  0.15500000000E+01 0.  1.
         -4    1    3    3    0  501 -0.50362565772E+02  0.33227795708E+02 -0.20133675594E+02  0.63625795333E+02  0.15500000000E+01 0.  1.
<mgrwt>
<rscale>  2 0.12500127E+03</rscale>
<asrwt>0</asrwt>
<pdfrwt beam="1">  1       21 0.53116715E-02 0.12500127E+03</pdfrwt>
<pdfrwt beam="2">  1       21 0.17406479E-01 0.12500127E+03</pdfrwt>
<totfact> 0.71051096E+06</totfact>
</mgrwt>
</event>
<event>
 5    0  0.1557269E+000  0.1249965E+03  0.7546771E-02  0.1235075E+00
         21   -1    0    0  503  502  0.00000000000E+00  0.00000000000E+00  0.80187126549E+02  0.80187126549E+02  0.00000000000E+00 0.  1.
         21   -1    0    0  502  503 -0.00000000000E+00 -0.00000000000E+00 -0.48711455155E+02  0.48711455155E+02  0.00000000000E+00 0.  1.
         25    2    1    2    0    0  0.00000000000E+00  0.00000000000E+00  0.31475671394E+02  0.12889858170E+03  0.12499650585E+03 0.  0.
          4    1    3    3  501    0  0.16025795552E+02  0.59741169391E+02  0.66423060460E+01  0.62228258637E+02  0.15500000000E+01 0.  1.
         -4    1    3    3    0  501 -0.16025795552E+02 -0.59741169391E+02  0.24833365348E+02  0.66670323067E+02  0.15500000000E+01 0.  1.
<mgrwt>
<rscale>  2 0.12499651E+03</rscale>
<asrwt>0</asrwt>
<pdfrwt beam="1">  1       21 0.12336481E-01 0.12499651E+03</pdfrwt>
<pdfrwt beam="2">  1       21 0.74940700E-02 0.12499651E+03</pdfrwt>
<totfact> 0.73519063E+06</totfact>
</mgrwt>
</event>
<event>
 5    0  0.1546593E+000  0.1250009E+03  0.7546771E-02  0.1235068E+00
         21   -1    0    0  503  502  0.00000000000E+00  0.00000000000E+00  0.79795864065E+02  0.79795864065E+02  0.00000000000E+00 0. -1.
         21   -1    0    0  502  503 -0.00000000000E+00 -0.00000000000E+00 -0.48953739831E+02  0.48953739831E+02  0.00000000000E+00 0. -1.
         25    2    1    2    0    0  0.00000000000E+00  0.00000000000E+00  0.30842124233E+02  0.12874960390E+03  0.12500089550E+03 0.  0.
          4    1    3    3  501    0 -0.59485608312E+02 -0.95243385387E+01 -0.16485963148E+01  0.60285744506E+02  0.15500000000E+01 0. -1.
         -4    1    3    3    0  501  0.59485608312E+02  0.95243385387E+01  0.32490720548E+02  0.68463859390E+02  0.15500000000E+01 0. -1.
<mgrwt>
<rscale>  2 0.12500090E+03</rscale>
<asrwt>0</asrwt>
<pdfrwt beam="1">  1       21 0.12276287E-01 0.12500090E+03</pdfrwt>
<pdfrwt beam="2">  1       21 0.75313446E-02 0.12500090E+03</pdfrwt>
<totfact> 0.73530850E+06</totfact>
</mgrwt>
</event>
<event>
 5    0  0.1507521E+000  0.1250005E+03  0.7546771E-02  0.1235068E+00
         21   -1    0    0  503  502  0.00000000000E+00  0.00000000000E+00  0.21864454035E+02  0.21864454035E+02  0.00000000000E+00 0.  1.
         21   -1    0    0  502  503 -0.00000000000E+00 -0.00000000000E+00 -0.17865911876E+03  0.17865911876E+03  0.00000000000E+00 0.  1.
         25    2    1    2    0    0  0.00000000000E+00  0.00000000000E+00 -0.15679466473E+03  0.20052357280E+03  0.12500054544E+03 0.  0.
          4    1    3    3  501    0 -0.55127217704E+02  0.82304279860E+00 -0.12555574347E+03  0.13713619052E+03  0.15500000000E+01 0. -1.
         -4    1    3    3    0  501  0.55127217704E+02 -0.82304279860E+00 -0.31238921260E+02  0.63387382283E+02  0.15500000000E+01 0. -1.
<mgrwt>
<rscale>  2 0.12500055E+03</rscale>
<asrwt>0</asrwt>
<pdfrwt beam="1">  1       21 0.33637622E-02 0.12500055E+03</pdfrwt>
<pdfrwt beam="2">  1       21 0.27486018E-01 0.12500055E+03</pdfrwt>
<totfact> 0.64869668E+06</totfact>
</mgrwt>
</event>
<event>
 5    0  0.1396787E+000  0.1250017E+03  0.7546771E-02  0.1235067E+00
         21   -1    0    0  503  502  0.00000000000E+00  0.00000000000E+00  0.17675486389E+02  0.17675486389E+02  0.00000000000E+00 0.  1.
         21   -1    0    0  502  503 -0.00000000000E+00 -0.00000000000E+00 -0.22100407233E+03  0.22100407233E+03  0.00000000000E+00 0.  1.
         25    2    1    2    0    0  0.00000000000E+00  0.00000000000E+00 -0.20332858594E+03  0.23867955872E+03  0.12500167155E+03 0.  0.
          4    1    3    3  501    0  0.53597847323E+02 -0.12837720078E+02 -0.15786768884E+03  0.16721885652E+03  0.15500000000E+01 0.  1.
         -4    1    3    3    0  501 -0.53597847323E+02  0.12837720078E+02 -0.45460897103E+02  0.71460702207E+02  0.15500000000E+01 0.  1.
<mgrwt>
<rscale>  2 0.12500167E+03</rscale>
<asrwt>0</asrwt>
<pdfrwt beam="1">  1       21 0.27193056E-02 0.12500167E+03</pdfrwt>
<pdfrwt beam="2">  1       21 0.34000626E-01 0.12500167E+03</pdfrwt>
<totfact> 0.60958103E+06</totfact>
</mgrwt>
</event>
<event>
 5    0  0.1304101E+000  0.1249994E+03  0.7546771E-02  0.1235070E+00
         21   -1    0    0  503  502  0.00000000000E+00  0.00000000000E+00  0.78265857789E+03  0.78265857789E+03  0.00000000000E+00 0. -1.
         21   -1    0    0  502  503 -0.00000000000E+00 -0.00000000000E+00 -0.49909554884E+01  0.49909554884E+01  0.00000000000E+00 0. -1.
         25    2    1    2    0    0  0.00000000000E+00  0.00000000000E+00  0.77766762240E+03  0.78764953338E+03  0.12499942600E+03 0.  0.
          4    1    3    3  501    0  0.46169145491E+02 -0.32232014831E+02  0.21819751119E+03  0.22535094667E+03  0.15500000000E+01 0.  1.
         -4    1    3    3    0  501 -0.46169145491E+02  0.32232014831E+02  0.55947011121E+03  0.56229858671E+03  0.15500000000E+01 0.  1.
<mgrwt>
<rscale>  2 0.12499943E+03</rscale>
<asrwt>0</asrwt>
<pdfrwt beam="1">  1       21 0.12040891E+00 0.12499943E+03</pdfrwt>
<pdfrwt beam="2">  1       21 0.76783993E-03 0.12499943E+03</pdfrwt>
<totfact> 0.29776569E+06</totfact>
</mgrwt>
</event>
<event>
 5    0  0.1432902E+000  0.1249996E+03  0.7546771E-02  0.1235070E+00
         21   -1    0    0  503  502  0.00000000000E+00  0.00000000000E+00  0.10444821258E+02  0.10444821258E+02  0.00000000000E+00 0.  1.
         21   -1    0    0  502  503 -0.00000000000E+00 -0.00000000000E+00 -0.37398696482E+03  0.37398696482E+03  0.00000000000E+00 0.  1.
         25    2    1    2    0    0  0.00000000000E+00  0.00000000000E+00 -0.36354214357E+03  0.38443178608E+03  0.12499963201E+03 0.  0.
          4    1    3    3  501    0 -0.48836983785E+02  0.34035050718E+02 -0.24015539101E+03  0.24742766618E+03  0.15500000000E+01 0. -1.
         -4    1    3    3    0  501  0.48836983785E+02 -0.34035050718E+02 -0.12338675256E+03  0.13700411990E+03  0.15500000000E+01 0. -1.
<mgrwt>
<rscale>  2 0.12499963E+03</rscale>
<asrwt>0</asrwt>
<pdfrwt beam="1">  1       21 0.16068959E-02 0.12499963E+03</pdfrwt>
<pdfrwt beam="2">  1       21 0.57536444E-01 0.12499963E+03</pdfrwt>
<totfact> 0.49091867E+06</totfact>
</mgrwt>
</event>
<event>
 5    0  0.1378856E+000  0.1250002E+03  0.7546771E-02  0.1235069E+00
         21   -1    0    0  503  502  0.00000000000E+00  0.00000000000E+00  0.15009106914E+02  0.15009106914E+02  0.00000000000E+00 0. -1.
         21   -1    0    0  502  503 -0.00000000000E+00 -0.00000000000E+00 -0.26025942853E+03  0.26025942853E+03  0.00000000000E+00 0. -1.
         25    2    1    2    0    0  0.00000000000E+00  0.00000000000E+00 -0.24525032162E+03  0.27526853544E+03  0.12500018541E+03 0.  0.
          4    1    3    3  501    0  0.22088461268E+02 -0.33603549833E+02 -0.22793191986E+03  0.23145725582E+03  0.15500000000E+01 0.  1.
         -4    1    3    3    0  501 -0.22088461268E+02  0.33603549833E+02 -0.17318401757E+02  0.43811279620E+02  0.15500000000E+01 0.  1.
<mgrwt>
<rscale>  2 0.12500019E+03</rscale>
<asrwt>0</asrwt>
<pdfrwt beam="1">  1       21 0.23090934E-02 0.12500019E+03</pdfrwt>
<pdfrwt beam="2">  1       21 0.40039912E-01 0.12500019E+03</pdfrwt>
<totfact> 0.57575917E+06</totfact>
</mgrwt>
</event>
<event>
 5    0  0.1355201E+000  0.1249963E+03  0.7546771E-02  0.1235075E+00
         21   -1    0    0  503  502  0.00000000000E+00  0.00000000000E+00  0.47034221600E+03  0.47034221600E+03  0.00000000000E+00 0.  1.
         21   -1    0    0  502  503 -0.00000000000E+00 -0.00000000000E+00 -0.83046320907E+01  0.83046320907E+01  0.00000000000E+00 0.  1.
         25    2    1    2    0    0  0.00000000000E+00  0.00000000000E+00  0.46203758391E+03  0.47864684809E+03  0.12499630492E+03 0.  0.
          4    1    3    3  501    0  0.14691085059E+02 -0.59845502426E+02  0.19153728786E+03  0.20121194617E+03  0.15500000000E+01 0. -1.
         -4    1    3    3    0  501 -0.14691085059E+02  0.59845502426E+02  0.27050029605E+03  0.27743490192E+03  0.15500000000E+01 0. -1.
<mgrwt>
<rscale>  2 0.12499630E+03</rscale>
<asrwt>0</asrwt>
<pdfrwt beam="1">  1       21 0.72360320E-01 0.12499630E+03</pdfrwt>
<pdfrwt beam="2">  1       21 0.12776361E-02 0.12499630E+03</pdfrwt>
<totfact> 0.43230276E+06</totfact>
</mgrwt>
</event>
<event>
 5    0  0.1224100E+000  0.1250150E+03  0.7546771E-02  0.1235046E+00
         21   -1    0    0  503  502  0.00000000000E+00  0.00000000000E+00  0.47222641397E+01  0.47222641397E+01  0.00000000000E+00 0. -1.
         21   -1    0    0  502  503 -0.00000000000E+00 -0.00000000000E+00 -0.82739769459E+03  0.82739769459E+03  0.00000000000E+00 0. -1.
         25    2    1    2    0    0  0.00000000000E+00  0.00000000000E+00 -0.82267543045E+03  0.83211995873E+03  0.12501504649E+03 0.  0.
          4    1    3    3  501    0  0.26513981729E+02  0.14099702074E+02 -0.77609247394E+03  0.77667478615E+03  0.15500000000E+01 0.  1.
         -4    1    3    3    0  501 -0.26513981729E+02 -0.14099702074E+02 -0.46582956505E+02  0.55445172580E+02  0.15500000000E+01 0.  1.
<mgrwt>
<rscale>  2 0.12501505E+03</rscale>
<asrwt>0</asrwt>
<pdfrwt beam="1">  1       21 0.72650243E-03 0.12501505E+03</pdfrwt>
<pdfrwt beam="2">  1       21 0.12729191E+00 0.12501505E+03</pdfrwt>
<totfact> 0.28315357E+06</totfact>
</mgrwt>
</event>
<event>
 5    0  0.1484879E+000  0.1250073E+03  0.7546771E-02  0.1235058E+00
         21   -1    0    0  503  502  0.00000000000E+00  0.00000000000E+00  0.63292710162E+02  0.63292710162E+02  0.00000000000E+00 0. -1.
         21   -1    0    0  502  503 -0.00000000000E+00 -0.00000000000E+00 -0.61724465962E+02  0.61724465962E+02  0.00000000000E+00 0. -1.
         25    2    1    2    0    0  0.00000000000E+00  0.00000000000E+00  0.15682441996E+01  0.12501717612E+03  0.12500733953E+03 0.  0.
          4    1    3    3  501    0  0.14276201792E+01  0.35751404361E+02  0.52014173916E+02  0.63151229610E+02  0.15500000000E+01 0. -1.
         -4    1    3    3    0  501 -0.14276201792E+01 -0.35751404361E+02 -0.50445929716E+02  0.61865946514E+02  0.15500000000E+01 0. -1.
<mgrwt>
<rscale>  2 0.12500734E+03</rscale>
<asrwt>0</asrwt>
<pdfrwt beam="1">  1       21 0.97373400E-02 0.12500734E+03</pdfrwt>
<pdfrwt beam="2">  1       21 0.94960717E-02 0.12500734E+03</pdfrwt>
<totfact> 0.74027369E+06</totfact>
</mgrwt>
</event>
<event>
 5    0  0.1617056E+000  0.1249993E+03  0.7546771E-02  0.1235070E+00
         21   -1    0    0  503  502  0.00000000000E+00  0.00000000000E+00  0.91116113525E+02  0.91116113525E+02  0.00000000000E+00 0.  1.
         21   -1    0    0  502  503 -0.00000000000E+00 -0.00000000000E+00 -0.42870610624E+02  0.42870610624E+02  0.00000000000E+00 0.  1.
         25    2    1    2    0    0  0.00000000000E+00  0.00000000000E+00  0.48245502902E+02  0.13398672415E+03  0.12499925479E+03 0.  0.
          4    1    3    3  501    0  0.73325463638E+01  0.57302845575E+02  0.49633493400E+02  0.76179186883E+02  0.15500000000E+01 0.  1.
         -4    1    3    3    0  501 -0.73325463638E+01 -0.57302845575E+02 -0.13879904984E+01  0.57807537266E+02  0.15500000000E+01 0.  1.
<mgrwt>
<rscale>  2 0.12499925E+03</rscale>
<asrwt>0</asrwt>
<pdfrwt beam="1">  1       21 0.14017864E-01 0.12499925E+03</pdfrwt>
<pdfrwt beam="2">  1       21 0.65954786E-02 0.12499925E+03</pdfrwt>
<totfact> 0.72832303E+06</totfact>
</mgrwt>
</event>
<event>
 5    0  0.1577524E+000  0.1250104E+03  0.7546771E-02  0.1235053E+00
         21   -1    0    0  503  502  0.00000000000E+00  0.00000000000E+00  0.37561454559E+02  0.37561454559E+02  0.00000000000E+00 0. -1.
         21   -1    0    0  502  503 -0.00000000000E+00 -0.00000000000E+00 -0.10401362463E+03  0.10401362463E+03  0.00000000000E+00 0. -1.
         25    2    1    2    0    0  0.00000000000E+00  0.00000000000E+00 -0.66452170075E+02  0.14157507919E+03  0.12501044813E+03 0.  0.
          4    1    3    3  501    0 -0.29103844571E+02 -0.55205117498E+02 -0.29669625241E+02  0.69118217054E+02  0.15500000000E+01 0. -1.
         -4    1    3    3    0  501  0.29103844571E+02  0.55205117498E+02 -0.36782544834E+02  0.72456862140E+02  0.15500000000E+01 0. -1.
<mgrwt>
<rscale>  2 0.12501045E+03</rscale>
<asrwt>0</asrwt>
<pdfrwt beam="1">  1       21 0.57786853E-02 0.12501045E+03</pdfrwt>
<pdfrwt beam="2">  1       21 0.16002096E-01 0.12501045E+03</pdfrwt>
<totfact> 0.71815231E+06</totfact>
</mgrwt>
</event>
<event>
 5    0  0.1565785E+000  0.1249938E+03  0.7546771E-02  0.1235079E+00
         21   -1    0    0  503  502  0.00000000000E+00  0.00000000000E+00  0.11406113122E+03  0.11406113122E+03  0.00000000000E+00 0.  1.
         21   -1    0    0  502  503 -0.00000000000E+00 -0.00000000000E+00 -0.34243591910E+02  0.34243591910E+02  0.00000000000E+00 0.  1.
         25    2    1    2    0    0  0.00000000000E+00  0.00000000000E+00  0.79817539309E+02  0.14830472313E+03  0.12499380513E+03 0.  0.
          4    1    3    3  501    0 -0.44821288286E+02 -0.32427375580E+02  0.54599336934E+01  0.55612012610E+02  0.15500000000E+01 0.  1.
         -4    1    3    3    0  501  0.44821288286E+02  0.32427375580E+02  0.74357605616E+02  0.92692710520E+02  0.15500000000E+01 0.  1.
<mgrwt>
<rscale>  2 0.12499381E+03</rscale>
<asrwt>0</asrwt>
<pdfrwt beam="1">  1       21 0.17547866E-01 0.12499381E+03</pdfrwt>
<pdfrwt beam="2">  1       21 0.52682450E-02 0.12499381E+03</pdfrwt>
<totfact> 0.70984008E+06</totfact>
</mgrwt>
</event>
<event>
 5    0  0.1494529E+000  0.1249980E+03  0.7546771E-02  0.1235072E+00
         21   -1    0    0  503  502  0.00000000000E+00  0.00000000000E+00  0.31587768360E+02  0.31587768360E+02  0.00000000000E+00 0.  1.
         21   -1    0    0  502  503 -0.00000000000E+00 -0.00000000000E+00 -0.12365934126E+03  0.12365934126E+03  0.00000000000E+00 0.  1.
         25    2    1    2    0    0  0.00000000000E+00  0.00000000000E+00 -0.92071572896E+02  0.15524710962E+03  0.12499796202E+03 0.  0.
          4    1    3    3  501    0 -0.45698540364E+02 -0.12220799095E+02 -0.96730202348E+02  0.10768862089E+03  0.15500000000E+01 0. -1.
         -4    1    3    3    0  501  0.45698540364E+02  0.12220799095E+02  0.46586294520E+01  0.47558488730E+02  0.15500000000E+01 0. -1.
<mgrwt>
<rscale>  2 0.12499796E+03</rscale>
<asrwt>0</asrwt>
<pdfrwt beam="1">  1       21 0.48596567E-02 0.12499796E+03</pdfrwt>
<pdfrwt beam="2">  1       21 0.19024514E-01 0.12499796E+03</pdfrwt>
<totfact> 0.70108594E+06</totfact>
</mgrwt>
</event>
<event>
 5    0  0.1483587E+000  0.1250004E+03  0.7546771E-02  0.1235069E+00
         21   -1    0    0  503  502  0.00000000000E+00  0.00000000000E+00  0.26704525313E+02  0.26704525313E+02  0.00000000000E+00 0. -1.
         21   -1    0    0  502  503 -0.00000000000E+00 -0.00000000000E+00 -0.14627771569E+03  0.14627771569E+03  0.00000000000E+00 0. -1.
         25    2    1    2    0    0  0.00000000000E+00  0.00000000000E+00 -0.11957319038E+03  0.17298224101E+03  0.12500043138E+03 0.  0.
          4    1    3    3  501    0 -0.35655637549E+02  0.51199682409E+02 -0.64405948761E+02  0.89684227731E+02  0.15500000000E+01 0. -1.
         -4    1    3    3    0  501  0.35655637549E+02 -0.51199682409E+02 -0.55167241620E+02  0.83298013276E+02  0.15500000000E+01 0. -1.
<mgrwt>
<rscale>  2 0.12500043E+03</rscale>
<asrwt>0</asrwt>
<pdfrwt beam="1">  1       21 0.41083885E-02 0.12500043E+03</pdfrwt>
<pdfrwt beam="2">  1       21 0.22504264E-01 0.12500043E+03</pdfrwt>
<totfact> 0.67965110E+06</totfact>
</mgrwt>
</event>
<event>
 5    0  0.1587684E+000  0.1250001E+03  0.7546771E-02  0.1235069E+00
         21   -1    0    0  503  502  0.00000000000E+00  0.00000000000E+00  0.10828350970E+03  0.10828350970E+03  0.00000000000E+00 0.  1.
         21   -1    0    0  502  503 -0.00000000000E+00 -0.00000000000E+00 -0.36074340038E+02  0.36074340038E+02  0.00000000000E+00 0.  1.
         25    2    1    2    0    0  0.00000000000E+00  0.00000000000E+00  0.72209169664E+02  0.14435784974E+03  0.12500009839E+03 0.  0.
          4    1    3    3  501    0 -0.60660810071E+02  0.13905487807E+02  0.42509351407E+02  0.75382650037E+02  0.15500000000E+01 0. -1.
         -4    1    3    3    0  501  0.60660810071E+02 -0.13905487807E+02  0.29699818258E+02  0.68975199703E+02  0.15500000000E+01 0. -1.
<mgrwt>
<rscale>  2 0.12500010E+03</rscale>
<asrwt>0</asrwt>
<pdfrwt beam="1">  1       21 0.16659001E-01 0.12500010E+03</pdfrwt>
<pdfrwt beam="2">  1       21 0.55498985E-02 0.12500010E+03</pdfrwt>
<totfact> 0.71475200E+06</totfact>
</mgrwt>
</event>
<event>
 5    0  0.1625926E+000  0.1249975E+03  0.7546771E-02  0.1235073E+00
         21   -1    0    0  503  502  0.00000000000E+00  0.00000000000E+00  0.51556896474E+02  0.51556896474E+02  0.00000000000E+00 0.  1.
         21   -1    0    0  502  503 -0.00000000000E+00 -0.00000000000E+00 -0.75762806588E+02  0.75762806588E+02  0.00000000000E+00 0.  1.
         25    2    1    2    0    0  0.00000000000E+00  0.00000000000E+00 -0.24205910113E+02  0.12731970306E+03  0.12499752279E+03 0.  0.
          4    1    3    3  501    0 -0.58102497488E+02  0.11855750901E+02  0.79408765614E+01  0.59849135869E+02  0.15500000000E+01 0.  1.
         -4    1    3    3    0  501  0.58102497488E+02 -0.11855750901E+02 -0.32146786675E+02  0.67470567192E+02  0.15500000000E+01 0.  1.
<mgrwt>
<rscale>  2 0.12499752E+03</rscale>
<asrwt>0</asrwt>
<pdfrwt beam="1">  1       21 0.79318303E-02 0.12499752E+03</pdfrwt>
<pdfrwt beam="2">  1       21 0.11655816E-01 0.12499752E+03</pdfrwt>
<totfact> 0.73730339E+06</totfact>
</mgrwt>
</event>
<event>
 5    0  0.1569320E+000  0.1249952E+03  0.7546771E-02  0.1235077E+00
         21   -1    0    0  503  502  0.00000000000E+00  0.00000000000E+00  0.21287306305E+03  0.21287306305E+03  0.00000000000E+00 0. -1.
         21   -1    0    0  502  503 -0.00000000000E+00 -0.00000000000E+00 -0.18348716451E+02  0.18348716451E+02  0.00000000000E+00 0. -1.
         25    2    1    2    0    0  0.00000000000E+00  0.00000000000E+00  0.19452434660E+03  0.23122177951E+03  0.12499515949E+03 0.  0.
          4    1    3    3  501    0 -0.47909995072E+02 -0.25541503598E+02  0.15445230391E+03  0.16372431926E+03  0.15500000000E+01 0.  1.
         -4    1    3    3    0  501  0.47909995072E+02  0.25541503598E+02  0.40072042693E+02  0.67497460244E+02  0.15500000000E+01 0.  1.
<mgrwt>
<rscale>  2 0.12499516E+03</rscale>
<asrwt>0</asrwt>
<pdfrwt beam="1">  1       21 0.32749700E-01 0.12499516E+03</pdfrwt>
<pdfrwt beam="2">  1       21 0.28228796E-02 0.12499516E+03</pdfrwt>
<totfact> 0.61700140E+06</totfact>
</mgrwt>
</event>
<event>
 5    0  0.1222151E+000  0.1250144E+03  0.7546771E-02  0.1235047E+00
         21   -1    0    0  503  502  0.00000000000E+00  0.00000000000E+00  0.14551092828E+04  0.14551092828E+04  0.00000000000E+00 0. -1.
         21   -1    0    0  502  503 -0.00000000000E+00 -0.00000000000E+00 -0.26851244488E+01  0.26851244488E+01  0.00000000000E+00 0. -1.
         25    2    1    2    0    0  0.00000000000E+00  0.00000000000E+00  0.14524241583E+04  0.14577944072E+04  0.12501439135E+03 0.  0.
          4    1    3    3  501    0 -0.25274618835E+02  0.56336020260E+02  0.83817813014E+03  0.84045079207E+03  0.15500000000E+01 0.  1.
         -4    1    3    3    0  501  0.25274618835E+02 -0.56336020260E+02  0.61424602819E+03  0.61734361517E+03  0.15500000000E+01 0.  1.
<mgrwt>
<rscale>  2 0.12501439E+03</rscale>
<asrwt>0</asrwt>
<pdfrwt beam="1">  1       21 0.22386234E+00 0.12501439E+03</pdfrwt>
<pdfrwt beam="2">  1       21 0.41309723E-03 0.12501439E+03</pdfrwt>
<totfact> 0.14625135E+06</totfact>
</mgrwt>
</event>
<event>
 5    0  0.1451353E+000  0.1250023E+03  0.7546771E-02  0.1235066E+00
         21   -1    0    0  503  502  0.00000000000E+00  0.00000000000E+00  0.19893200210E+02  0.19893200210E+02  0.00000000000E+00 0.  1.
         21   -1    0    0  502  503 -0.00000000000E+00 -0.00000000000E+00 -0.19636833209E+03  0.19636833209E+03  0.00000000000E+00 0.  1.
         25    2    1    2    0    0  0.00000000000E+00  0.00000000000E+00 -0.17647513188E+03  0.21626153230E+03  0.12500231270E+03 0.  0.
          4    1    3    3  501    0  0.48697253240E+02 -0.60468612664E+01 -0.15515322445E+03  0.16273571385E+03  0.15500000000E+01 0.  1.
         -4    1    3    3    0  501 -0.48697253240E+02  0.60468612664E+01 -0.21321907426E+02  0.53525818448E+02  0.15500000000E+01 0.  1.
<mgrwt>
<rscale>  2 0.12500231E+03</rscale>
<asrwt>0</asrwt>
<pdfrwt beam="1">  1       21 0.30604925E-02 0.12500231E+03</pdfrwt>
<pdfrwt beam="2">  1       21 0.30210511E-01 0.12500231E+03</pdfrwt>
<totfact> 0.63203018E+06</totfact>
</mgrwt>
</event>
<event>
 5    0  0.1317435E+000  0.1249470E+03  0.7546771E-02  0.1235152E+00
         21   -1    0    0  503  502  0.00000000000E+00  0.00000000000E+00  0.10366450320E+03  0.10366450320E+03  0.00000000000E+00 0. -1.
         21   -1    0    0  502  503 -0.00000000000E+00 -0.00000000000E+00 -0.37649727187E+02  0.37649727187E+02  0.00000000000E+00 0. -1.
         25    2    1    2    0    0  0.00000000000E+00  0.00000000000E+00  0.66014776008E+02  0.14131423038E+03  0.12494703301E+03 0.  0.
          4    1    3    3  501    0 -0.30881210689E+02  0.29824987853E+02 -0.18292327602E+02  0.46692513567E+02  0.15500000000E+01 0. -1.
         -4    1    3    3    0  501  0.30881210689E+02 -0.29824987853E+02  0.84307103610E+02  0.94621716816E+02  0.15500000000E+01 0. -1.
<mgrwt>
<rscale>  2 0.12494703E+03</rscale>
<asrwt>0</asrwt>
<pdfrwt beam="1">  1       21 0.15948385E-01 0.12494703E+03</pdfrwt>
<pdfrwt beam="2">  1       21 0.57922658E-02 0.12494703E+03</pdfrwt>
<totfact> 0.71965256E+06</totfact>
</mgrwt>
</event>
<event>
 5    0  0.1587494E+000  0.1250165E+03  0.7546771E-02  0.1235044E+00
         21   -1    0    0  503  502  0.00000000000E+00  0.00000000000E+00  0.56760881850E+02  0.56760881850E+02  0.00000000000E+00 0.  1.
         21   -1    0    0  502  503 -0.00000000000E+00 -0.00000000000E+00 -0.68837535955E+02  0.68837535955E+02  0.00000000000E+00 0.  1.
         25    2    1    2    0    0  0.00000000000E+00  0.00000000000E+00 -0.12076654105E+02  0.12559841781E+03  0.12501646684E+03 0.  0.
          4    1    3    3  501    0 -0.27829102424E+02 -0.47982607689E+02 -0.34948785178E+02  0.65579033751E+02  0.15500000000E+01 0.  1.
         -4    1    3    3    0  501  0.27829102424E+02  0.47982607689E+02  0.22872131073E+02  0.60019384054E+02  0.15500000000E+01 0.  1.
<mgrwt>
<rscale>  2 0.12501647E+03</rscale>
<asrwt>0</asrwt>
<pdfrwt beam="1">  1       21 0.87324433E-02 0.12501647E+03</pdfrwt>
<pdfrwt beam="2">  1       21 0.10590390E-01 0.12501647E+03</pdfrwt>
<totfact> 0.73930619E+06</totfact>
</mgrwt>
</event>
<event>
 5    0  0.1222151E+000  0.1249996E+03  0.7546771E-02  0.1235070E+00
         21   -1    0    0  503  502  0.00000000000E+00  0.00000000000E+00  0.95691515045E+03  0.95691515045E+03  0.00000000000E+00 0.  1.
         21   -1    0    0  502  503 -0.00000000000E+00 -0.00000000000E+00 -0.40820997726E+01  0.40820997726E+01  0.00000000000E+00 0.  1.
         25    2    1    2    0    0  0.00000000000E+00  0.00000000000E+00  0.95283305068E+03  0.96099725022E+03  0.12499956989E+03 0.  0.
          4    1    3    3  501    0 -0.31959044629E+02 -0.43785723952E+02  0.23756191107E+03  0.24367321200E+03  0.15500000000E+01 0. -1.
         -4    1    3    3    0  501  0.31959044629E+02  0.43785723952E+02  0.71527113961E+03  0.71732403823E+03  0.15500000000E+01 0. -1.
<mgrwt>
<rscale>  2 0.12499957E+03</rscale>
<asrwt>0</asrwt>
<pdfrwt beam="1">  1       21 0.14721754E+00 0.12499957E+03</pdfrwt>
<pdfrwt beam="2">  1       21 0.62801611E-03 0.12499957E+03</pdfrwt>
<totfact> 0.24619553E+06</totfact>
</mgrwt>
</event>
<event>
 5    0  0.1514495E+000  0.1250095E+03  0.7546771E-02  0.1235054E+00
         21   -1    0    0  503  502  0.00000000000E+00  0.00000000000E+00  0.69405429420E+02  0.69405429420E+02  0.00000000000E+00 0. -1.
         21   -1    0    0  502  503 -0.00000000000E+00 -0.00000000000E+00 -0.56290156255E+02  0.56290156255E+02  0.00000000000E+00 0. -1.
         25    2    1    2    0    0  0.00000000000E+00  0.00000000000E+00  0.13115273165E+02  0.12569558568E+03  0.12500947911E+03 0.  0.
          4    1    3    3  501    0  0.15386905570E+02  0.28799430298E+02  0.60125507632E+02  0.68437147928E+02  0.15500000000E+01 0.  1.
         -4    1    3    3    0  501 -0.15386905570E+02 -0.28799430298E+02 -0.47010234467E+02  0.57258437747E+02  0.15500000000E+01 0.  1.
<mgrwt>
<rscale>  2 0.12500948E+03</rscale>
<asrwt>0</asrwt>
<pdfrwt beam="1">  1       21 0.10677758E-01 0.12500948E+03</pdfrwt>
<pdfrwt beam="2">  1       21 0.86600240E-02 0.12500948E+03</pdfrwt>
<totfact> 0.73930277E+06</totfact>
</mgrwt>
</event>
<event>
 5    0  0.1444736E+000  0.1250037E+03  0.7546771E-02  0.1235063E+00
         21   -1    0    0  503  502  0.00000000000E+00  0.00000000000E+00  0.19028510898E+02  0.19028510898E+02  0.00000000000E+00 0.  1.
         21   -1    0    0  502  503 -0.00000000000E+00 -0.00000000000E+00 -0.20529628207E+03  0.20529628207E+03  0.00000000000E+00 0.  1.
         25    2    1    2    0    0  0.00000000000E+00  0.00000000000E+00 -0.18626777117E+03  0.22432479297E+03  0.12500372060E+03 0.  0.
          4    1    3    3  501    0 -0.42760956398E+02  0.43825053521E+01 -0.17451158714E+03  0.17973425465E+03  0.15500000000E+01 0.  1.
         -4    1    3    3    0  501  0.42760956398E+02 -0.43825053521E+01 -0.11756184029E+02  0.44590538325E+02  0.15500000000E+01 0.  1.
<mgrwt>
<rscale>  2 0.12500372E+03</rscale>
<asrwt>0</asrwt>
<pdfrwt beam="1">  1       21 0.29274630E-02 0.12500372E+03</pdfrwt>
<pdfrwt beam="2">  1       21 0.31584045E-01 0.12500372E+03</pdfrwt>
<totfact> 0.62377334E+06</totfact>
</mgrwt>
</event>
<event>
 5    0  0.1467192E+000  0.1250030E+03  0.7546771E-02  0.1235065E+00
         21   -1    0    0  503  502  0.00000000000E+00  0.00000000000E+00  0.15014415348E+02  0.15014415348E+02  0.00000000000E+00 0.  1.
         21   -1    0    0  502  503 -0.00000000000E+00 -0.00000000000E+00 -0.26017901482E+03  0.26017901482E+03  0.00000000000E+00 0.  1.
         25    2    1    2    0    0  0.00000000000E+00  0.00000000000E+00 -0.24516459947E+03  0.27519343017E+03  0.12500297266E+03 0.  0.
          4    1    3    3  501    0  0.85138641468E+01 -0.45177546111E+02 -0.29426620091E+02  0.54606089635E+02  0.15500000000E+01 0. -1.
         -4    1    3    3    0  501 -0.85138641468E+01  0.45177546111E+02 -0.21573797938E+03  0.22058734053E+03  0.15500000000E+01 0. -1.
<mgrwt>
<rscale>  2 0.12500297E+03</rscale>
<asrwt>0</asrwt>
<pdfrwt beam="1">  1       21 0.23099102E-02 0.12500297E+03</pdfrwt>
<pdfrwt beam="2">  1       21 0.40027539E-01 0.12500297E+03</pdfrwt>
<totfact> 0.57578521E+06</totfact>
</mgrwt>
</event>
<event>
 5    0  0.1645884E+000  0.1249974E+03  0.7546771E-02  0.1235073E+00
         21   -1    0    0  503  502  0.00000000000E+00  0.00000000000E+00  0.37767331087E+02  0.37767331087E+02  0.00000000000E+00 0.  1.
         21   -1    0    0  502  503 -0.00000000000E+00 -0.00000000000E+00 -0.10342507605E+03  0.10342507605E+03  0.00000000000E+00 0.  1.
         25    2    1    2    0    0  0.00000000000E+00  0.00000000000E+00 -0.65657744966E+02  0.14119240714E+03  0.12499742541E+03 0.  0.
          4    1    3    3  501    0 -0.56227944708E+02  0.26875878399E+02 -0.27803654072E+02  0.68259360424E+02  0.15500000000E+01 0. -1.
         -4    1    3    3    0  501  0.56227944708E+02 -0.26875878399E+02 -0.37854090894E+02  0.72933046715E+02  0.15500000000E+01 0. -1.
<mgrwt>
<rscale>  2 0.12499743E+03</rscale>
<asrwt>0</asrwt>
<pdfrwt beam="1">  1       21 0.58103586E-02 0.12499743E+03</pdfrwt>
<pdfrwt beam="2">  1       21 0.15911550E-01 0.12499743E+03</pdfrwt>
<totfact> 0.71888737E+06</totfact>
</mgrwt>
</event>
<event>
 5    0  0.1455840E+000  0.1249959E+03  0.7546771E-02  0.1235076E+00
         21   -1    0    0  503  502  0.00000000000E+00  0.00000000000E+00  0.18852873729E+03  0.18852873729E+03  0.00000000000E+00 0.  1.
         21   -1    0    0  502  503 -0.00000000000E+00 -0.00000000000E+00 -0.20718284231E+02  0.20718284231E+02  0.00000000000E+00 0.  1.
         25    2    1    2    0    0  0.00000000000E+00  0.00000000000E+00  0.16781045306E+03  0.20924702153E+03  0.12499587137E+03 0.  0.
          4    1    3    3  501    0  0.40725508747E+02  0.12931362954E+02  0.75979905054E+01  0.43427170876E+02  0.15500000000E+01 0.  1.
         -4    1    3    3    0  501 -0.40725508747E+02 -0.12931362954E+02  0.16021246256E+03  0.16581985065E+03  0.15500000000E+01 0.  1.
<mgrwt>
<rscale>  2 0.12499587E+03</rscale>
<asrwt>0</asrwt>
<pdfrwt beam="1">  1       21 0.29004420E-01 0.12499587E+03</pdfrwt>
<pdfrwt beam="2">  1       21 0.31874285E-02 0.12499587E+03</pdfrwt>
<totfact> 0.63945523E+06</totfact>
</mgrwt>
</event>
<event>
 5    0  0.1222151E+000  0.1249824E+03  0.7546771E-02  0.1235097E+00
         21   -1    0    0  503  502  0.00000000000E+00  0.00000000000E+00  0.43500194070E+01  0.43500194070E+01  0.00000000000E+00 0. -1.
         21   -1    0    0  502  503 -0.00000000000E+00 -0.00000000000E+00 -0.89773119314E+03  0.89773119314E+03  0.00000000000E+00 0. -1.
         25    2    1    2    0    0  0.00000000000E+00  0.00000000000E+00 -0.89338117373E+03  0.90208121254E+03  0.12498236855E+03 0.  0.
          4    1    3    3  501    0  0.52074819170E+01  0.50022191104E+02 -0.17920727244E+03  0.18613700993E+03  0.15500000000E+01 0.  1.
         -4    1    3    3    0  501 -0.52074819170E+01 -0.50022191104E+02 -0.71417390129E+03  0.71594420261E+03  0.15500000000E+01 0.  1.
<mgrwt>
<rscale>  2 0.12498237E+03</rscale>
<asrwt>0</asrwt>
<pdfrwt beam="1">  1       21 0.66923265E-03 0.12498237E+03</pdfrwt>
<pdfrwt beam="2">  1       21 0.13811272E+00 0.12498237E+03</pdfrwt>
<totfact> 0.26250771E+06</totfact>
</mgrwt>
</event>
<event>
 5    0  0.1222151E+000  0.1250026E+03  0.7546771E-02  0.1235065E+00
         21   -1    0    0  503  502  0.00000000000E+00  0.00000000000E+00  0.62581591550E+03  0.62581591550E+03  0.00000000000E+00 0.  1.
         21   -1    0    0  502  503 -0.00000000000E+00 -0.00000000000E+00 -0.62421144600E+01  0.62421144600E+01  0.00000000000E+00 0.  1.
         25    2    1    2    0    0  0.00000000000E+00  0.00000000000E+00  0.61957380104E+03  0.63205802996E+03  0.12500263318E+03 0.  0.
          4    1    3    3  501    0 -0.12877421250E+02 -0.20383882359E+02  0.60124903715E+03  0.60173427508E+03  0.15500000000E+01 0.  1.
         -4    1    3    3    0  501  0.12877421250E+02  0.20383882359E+02  0.18324763890E+02  0.30323754875E+02  0.15500000000E+01 0.  1.
<mgrwt>
<rscale>  2 0.12500263E+03</rscale>
<asrwt>0</asrwt>
<pdfrwt beam="1">  1       21 0.96279322E-01 0.12500263E+03</pdfrwt>
<pdfrwt beam="2">  1       21 0.96032580E-03 0.12500263E+03</pdfrwt>
<totfact> 0.35679520E+06</totfact>
</mgrwt>
</event>
<event>
 5    0  0.1566159E+000  0.1249998E+03  0.7546771E-02  0.1235070E+00
         21   -1    0    0  503  502  0.00000000000E+00  0.00000000000E+00  0.15384555120E+03  0.15384555120E+03  0.00000000000E+00 0.  1.
         21   -1    0    0  502  503 -0.00000000000E+00 -0.00000000000E+00 -0.25390646657E+02  0.25390646657E+02  0.00000000000E+00 0.  1.
         25    2    1    2    0    0  0.00000000000E+00  0.00000000000E+00  0.12845490454E+03  0.17923619786E+03  0.12499980849E+03 0.  0.
          4    1    3    3  501    0  0.44329964214E+01 -0.59326573104E+02  0.91604716025E+02  0.10923882200E+03  0.15500000000E+01 0. -1.
         -4    1    3    3    0  501 -0.44329964214E+01  0.59326573104E+02  0.36850188519E+02  0.69997375861E+02  0.15500000000E+01 0. -1.
<mgrwt>
<rscale>  2 0.12499981E+03</rscale>
<asrwt>0</asrwt>
<pdfrwt beam="1">  1       21 0.23668546E-01 0.12499981E+03</pdfrwt>
<pdfrwt beam="2">  1       21 0.39062534E-02 0.12499981E+03</pdfrwt>
<totfact> 0.67239592E+06</totfact>
</mgrwt>
</event>
<event>
 5    0  0.1281837E+000  0.1250015E+03  0.7546771E-02  0.1235067E+00
         21   -1    0    0  503  502  0.00000000000E+00  0.00000000000E+00  0.69666363047E+01  0.69666363047E+01  0.00000000000E+00 0.  1.
         21   -1    0    0  502  503 -0.00000000000E+00 -0.00000000000E+00 -0.56072122932E+03  0.56072122932E+03  0.00000000000E+00 0.  1.
         25    2    1    2    0    0  0.00000000000E+00  0.00000000000E+00 -0.55375459302E+03  0.56768786563E+03  0.12500145396E+03 0.  0.
          4    1    3    3  501    0 -0.54089272103E+02  0.27358895948E+02 -0.34571882391E+03  0.35099582085E+03  0.15500000000E+01 0.  1.
         -4    1    3    3    0  501  0.54089272103E+02 -0.27358895948E+02 -0.20803576910E+03  0.21669204478E+03  0.15500000000E+01 0.  1.
<mgrwt>
<rscale>  2 0.12500145E+03</rscale>
<asrwt>0</asrwt>
<pdfrwt beam="1">  1       21 0.10717904E-02 0.12500145E+03</pdfrwt>
<pdfrwt beam="2">  1       21 0.86264790E-01 0.12500145E+03</pdfrwt>
<totfact> 0.38594514E+06</totfact>
</mgrwt>
</event>
<event>
 5    0  0.1227391E+000  0.1250017E+03  0.7546771E-02  0.1235067E+00
         21   -1    0    0  503  502  0.00000000000E+00  0.00000000000E+00  0.53735364319E+03  0.53735364319E+03  0.00000000000E+00 0.  1.
         21   -1    0    0  502  503 -0.00000000000E+00 -0.00000000000E+00 -0.72696176093E+01  0.72696176093E+01  0.00000000000E+00 0.  1.
         25    2    1    2    0    0  0.00000000000E+00  0.00000000000E+00  0.53008402558E+03  0.54462326080E+03  0.12500168810E+03 0.  0.
          4    1    3    3  501    0 -0.61225941665E+02 -0.72237626433E+01  0.30929310905E+03  0.31538140161E+03  0.15500000000E+01 0. -1.
         -4    1    3    3    0  501  0.61225941665E+02  0.72237626433E+01  0.22079091653E+03  0.22924185919E+03  0.15500000000E+01 0. -1.
<mgrwt>
<rscale>  2 0.12500169E+03</rscale>
<asrwt>0</asrwt>
<pdfrwt beam="1">  1       21 0.82669760E-01 0.12500169E+03</pdfrwt>
<pdfrwt beam="2">  1       21 0.11184031E-02 0.12500169E+03</pdfrwt>
<totfact> 0.39721378E+06</totfact>
</mgrwt>
</event>
<event>
 5    0  0.1437340E+000  0.1250057E+03  0.7546771E-02  0.1235060E+00
         21   -1    0    0  503  502  0.00000000000E+00  0.00000000000E+00  0.18147451618E+02  0.18147451618E+02  0.00000000000E+00 0.  1.
         21   -1    0    0  502  503 -0.00000000000E+00 -0.00000000000E+00 -0.21527031829E+03  0.21527031829E+03  0.00000000000E+00 0.  1.
         25    2    1    2    0    0  0.00000000000E+00  0.00000000000E+00 -0.19712286667E+03  0.23341776991E+03  0.12500572284E+03 0.  0.
          4    1    3    3  501    0 -0.17816584402E+02  0.54290196524E+02 -0.14577567708E+03  0.15658162934E+03  0.15500000000E+01 0.  1.
         -4    1    3    3    0  501  0.17816584402E+02 -0.54290196524E+02 -0.51347189590E+02  0.76836140567E+02  0.15500000000E+01 0.  1.
<mgrwt>
<rscale>  2 0.12500572E+03</rscale>
<asrwt>0</asrwt>
<pdfrwt beam="1">  1       21 0.27919156E-02 0.12500572E+03</pdfrwt>
<pdfrwt beam="2">  1       21 0.33118511E-01 0.12500572E+03</pdfrwt>
<totfact> 0.61466609E+06</totfact>
</mgrwt>
</event>
<event>
 5    0  0.1222151E+000  0.1250002E+03  0.7546771E-02  0.1235069E+00
         21   -1    0    0  503  502  0.00000000000E+00  0.00000000000E+00  0.51659091110E+01  0.51659091110E+01  0.00000000000E+00 0. -1.
         21   -1    0    0  502  503 -0.00000000000E+00 -0.00000000000E+00 -0.75616191178E+03  0.75616191178E+03  0.00000000000E+00 0. -1.
         25    2    1    2    0    0  0.00000000000E+00  0.00000000000E+00 -0.75099600267E+03  0.76132782089E+03  0.12500021935E+03 0.  0.
          4    1    3    3  501    0 -0.71533966544E+01  0.39260843485E+02 -0.66830864396E+03  0.66950088200E+03  0.15500000000E+01 0.  1.
         -4    1    3    3    0  501  0.71533966544E+01 -0.39260843485E+02 -0.82687358713E+02  0.91826938889E+02  0.15500000000E+01 0.  1.
<mgrwt>
<rscale>  2 0.12500022E+03</rscale>
<asrwt>0</asrwt>
<pdfrwt beam="1">  1       21 0.79475468E-03 0.12500022E+03</pdfrwt>
<pdfrwt beam="2">  1       21 0.11633269E+00 0.12500022E+03</pdfrwt>
<totfact> 0.30674210E+06</totfact>
</mgrwt>
</event>
<event>
 5    0  0.1222151E+000  0.1249973E+03  0.7546771E-02  0.1235074E+00
         21   -1    0    0  503  502  0.00000000000E+00  0.00000000000E+00  0.31246825841E+01  0.31246825841E+01  0.00000000000E+00 0.  1.
         21   -1    0    0  502  503 -0.00000000000E+00 -0.00000000000E+00 -0.12500722490E+04  0.12500722490E+04  0.00000000000E+00 0.  1.
         25    2    1    2    0    0  0.00000000000E+00  0.00000000000E+00 -0.12469475664E+04  0.12531969316E+04  0.12499726374E+03 0.  0.
          4    1    3    3  501    0 -0.57658859943E+02 -0.23613656941E+02 -0.66999126901E+03  0.67288398107E+03  0.15500000000E+01 0.  1.
         -4    1    3    3    0  501  0.57658859943E+02  0.23613656941E+02 -0.57695629743E+03  0.58031295055E+03  0.15500000000E+01 0.  1.
<mgrwt>
<rscale>  2 0.12499726E+03</rscale>
<asrwt>0</asrwt>
<pdfrwt beam="1">  1       21 0.48072029E-03 0.12499726E+03</pdfrwt>
<pdfrwt beam="2">  1       21 0.19231885E+00 0.12499726E+03</pdfrwt>
<totfact> 0.18115360E+06</totfact>
</mgrwt>
</event>
<event>
 5    0  0.1500909E+000  0.1250016E+03  0.7546771E-02  0.1235067E+00
         21   -1    0    0  503  502  0.00000000000E+00  0.00000000000E+00  0.10233451247E+03  0.10233451247E+03  0.00000000000E+00 0.  1.
         21   -1    0    0  502  503 -0.00000000000E+00 -0.00000000000E+00 -0.38172352459E+02  0.38172352459E+02  0.00000000000E+00 0.  1.
         25    2    1    2    0    0  0.00000000000E+00  0.00000000000E+00  0.64162160013E+02  0.14050686493E+03  0.12500158525E+03 0.  0.
          4    1    3    3  501    0  0.62057064795E+02 -0.65236144206E+01  0.28471921651E+02  0.68605318005E+02  0.15500000000E+01 0.  1.
         -4    1    3    3    0  501 -0.62057064795E+02  0.65236144206E+01  0.35690238362E+02  0.71901546927E+02  0.15500000000E+01 0.  1.
<mgrwt>
<rscale>  2 0.12500159E+03</rscale>
<asrwt>0</asrwt>
<pdfrwt beam="1">  1       21 0.15743771E-01 0.12500159E+03</pdfrwt>
<pdfrwt beam="2">  1       21 0.58726696E-02 0.12500159E+03</pdfrwt>
<totfact> 0.71970300E+06</totfact>
</mgrwt>
</event>
<event>
 5    0  0.1222151E+000  0.1250014E+03  0.7546771E-02  0.1235067E+00
         21   -1    0    0  503  502  0.00000000000E+00  0.00000000000E+00  0.16064442373E+01  0.16064442373E+01  0.00000000000E+00 0.  1.
         21   -1    0    0  502  503 -0.00000000000E+00 -0.00000000000E+00 -0.24316676575E+04  0.24316676575E+04  0.00000000000E+00 0.  1.
         25    2    1    2    0    0  0.00000000000E+00  0.00000000000E+00 -0.24300612133E+04  0.24332741018E+04  0.12500141592E+03 0.  0.
          4    1    3    3  501    0 -0.19817889294E+01  0.61285711776E+02 -0.98138213727E+03  0.98329709030E+03  0.15500000000E+01 0.  1.
         -4    1    3    3    0  501  0.19817889294E+01 -0.61285711776E+02 -0.14486790760E+04  0.14499770115E+04  0.15500000000E+01 0.  1.
<mgrwt>
<rscale>  2 0.12500142E+03</rscale>
<asrwt>0</asrwt>
<pdfrwt beam="1">  1       21 0.24714516E-03 0.12500142E+03</pdfrwt>
<pdfrwt beam="2">  1       21 0.37410288E+00 0.12500142E+03</pdfrwt>
<totfact> 0.44430045E+05</totfact>
</mgrwt>
</event>
<event>
 5    0  0.1479640E+000  0.1249976E+03  0.7546771E-02  0.1235073E+00
         21   -1    0    0  503  502  0.00000000000E+00  0.00000000000E+00  0.14106641429E+02  0.14106641429E+02  0.00000000000E+00 0.  1.
         21   -1    0    0  502  503 -0.00000000000E+00 -0.00000000000E+00 -0.27689801441E+03  0.27689801441E+03  0.00000000000E+00 0.  1.
         25    2    1    2    0    0  0.00000000000E+00  0.00000000000E+00 -0.26279137298E+03  0.29100465584E+03  0.12499761601E+03 0.  0.
          4    1    3    3  501    0 -0.52519426719E+02  0.27753239083E+02 -0.17648877339E+03  0.18622358094E+03  0.15500000000E+01 0. -1.
         -4    1    3    3    0  501  0.52519426719E+02 -0.27753239083E+02 -0.86302599586E+02  0.10478107490E+03  0.15500000000E+01 0. -1.
<mgrwt>
<rscale>  2 0.12499762E+03</rscale>
<asrwt>0</asrwt>
<pdfrwt beam="1">  1       21 0.21702524E-02 0.12499762E+03</pdfrwt>
<pdfrwt beam="2">  1       21 0.42599696E-01 0.12499762E+03</pdfrwt>
<totfact> 0.56215474E+06</totfact>
</mgrwt>
</event>
<event>
 5    0  0.1467371E+000  0.1249970E+03  0.7546771E-02  0.1235074E+00
         21   -1    0    0  503  502  0.00000000000E+00  0.00000000000E+00  0.21395004263E+03  0.21395004263E+03  0.00000000000E+00 0.  1.
         21   -1    0    0  502  503 -0.00000000000E+00 -0.00000000000E+00 -0.18256893127E+02  0.18256893127E+02  0.00000000000E+00 0.  1.
         25    2    1    2    0    0  0.00000000000E+00  0.00000000000E+00  0.19569314951E+03  0.23220693576E+03  0.12499700897E+03 0.  0.
          4    1    3    3  501    0  0.50799359055E+02  0.25719121017E+01  0.30443267461E+02  0.59299111680E+02  0.15500000000E+01 0.  1.
         -4    1    3    3    0  501 -0.50799359055E+02 -0.25719121017E+01  0.16524988204E+03  0.17290782408E+03  0.15500000000E+01 0.  1.
<mgrwt>
<rscale>  2 0.12499701E+03</rscale>
<asrwt>0</asrwt>
<pdfrwt beam="1">  1       21 0.32915389E-01 0.12499701E+03</pdfrwt>
<pdfrwt beam="2">  1       21 0.28087529E-02 0.12499701E+03</pdfrwt>
<totfact> 0.61599685E+06</totfact>
</mgrwt>
</event>
<event>
 5    0  0.1222151E+000  0.1250410E+03  0.7546771E-02  0.1235005E+00
         21   -1    0    0  503  502  0.00000000000E+00  0.00000000000E+00  0.11688652404E+04  0.11688652404E+04  0.00000000000E+00 0.  1.
         21   -1    0    0  502  503 -0.00000000000E+00 -0.00000000000E+00 -0.33441089133E+01  0.33441089133E+01  0.00000000000E+00 0.  1.
         25    2    1    2    0    0  0.00000000000E+00  0.00000000000E+00  0.11655211314E+04  0.11722093493E+04  0.12504099598E+03 0.  0.
          4    1    3    3  501    0 -0.31116227171E+02 -0.13197770421E+02  0.10756193676E+04  0.10761513960E+04  0.15500000000E+01 0.  1.
         -4    1    3    3    0  501  0.31116227171E+02  0.13197770421E+02  0.89901763875E+02  0.96057953264E+02  0.15500000000E+01 0.  1.
<mgrwt>
<rscale>  2 0.12504100E+03</rscale>
<asrwt>0</asrwt>
<pdfrwt beam="1">  1       21 0.17982510E+00 0.12504100E+03</pdfrwt>
<pdfrwt beam="2">  1       21 0.51447923E-03 0.12504100E+03</pdfrwt>
<totfact> 0.19686201E+06</totfact>
</mgrwt>
</event>
<event>
 5    0  0.1291797E+000  0.1249999E+03  0.7546771E-02  0.1235069E+00
         21   -1    0    0  503  502  0.00000000000E+00  0.00000000000E+00  0.69535332718E+01  0.69535332718E+01  0.00000000000E+00 0. -1.
         21   -1    0    0  502  503 -0.00000000000E+00 -0.00000000000E+00 -0.56176394599E+03  0.56176394599E+03  0.00000000000E+00 0. -1.
         25    2    1    2    0    0  0.00000000000E+00  0.00000000000E+00 -0.55481041272E+03  0.56871747926E+03  0.12499990863E+03 0.  0.
          4    1    3    3  501    0  0.22260613448E+02 -0.46019323589E+02 -0.44084986039E+03  0.44380661888E+03  0.15500000000E+01 0.  1.
         -4    1    3    3    0  501 -0.22260613448E+02  0.46019323589E+02 -0.11396055233E+03  0.12491086038E+03  0.15500000000E+01 0.  1.
<mgrwt>
<rscale>  2 0.12499991E+03</rscale>
<asrwt>0</asrwt>
<pdfrwt beam="1">  1       21 0.10697743E-02 0.12499991E+03</pdfrwt>
<pdfrwt beam="2">  1       21 0.86425226E-01 0.12499991E+03</pdfrwt>
<totfact> 0.38546756E+06</totfact>
</mgrwt>
</event>
<event>
 5    0  0.1603715E+000  0.1249945E+03  0.7546771E-02  0.1235078E+00
         21   -1    0    0  503  502  0.00000000000E+00  0.00000000000E+00  0.33397403404E+02  0.33397403404E+02  0.00000000000E+00 0.  1.
         21   -1    0    0  502  503 -0.00000000000E+00 -0.00000000000E+00 -0.11695236357E+03  0.11695236357E+03  0.00000000000E+00 0.  1.
         25    2    1    2    0    0  0.00000000000E+00  0.00000000000E+00 -0.83554960169E+02  0.15034976698E+03  0.12499448412E+03 0.  0.
          4    1    3    3  501    0  0.32386773370E+02  0.43799419538E+02 -0.49731709144E+01  0.54721359359E+02  0.15500000000E+01 0. -1.
         -4    1    3    3    0  501 -0.32386773370E+02 -0.43799419538E+02 -0.78581789255E+02  0.95628407619E+02  0.15500000000E+01 0. -1.
<mgrwt>
<rscale>  2 0.12499448E+03</rscale>
<asrwt>0</asrwt>
<pdfrwt beam="1">  1       21 0.51380620E-02 0.12499448E+03</pdfrwt>
<pdfrwt beam="2">  1       21 0.17992672E-01 0.12499448E+03</pdfrwt>
<totfact> 0.70725221E+06</totfact>
</mgrwt>
</event>
<event>
 5    0  0.1328139E+000  0.1250127E+03  0.7546771E-02  0.1235049E+00
         21   -1    0    0  503  502  0.00000000000E+00  0.00000000000E+00  0.14533676581E+02  0.14533676581E+02  0.00000000000E+00 0. -1.
         21   -1    0    0  502  503 -0.00000000000E+00 -0.00000000000E+00 -0.26882707597E+03  0.26882707597E+03  0.00000000000E+00 0. -1.
         25    2    1    2    0    0  0.00000000000E+00  0.00000000000E+00 -0.25429339939E+03  0.28336075255E+03  0.12501273181E+03 0.  0.
          4    1    3    3  501    0  0.18891226301E+02 -0.19147806542E+02  0.69599355772E+00  0.26951879963E+02  0.15500000000E+01 0. -1.
         -4    1    3    3    0  501 -0.18891226301E+02  0.19147806542E+02 -0.25498939295E+03  0.25640887259E+03  0.15500000000E+01 0. -1.
<mgrwt>
<rscale>  2 0.12501273E+03</rscale>
<asrwt>0</asrwt>
<pdfrwt beam="1">  1       21 0.22359502E-02 0.12501273E+03</pdfrwt>
<pdfrwt beam="2">  1       21 0.41358013E-01 0.12501273E+03</pdfrwt>
<totfact> 0.56849736E+06</totfact>
</mgrwt>
</event>
<event>
 5    0  0.1344987E+000  0.1250035E+03  0.7546771E-02  0.1235064E+00
         21   -1    0    0  503  502  0.00000000000E+00  0.00000000000E+00  0.89487648749E+01  0.89487648749E+01  0.00000000000E+00 0. -1.
         21   -1    0    0  502  503 -0.00000000000E+00 -0.00000000000E+00 -0.43653734780E+03  0.43653734780E+03  0.00000000000E+00 0. -1.
         25    2    1    2    0    0  0.00000000000E+00  0.00000000000E+00 -0.42758858293E+03  0.44548611268E+03  0.12500352130E+03 0.  0.
          4    1    3    3  501    0  0.32491806757E+02 -0.20690873615E+02 -0.38470463112E+02  0.54462912053E+02  0.15500000000E+01 0. -1.
         -4    1    3    3    0  501 -0.32491806757E+02  0.20690873615E+02 -0.38911811982E+03  0.39102320063E+03  0.15500000000E+01 0. -1.
<mgrwt>
<rscale>  2 0.12500352E+03</rscale>
<asrwt>0</asrwt>
<pdfrwt beam="1">  1       21 0.13767328E-02 0.12500352E+03</pdfrwt>
<pdfrwt beam="2">  1       21 0.67159604E-01 0.12500352E+03</pdfrwt>
<totfact> 0.45159635E+06</totfact>
</mgrwt>
</event>
<event>
 5    0  0.1396973E+000  0.1249984E+03  0.7546771E-02  0.1235072E+00
         21   -1    0    0  503  502  0.00000000000E+00  0.00000000000E+00  0.33797039645E+03  0.33797039645E+03  0.00000000000E+00 0. -1.
         21   -1    0    0  502  503 -0.00000000000E+00 -0.00000000000E+00 -0.11557667985E+02  0.11557667985E+02  0.00000000000E+00 0. -1.
         25    2    1    2    0    0  0.00000000000E+00  0.00000000000E+00  0.32641272846E+03  0.34952806443E+03  0.12499839408E+03 0.  0.
          4    1    3    3  501    0 -0.40605054711E+02 -0.15070199398E+02  0.37285638231E+02  0.57170820322E+02  0.15500000000E+01 0.  1.
         -4    1    3    3    0  501  0.40605054711E+02  0.15070199398E+02  0.28912709023E+03  0.29235724411E+03  0.15500000000E+01 0.  1.
<mgrwt>
<rscale>  2 0.12499839E+03</rscale>
<asrwt>0</asrwt>
<pdfrwt beam="1">  1       21 0.51995438E-01 0.12499839E+03</pdfrwt>
<pdfrwt beam="2">  1       21 0.17781030E-02 0.12499839E+03</pdfrwt>
<totfact> 0.51575382E+06</totfact>
</mgrwt>
</event>
<event>
 5    0  0.1222151E+000  0.1249998E+03  0.7546771E-02  0.1235070E+00
         21   -1    0    0  503  502  0.00000000000E+00  0.00000000000E+00  0.12854005758E+04  0.12854005758E+04  0.00000000000E+00 0.  1.
         21   -1    0    0  502  503 -0.00000000000E+00 -0.00000000000E+00 -0.30389270873E+01  0.30389270873E+01  0.00000000000E+00 0.  1.
         25    2    1    2    0    0  0.00000000000E+00  0.00000000000E+00  0.12823616487E+04  0.12884395029E+04  0.12499981805E+03 0.  0.
          4    1    3    3  501    0  0.56724027557E+02  0.25939731948E+02  0.60351792968E+03  0.60673452097E+03  0.15500000000E+01 0. -1.
         -4    1    3    3    0  501 -0.56724027557E+02 -0.25939731948E+02  0.67884371906E+03  0.68170498194E+03  0.15500000000E+01 0. -1.
<mgrwt>
<rscale>  2 0.12499982E+03</rscale>
<asrwt>0</asrwt>
<pdfrwt beam="1">  1       21 0.19775350E+00 0.12499982E+03</pdfrwt>
<pdfrwt beam="2">  1       21 0.46752827E-03 0.12499982E+03</pdfrwt>
<totfact> 0.17461331E+06</totfact>
</mgrwt>
</event>
