<event>
 3    0  0.1640751E+001  0.1250000E+03  0.7546771E-02  0.1235069E+00
         21   -1    0    0  502  501  0.00000000000E+00  0.00000000000E+00  0.25452823492E+03  0.25452823492E+03  0.00000000000E+00 0.  1.
         21   -1    0    0  501  502 -0.00000000000E+00 -0.00000000000E+00 -0.15347020346E+02  0.15347020346E+02  0.00000000000E+00 0.  1.
         25    1    1    2    0    0  0.00000000000E+00  0.00000000000E+00  0.23918121458E+03  0.26987525527E+03  0.12500000000E+03 0.  0.
<mgrwt>
<rscale>  2 0.12500000E+03</rscale>
<asrwt>0</asrwt>
<pdfrwt beam="1">  1       21 0.39158187E-01 0.12500000E+03</pdfrwt>
<pdfrwt beam="2">  1       21 0.23610802E-02 0.12500000E+03</pdfrwt>
<totfact> 0.58055805E+06</totfact>
</mgrwt>
</event>
<event>
 3    0  0.1715588E+001  0.1250000E+03  0.7546771E-02  0.1235069E+00
         21   -1    0    0  502  501  0.00000000000E+00  0.00000000000E+00  0.65145116136E+02  0.65145116136E+02  0.00000000000E+00 0. -1.
         21   -1    0    0  501  502 -0.00000000000E+00 -0.00000000000E+00 -0.59962284692E+02  0.59962284692E+02  0.00000000000E+00 0. -1.
         25    1    1    2    0    0  0.00000000000E+00  0.00000000000E+00  0.51828314441E+01  0.12510740083E+03  0.12500000000E+03 0.  0.
<mgrwt>
<rscale>  2 0.12500000E+03</rscale>
<asrwt>0</asrwt>
<pdfrwt beam="1">  1       21 0.10022326E-01 0.12500000E+03</pdfrwt>
<pdfrwt beam="2">  1       21 0.92249669E-02 0.12500000E+03</pdfrwt>
<totfact> 0.74029076E+06</totfact>
</mgrwt>
</event>
<event>
 3    0  0.1433460E+001  0.1250000E+03  0.7546771E-02  0.1235069E+00
         21   -1    0    0  502  501  0.00000000000E+00  0.00000000000E+00  0.62569630606E+01  0.62569630606E+01  0.00000000000E+00 0.  1.
         21   -1    0    0  501  502 -0.00000000000E+00 -0.00000000000E+00 -0.62430446883E+03  0.62430446883E+03  0.00000000000E+00 0.  1.
         25    1    1    2    0    0  0.00000000000E+00  0.00000000000E+00 -0.61804750577E+03  0.63056143189E+03  0.12500000000E+03 0.  0.
<mgrwt>
<rscale>  2 0.12500000E+03</rscale>
<asrwt>0</asrwt>
<pdfrwt beam="1">  1       21 0.96260960E-03 0.12500000E+03</pdfrwt>
<pdfrwt beam="2">  1       21 0.96046852E-01 0.12500000E+03</pdfrwt>
<totfact> 0.35746009E+06</totfact>
</mgrwt>
</event>
<event>
 3    0  0.1368989E+001  0.1250000E+03  0.7546771E-02  0.1235069E+00
         21   -1    0    0  502  501  0.00000000000E+00  0.00000000000E+00  0.87116413095E+03  0.87116413095E+03  0.00000000000E+00 0.  1.
         21   -1    0    0  501  502 -0.00000000000E+00 -0.00000000000E+00 -0.44839426478E+01  0.44839426478E+01  0.00000000000E+00 0.  1.
         25    1    1    2    0    0  0.00000000000E+00  0.00000000000E+00  0.86668018830E+03  0.87564807360E+03  0.12500000000E+03 0.  0.
<mgrwt>
<rscale>  2 0.12500000E+03</rscale>
<asrwt>0</asrwt>
<pdfrwt beam="1">  1       21 0.13402512E+00 0.12500000E+03</pdfrwt>
<pdfrwt beam="2">  1       21 0.68983802E-03 0.12500000E+03</pdfrwt>
<totfact> 0.27003899E+06</totfact>
</mgrwt>
</event>
<event>
 3    0  0.1550982E+001  0.1250000E+03  0.7546771E-02  0.1235069E+00
         21   -1    0    0  502  501  0.00000000000E+00  0.00000000000E+00  0.10515375703E+02  0.10515375703E+02  0.00000000000E+00 0.  1.
         21   -1    0    0  501  502 -0.00000000000E+00 -0.00000000000E+00 -0.37147983205E+03  0.37147983205E+03  0.00000000000E+00 0.  1.
         25    1    1    2    0    0  0.00000000000E+00  0.00000000000E+00 -0.36096445634E+03  0.38199520775E+03  0.12500000000E+03 0.  0.
<mgrwt>
<rscale>  2 0.12500000E+03</rscale>
<asrwt>0</asrwt>
<pdfrwt beam="1">  1       21 0.16177504E-02 0.12500000E+03</pdfrwt>
<pdfrwt beam="2">  1       21 0.57150735E-01 0.12500000E+03</pdfrwt>
<totfact> 0.49258882E+06</totfact>
</mgrwt>
</event>
<event>
 3    0  0.1712278E+001  0.1250000E+03  0.7546771E-02  0.1235069E+00
         21   -1    0    0  502  501  0.00000000000E+00  0.00000000000E+00  0.48188246644E+02  0.48188246644E+02  0.00000000000E+00 0. -1.
         21   -1    0    0  501  502 -0.00000000000E+00 -0.00000000000E+00 -0.81062297801E+02  0.81062297801E+02  0.00000000000E+00 0. -1.
         25    1    1    2    0    0  0.00000000000E+00  0.00000000000E+00 -0.32874051157E+02  0.12925054445E+03  0.12500000000E+03 0.  0.
<mgrwt>
<rscale>  2 0.12500000E+03</rscale>
<asrwt>0</asrwt>
<pdfrwt beam="1">  1       21 0.74135764E-02 0.12500000E+03</pdfrwt>
<pdfrwt beam="2">  1       21 0.12471123E-01 0.12500000E+03</pdfrwt>
<totfact> 0.73465254E+06</totfact>
</mgrwt>
</event>
<event>
 3    0  0.1691559E+001  0.1250000E+03  0.7546771E-02  0.1235069E+00
         21   -1    0    0  502  501  0.00000000000E+00  0.00000000000E+00  0.17445493438E+03  0.17445493438E+03  0.00000000000E+00 0.  1.
         21   -1    0    0  501  502 -0.00000000000E+00 -0.00000000000E+00 -0.22391169466E+02  0.22391169466E+02  0.00000000000E+00 0.  1.
         25    1    1    2    0    0  0.00000000000E+00  0.00000000000E+00  0.15206376492E+03  0.19684610385E+03  0.12500000000E+03 0.  0.
<mgrwt>
<rscale>  2 0.12500000E+03</rscale>
<asrwt>0</asrwt>
<pdfrwt beam="1">  1       21 0.26839220E-01 0.12500000E+03</pdfrwt>
<pdfrwt beam="2">  1       21 0.34447954E-02 0.12500000E+03</pdfrwt>
<totfact> 0.65269537E+06</totfact>
</mgrwt>
</event>
<event>
 3    0  0.1649463E+001  0.1250000E+03  0.7546771E-02  0.1235069E+00
         21   -1    0    0  502  501  0.00000000000E+00  0.00000000000E+00  0.19922780675E+03  0.19922780675E+03  0.00000000000E+00 0. -1.
         21   -1    0    0  501  502 -0.00000000000E+00 -0.00000000000E+00 -0.19606951779E+02  0.19606951779E+02  0.00000000000E+00 0. -1.
         25    1    1    2    0    0  0.00000000000E+00  0.00000000000E+00  0.17962085497E+03  0.21883475853E+03  0.12500000000E+03 0.  0.
<mgrwt>
<rscale>  2 0.12500000E+03</rscale>
<asrwt>0</asrwt>
<pdfrwt beam="1">  1       21 0.30650430E-01 0.12500000E+03</pdfrwt>
<pdfrwt beam="2">  1       21 0.30164543E-02 0.12500000E+03</pdfrwt>
<totfact> 0.62941838E+06</totfact>
</mgrwt>
</event>
<event>
 3    0  0.1496670E+001  0.1250000E+03  0.7546771E-02  0.1235069E+00
         21   -1    0    0  502  501  0.00000000000E+00  0.00000000000E+00  0.86521750498E+01  0.86521750498E+01  0.00000000000E+00 0. -1.
         21   -1    0    0  501  502 -0.00000000000E+00 -0.00000000000E+00 -0.45147607134E+03  0.45147607134E+03  0.00000000000E+00 0. -1.
         25    1    1    2    0    0  0.00000000000E+00  0.00000000000E+00 -0.44282389629E+03  0.46012824639E+03  0.12500000000E+03 0.  0.
<mgrwt>
<rscale>  2 0.12500000E+03</rscale>
<asrwt>0</asrwt>
<pdfrwt beam="1">  1       21 0.13311040E-02 0.12500000E+03</pdfrwt>
<pdfrwt beam="2">  1       21 0.69457850E-01 0.12500000E+03</pdfrwt>
<totfact> 0.44292358E+06</totfact>
</mgrwt>
</event>
<event>
 3    0  0.1710573E+001  0.1250000E+03  0.7546771E-02  0.1235069E+00
         21   -1    0    0  502  501  0.00000000000E+00  0.00000000000E+00  0.47418639775E+02  0.47418639775E+02  0.00000000000E+00 0. -1.
         21   -1    0    0  501  502 -0.00000000000E+00 -0.00000000000E+00 -0.82377942905E+02  0.82377942905E+02  0.00000000000E+00 0. -1.
         25    1    1    2    0    0  0.00000000000E+00  0.00000000000E+00 -0.34959303130E+02  0.12979658268E+03  0.12500000000E+03 0.  0.
<mgrwt>
<rscale>  2 0.12500000E+03</rscale>
<asrwt>0</asrwt>
<pdfrwt beam="1">  1       21 0.72951755E-02 0.12500000E+03</pdfrwt>
<pdfrwt beam="2">  1       21 0.12673529E-01 0.12500000E+03</pdfrwt>
<totfact> 0.73392114E+06</totfact>
</mgrwt>
</event>
<event>
 3    0  0.1519313E+001  0.1250000E+03  0.7546771E-02  0.1235069E+00
         21   -1    0    0  502  501  0.00000000000E+00  0.00000000000E+00  0.94551902224E+01  0.94551902224E+01  0.00000000000E+00 0. -1.
         21   -1    0    0  501  502 -0.00000000000E+00 -0.00000000000E+00 -0.41313288344E+03  0.41313288344E+03  0.00000000000E+00 0. -1.
         25    1    1    2    0    0  0.00000000000E+00  0.00000000000E+00 -0.40367769321E+03  0.42258807366E+03  0.12500000000E+03 0.  0.
<mgrwt>
<rscale>  2 0.12500000E+03</rscale>
<asrwt>0</asrwt>
<pdfrwt beam="1">  1       21 0.14546442E-02 0.12500000E+03</pdfrwt>
<pdfrwt beam="2">  1       21 0.63558923E-01 0.12500000E+03</pdfrwt>
<totfact> 0.46578322E+06</totfact>
</mgrwt>
</event>
<event>
 3    0  0.1524441E+001  0.1250000E+03  0.7546771E-02  0.1235069E+00
         21   -1    0    0  502  501  0.00000000000E+00  0.00000000000E+00  0.97290376234E+01  0.97290376234E+01  0.00000000000E+00 0.  1.
         21   -1    0    0  501  502 -0.00000000000E+00 -0.00000000000E+00 -0.40150425471E+03  0.40150425471E+03  0.00000000000E+00 0.  1.
         25    1    1    2    0    0  0.00000000000E+00  0.00000000000E+00 -0.39177521709E+03  0.41123329233E+03  0.12500000000E+03 0.  0.
<mgrwt>
<rscale>  2 0.12500000E+03</rscale>
<asrwt>0</asrwt>
<pdfrwt beam="1">  1       21 0.14967750E-02 0.12500000E+03</pdfrwt>
<pdfrwt beam="2">  1       21 0.61769885E-01 0.12500000E+03</pdfrwt>
<totfact> 0.47305077E+06</totfact>
</mgrwt>
</event>
<event>
 3    0  0.1368989E+001  0.1250000E+03  0.7546771E-02  0.1235069E+00
         21   -1    0    0  502  501  0.00000000000E+00  0.00000000000E+00  0.47919254061E+01  0.47919254061E+01  0.00000000000E+00 0.  1.
         21   -1    0    0  501  502 -0.00000000000E+00 -0.00000000000E+00 -0.81517337373E+03  0.81517337373E+03  0.00000000000E+00 0.  1.
         25    1    1    2    0    0  0.00000000000E+00  0.00000000000E+00 -0.81038144833E+03  0.81996529914E+03  0.12500000000E+03 0.  0.
<mgrwt>
<rscale>  2 0.12500000E+03</rscale>
<asrwt>0</asrwt>
<pdfrwt beam="1">  1       21 0.73721884E-03 0.12500000E+03</pdfrwt>
<pdfrwt beam="2">  1       21 0.12541137E+00 0.12500000E+03</pdfrwt>
<totfact> 0.28711899E+06</totfact>
</mgrwt>
</event>
<event>
 3    0  0.1707129E+001  0.1250000E+03  0.7546771E-02  0.1235069E+00
         21   -1    0    0  502  501  0.00000000000E+00  0.00000000000E+00  0.44885645158E+02  0.44885645158E+02  0.00000000000E+00 0. -1.
         21   -1    0    0  501  502 -0.00000000000E+00 -0.00000000000E+00 -0.87026709458E+02  0.87026709458E+02  0.00000000000E+00 0. -1.
         25    1    1    2    0    0  0.00000000000E+00  0.00000000000E+00 -0.42141064300E+02  0.13191235462E+03  0.12500000000E+03 0.  0.
<mgrwt>
<rscale>  2 0.12500000E+03</rscale>
<asrwt>0</asrwt>
<pdfrwt beam="1">  1       21 0.69054839E-02 0.12500000E+03</pdfrwt>
<pdfrwt beam="2">  1       21 0.13388724E-01 0.12500000E+03</pdfrwt>
<totfact> 0.73107987E+06</totfact>
</mgrwt>
</event>
<event>
 3    0  0.1368989E+001  0.1250000E+03  0.7546771E-02  0.1235069E+00
         21   -1    0    0  502  501  0.00000000000E+00  0.00000000000E+00  0.13374924401E+04  0.13374924401E+04  0.00000000000E+00 0.  1.
         21   -1    0    0  501  502 -0.00000000000E+00 -0.00000000000E+00 -0.29205772555E+01  0.29205772555E+01  0.00000000000E+00 0.  1.
         25    1    1    2    0    0  0.00000000000E+00  0.00000000000E+00  0.13345718628E+04  0.13404130174E+04  0.12500000000E+03 0.  0.
<mgrwt>
<rscale>  2 0.12500000E+03</rscale>
<asrwt>0</asrwt>
<pdfrwt beam="1">  1       21 0.20576758E+00 0.12500000E+03</pdfrwt>
<pdfrwt beam="2">  1       21 0.44932065E-03 0.12500000E+03</pdfrwt>
<totfact> 0.16542023E+06</totfact>
</mgrwt>
</event>
<event>
 3    0  0.1623090E+001  0.1250000E+03  0.7546771E-02  0.1235069E+00
         21   -1    0    0  502  501  0.00000000000E+00  0.00000000000E+00  0.22710947433E+03  0.22710947433E+03  0.00000000000E+00 0. -1.
         21   -1    0    0  501  502 -0.00000000000E+00 -0.00000000000E+00 -0.17199854879E+02  0.17199854879E+02  0.00000000000E+00 0. -1.
         25    1    1    2    0    0  0.00000000000E+00  0.00000000000E+00  0.20990961945E+03  0.24430932921E+03  0.12500000000E+03 0.  0.
<mgrwt>
<rscale>  2 0.12500000E+03</rscale>
<asrwt>0</asrwt>
<pdfrwt beam="1">  1       21 0.34939917E-01 0.12500000E+03</pdfrwt>
<pdfrwt beam="2">  1       21 0.26461317E-02 0.12500000E+03</pdfrwt>
<totfact> 0.60418134E+06</totfact>
</mgrwt>
</event>
<event>
 3    0  0.1622399E+001  0.1250000E+03  0.7546771E-02  0.1235069E+00
         21   -1    0    0  502  501  0.00000000000E+00  0.00000000000E+00  0.27145612160E+03  0.27145612160E+03  0.00000000000E+00 0.  1.
         21   -1    0    0  501  502 -0.00000000000E+00 -0.00000000000E+00 -0.14389986776E+02  0.14389986776E+02  0.00000000000E+00 0.  1.
         25    1    1    2    0    0  0.00000000000E+00  0.00000000000E+00  0.25706613482E+03  0.28584610837E+03  0.12500000000E+03 0.  0.
<mgrwt>
<rscale>  2 0.12500000E+03</rscale>
<asrwt>0</asrwt>
<pdfrwt beam="1">  1       21 0.41762476E-01 0.12500000E+03</pdfrwt>
<pdfrwt beam="2">  1       21 0.22138443E-02 0.12500000E+03</pdfrwt>
<totfact> 0.56653321E+06</totfact>
</mgrwt>
</event>
<event>
 3    0  0.1713844E+001  0.1250000E+03  0.7546771E-02  0.1235069E+00
         21   -1    0    0  502  501  0.00000000000E+00  0.00000000000E+00  0.55430905544E+02  0.55430905544E+02  0.00000000000E+00 0. -1.
         21   -1    0    0  501  502 -0.00000000000E+00 -0.00000000000E+00 -0.70470614933E+02  0.70470614933E+02  0.00000000000E+00 0. -1.
         25    1    1    2    0    0  0.00000000000E+00  0.00000000000E+00 -0.15039709389E+02  0.12590152048E+03  0.12500000000E+03 0.  0.
<mgrwt>
<rscale>  2 0.12500000E+03</rscale>
<asrwt>0</asrwt>
<pdfrwt beam="1">  1       21 0.85278316E-02 0.12500000E+03</pdfrwt>
<pdfrwt beam="2">  1       21 0.10841633E-01 0.12500000E+03</pdfrwt>
<totfact> 0.73919630E+06</totfact>
</mgrwt>
</event>
<event>
 3    0  0.1553398E+001  0.1250000E+03  0.7546771E-02  0.1235069E+00
         21   -1    0    0  502  501  0.00000000000E+00  0.00000000000E+00  0.11292208563E+02  0.11292208563E+02  0.00000000000E+00 0.  1.
         21   -1    0    0  501  502 -0.00000000000E+00 -0.00000000000E+00 -0.34592435823E+03  0.34592435823E+03  0.00000000000E+00 0.  1.
         25    1    1    2    0    0  0.00000000000E+00  0.00000000000E+00 -0.33463214966E+03  0.35721656679E+03  0.12500000000E+03 0.  0.
<mgrwt>
<rscale>  2 0.12500000E+03</rscale>
<asrwt>0</asrwt>
<pdfrwt beam="1">  1       21 0.17372627E-02 0.12500000E+03</pdfrwt>
<pdfrwt beam="2">  1       21 0.53219135E-01 0.12500000E+03</pdfrwt>
<totfact> 0.51009843E+06</totfact>
</mgrwt>
</event>
<event>
 3    0  0.1677220E+001  0.1250000E+03  0.7546771E-02  0.1235069E+00
         21   -1    0    0  502  501  0.00000000000E+00  0.00000000000E+00  0.14535202694E+03  0.14535202694E+03  0.00000000000E+00 0. -1.
         21   -1    0    0  501  502 -0.00000000000E+00 -0.00000000000E+00 -0.26874410233E+02  0.26874410233E+02  0.00000000000E+00 0. -1.
         25    1    1    2    0    0  0.00000000000E+00  0.00000000000E+00  0.11847761670E+03  0.17222643717E+03  0.12500000000E+03 0.  0.
<mgrwt>
<rscale>  2 0.12500000E+03</rscale>
<asrwt>0</asrwt>
<pdfrwt beam="1">  1       21 0.22361850E-01 0.12500000E+03</pdfrwt>
<pdfrwt beam="2">  1       21 0.41345247E-02 0.12500000E+03</pdfrwt>
<totfact> 0.68054680E+06</totfact>
</mgrwt>
</event>
<event>
 3    0  0.1536167E+001  0.1250000E+03  0.7546771E-02  0.1235069E+00
         21   -1    0    0  502  501  0.00000000000E+00  0.00000000000E+00  0.39485964588E+03  0.39485964588E+03  0.00000000000E+00 0.  1.
         21   -1    0    0  501  502 -0.00000000000E+00 -0.00000000000E+00 -0.98927556683E+01  0.98927556683E+01  0.00000000000E+00 0.  1.
         25    1    1    2    0    0  0.00000000000E+00  0.00000000000E+00  0.38496689022E+03  0.40475240155E+03  0.12500000000E+03 0.  0.
<mgrwt>
<rscale>  2 0.12500000E+03</rscale>
<asrwt>0</asrwt>
<pdfrwt beam="1">  1       21 0.60747626E-01 0.12500000E+03</pdfrwt>
<pdfrwt beam="2">  1       21 0.15219627E-02 0.12500000E+03</pdfrwt>
<totfact> 0.47727724E+06</totfact>
</mgrwt>
</event>
<event>
 3    0  0.1368989E+001  0.1250000E+03  0.7546771E-02  0.1235069E+00
         21   -1    0    0  502  501  0.00000000000E+00  0.00000000000E+00  0.58422944071E+01  0.58422944071E+01  0.00000000000E+00 0. -1.
         21   -1    0    0  501  502 -0.00000000000E+00 -0.00000000000E+00 -0.66861574029E+03  0.66861574029E+03  0.00000000000E+00 0. -1.
         25    1    1    2    0    0  0.00000000000E+00  0.00000000000E+00 -0.66277344589E+03  0.67445803470E+03  0.12500000000E+03 0.  0.
<mgrwt>
<rscale>  2 0.12500000E+03</rscale>
<asrwt>0</asrwt>
<pdfrwt beam="1">  1       21 0.89881508E-03 0.12500000E+03</pdfrwt>
<pdfrwt beam="2">  1       21 0.10286390E+00 0.12500000E+03</pdfrwt>
<totfact> 0.33918335E+06</totfact>
</mgrwt>
</event>
<event>
 3    0  0.1597638E+001  0.1250000E+03  0.7546771E-02  0.1235069E+00
         21   -1    0    0  502  501  0.00000000000E+00  0.00000000000E+00  0.14337523053E+02  0.14337523053E+02  0.00000000000E+00 0. -1.
         21   -1    0    0  501  502 -0.00000000000E+00 -0.00000000000E+00 -0.27244943116E+03  0.27244943116E+03  0.00000000000E+00 0. -1.
         25    1    1    2    0    0  0.00000000000E+00  0.00000000000E+00 -0.25811190810E+03  0.28678695421E+03  0.12500000000E+03 0.  0.
<mgrwt>
<rscale>  2 0.12500000E+03</rscale>
<asrwt>0</asrwt>
<pdfrwt beam="1">  1       21 0.22057729E-02 0.12500000E+03</pdfrwt>
<pdfrwt beam="2">  1       21 0.41915294E-01 0.12500000E+03</pdfrwt>
<totfact> 0.56572423E+06</totfact>
</mgrwt>
</event>
<event>
 3    0  0.1703207E+001  0.1250000E+03  0.7546771E-02  0.1235069E+00
         21   -1    0    0  502  501  0.00000000000E+00  0.00000000000E+00  0.38672296323E+02  0.38672296323E+02  0.00000000000E+00 0. -1.
         21   -1    0    0  501  502 -0.00000000000E+00 -0.00000000000E+00 -0.10100900054E+03  0.10100900054E+03  0.00000000000E+00 0. -1.
         25    1    1    2    0    0  0.00000000000E+00  0.00000000000E+00 -0.62336704214E+02  0.13968129686E+03  0.12500000000E+03 0.  0.
<mgrwt>
<rscale>  2 0.12500000E+03</rscale>
<asrwt>0</asrwt>
<pdfrwt beam="1">  1       21 0.59495841E-02 0.12500000E+03</pdfrwt>
<pdfrwt beam="2">  1       21 0.15539846E-01 0.12500000E+03</pdfrwt>
<totfact> 0.72080941E+06</totfact>
</mgrwt>
</event>
<event>
 3    0  0.1691652E+001  0.1250000E+03  0.7546771E-02  0.1235069E+00
         21   -1    0    0  502  501  0.00000000000E+00  0.00000000000E+00  0.16858799622E+03  0.16858799622E+03  0.00000000000E+00 0.  1.
         21   -1    0    0  501  502 -0.00000000000E+00 -0.00000000000E+00 -0.23170392243E+02  0.23170392243E+02  0.00000000000E+00 0.  1.
         25    1    1    2    0    0  0.00000000000E+00  0.00000000000E+00  0.14541760398E+03  0.19175838847E+03  0.12500000000E+03 0.  0.
<mgrwt>
<rscale>  2 0.12500000E+03</rscale>
<asrwt>0</asrwt>
<pdfrwt beam="1">  1       21 0.25936614E-01 0.12500000E+03</pdfrwt>
<pdfrwt beam="2">  1       21 0.35646758E-02 0.12500000E+03</pdfrwt>
<totfact> 0.65827567E+06</totfact>
</mgrwt>
</event>
<event>
 3    0  0.1711122E+001  0.1250000E+03  0.7546771E-02  0.1235069E+00
         21   -1    0    0  502  501  0.00000000000E+00  0.00000000000E+00  0.49181985198E+02  0.49181985198E+02  0.00000000000E+00 0. -1.
         21   -1    0    0  501  502 -0.00000000000E+00 -0.00000000000E+00 -0.79424406808E+02  0.79424406808E+02  0.00000000000E+00 0. -1.
         25    1    1    2    0    0  0.00000000000E+00  0.00000000000E+00 -0.30242421610E+02  0.12860639201E+03  0.12500000000E+03 0.  0.
<mgrwt>
<rscale>  2 0.12500000E+03</rscale>
<asrwt>0</asrwt>
<pdfrwt beam="1">  1       21 0.75664592E-02 0.12500000E+03</pdfrwt>
<pdfrwt beam="2">  1       21 0.12219140E-01 0.12500000E+03</pdfrwt>
<totfact> 0.73551798E+06</totfact>
</mgrwt>
</event>
<event>
 3    0  0.1734245E+001  0.1250000E+03  0.7546771E-02  0.1235069E+00
         21   -1    0    0  502  501  0.00000000000E+00  0.00000000000E+00  0.85832512720E+02  0.85832512720E+02  0.00000000000E+00 0.  1.
         21   -1    0    0  501  502 -0.00000000000E+00 -0.00000000000E+00 -0.45510143840E+02  0.45510143840E+02  0.00000000000E+00 0.  1.
         25    1    1    2    0    0  0.00000000000E+00  0.00000000000E+00  0.40322368880E+02  0.13134265656E+03  0.12500000000E+03 0.  0.
<mgrwt>
<rscale>  2 0.12500000E+03</rscale>
<asrwt>0</asrwt>
<pdfrwt beam="1">  1       21 0.13205002E-01 0.12500000E+03</pdfrwt>
<pdfrwt beam="2">  1       21 0.70015606E-02 0.12500000E+03</pdfrwt>
<totfact> 0.73184533E+06</totfact>
</mgrwt>
</event>
<event>
 3    0  0.1652199E+001  0.1250000E+03  0.7546771E-02  0.1235069E+00
         21   -1    0    0  502  501  0.00000000000E+00  0.00000000000E+00  0.18075561273E+03  0.18075561273E+03  0.00000000000E+00 0. -1.
         21   -1    0    0  501  502 -0.00000000000E+00 -0.00000000000E+00 -0.21610670568E+02  0.21610670568E+02  0.00000000000E+00 0. -1.
         25    1    1    2    0    0  0.00000000000E+00  0.00000000000E+00  0.15914494216E+03  0.20236628330E+03  0.12500000000E+03 0.  0.
<mgrwt>
<rscale>  2 0.12500000E+03</rscale>
<asrwt>0</asrwt>
<pdfrwt beam="1">  1       21 0.27808555E-01 0.12500000E+03</pdfrwt>
<pdfrwt beam="2">  1       21 0.33247187E-02 0.12500000E+03</pdfrwt>
<totfact> 0.64671749E+06</totfact>
</mgrwt>
</event>
<event>
 3    0  0.1373823E+001  0.1250000E+03  0.7546771E-02  0.1235069E+00
         21   -1    0    0  502  501  0.00000000000E+00  0.00000000000E+00  0.64846391460E+03  0.64846391460E+03  0.00000000000E+00 0. -1.
         21   -1    0    0  501  502 -0.00000000000E+00 -0.00000000000E+00 -0.60238509993E+01  0.60238509993E+01  0.00000000000E+00 0. -1.
         25    1    1    2    0    0  0.00000000000E+00  0.00000000000E+00  0.64244006361E+03  0.65448776560E+03  0.12500000000E+03 0.  0.
<mgrwt>
<rscale>  2 0.12500000E+03</rscale>
<asrwt>0</asrwt>
<pdfrwt beam="1">  1       21 0.99763624E-01 0.12500000E+03</pdfrwt>
<pdfrwt beam="2">  1       21 0.92674682E-03 0.12500000E+03</pdfrwt>
<totfact> 0.34738591E+06</totfact>
</mgrwt>
</event>
<event>
 3    0  0.1438682E+001  0.1250000E+03  0.7546771E-02  0.1235069E+00
         21   -1    0    0  502  501  0.00000000000E+00  0.00000000000E+00  0.55260357430E+03  0.55260357430E+03  0.00000000000E+00 0.  1.
         21   -1    0    0  501  502 -0.00000000000E+00 -0.00000000000E+00 -0.70688105935E+01  0.70688105935E+01  0.00000000000E+00 0.  1.
         25    1    1    2    0    0  0.00000000000E+00  0.00000000000E+00  0.54553476371E+03  0.55967238489E+03  0.12500000000E+03 0.  0.
<mgrwt>
<rscale>  2 0.12500000E+03</rscale>
<asrwt>0</asrwt>
<pdfrwt beam="1">  1       21 0.85015901E-01 0.12500000E+03</pdfrwt>
<pdfrwt beam="2">  1       21 0.10875098E-02 0.12500000E+03</pdfrwt>
<totfact> 0.38982321E+06</totfact>
</mgrwt>
</event>
<event>
 3    0  0.1734139E+001  0.1250000E+03  0.7546771E-02  0.1235069E+00
         21   -1    0    0  502  501  0.00000000000E+00  0.00000000000E+00  0.83430641248E+02  0.83430641248E+02  0.00000000000E+00 0.  1.
         21   -1    0    0  501  502 -0.00000000000E+00 -0.00000000000E+00 -0.46820328138E+02  0.46820328138E+02  0.00000000000E+00 0.  1.
         25    1    1    2    0    0  0.00000000000E+00  0.00000000000E+00  0.36610313110E+02  0.13025096939E+03  0.12500000000E+03 0.  0.
<mgrwt>
<rscale>  2 0.12500000E+03</rscale>
<asrwt>0</asrwt>
<pdfrwt beam="1">  1       21 0.12835483E-01 0.12500000E+03</pdfrwt>
<pdfrwt beam="2">  1       21 0.72031274E-02 0.12500000E+03</pdfrwt>
<totfact> 0.73331392E+06</totfact>
</mgrwt>
</event>
<event>
 3    0  0.1374469E+001  0.1250000E+03  0.7546771E-02  0.1235069E+00
         21   -1    0    0  502  501  0.00000000000E+00  0.00000000000E+00  0.69017432205E+03  0.69017432205E+03  0.00000000000E+00 0. -1.
         21   -1    0    0  501  502 -0.00000000000E+00 -0.00000000000E+00 -0.56598019880E+01  0.56598019880E+01  0.00000000000E+00 0. -1.
         25    1    1    2    0    0  0.00000000000E+00  0.00000000000E+00  0.68451452007E+03  0.69583412404E+03  0.12500000000E+03 0.  0.
<mgrwt>
<rscale>  2 0.12500000E+03</rscale>
<asrwt>0</asrwt>
<pdfrwt beam="1">  1       21 0.10618060E+00 0.12500000E+03</pdfrwt>
<pdfrwt beam="2">  1       21 0.87073931E-03 0.12500000E+03</pdfrwt>
<totfact> 0.33071384E+06</totfact>
</mgrwt>
</event>
<event>
 3    0  0.1715432E+001  0.1250000E+03  0.7546771E-02  0.1235069E+00
         21   -1    0    0  502  501  0.00000000000E+00  0.00000000000E+00  0.57643622924E+02  0.57643622924E+02  0.00000000000E+00 0. -1.
         21   -1    0    0  501  502 -0.00000000000E+00 -0.00000000000E+00 -0.67765518575E+02  0.67765518575E+02  0.00000000000E+00 0. -1.
         25    1    1    2    0    0  0.00000000000E+00  0.00000000000E+00 -0.10121895651E+02  0.12540914150E+03  0.12500000000E+03 0.  0.
<mgrwt>
<rscale>  2 0.12500000E+03</rscale>
<asrwt>0</asrwt>
<pdfrwt beam="1">  1       21 0.88682496E-02 0.12500000E+03</pdfrwt>
<pdfrwt beam="2">  1       21 0.10425464E-01 0.12500000E+03</pdfrwt>
<totfact> 0.73988128E+06</totfact>
</mgrwt>
</event>
<event>
 3    0  0.1653339E+001  0.1250000E+03  0.7546771E-02  0.1235069E+00
         21   -1    0    0  502  501  0.00000000000E+00  0.00000000000E+00  0.18028443516E+03  0.18028443516E+03  0.00000000000E+00 0. -1.
         21   -1    0    0  501  502 -0.00000000000E+00 -0.00000000000E+00 -0.21667150558E+02  0.21667150558E+02  0.00000000000E+00 0. -1.
         25    1    1    2    0    0  0.00000000000E+00  0.00000000000E+00  0.15861728461E+03  0.20195158572E+03  0.12500000000E+03 0.  0.
<mgrwt>
<rscale>  2 0.12500000E+03</rscale>
<asrwt>0</asrwt>
<pdfrwt beam="1">  1       21 0.27736066E-01 0.12500000E+03</pdfrwt>
<pdfrwt beam="2">  1       21 0.33334079E-02 0.12500000E+03</pdfrwt>
<totfact> 0.64716397E+06</totfact>
</mgrwt>
</event>
<event>
 3    0  0.1368989E+001  0.1250000E+03  0.7546771E-02  0.1235069E+00
         21   -1    0    0  502  501  0.00000000000E+00  0.00000000000E+00  0.47321179053E+01  0.47321179053E+01  0.00000000000E+00 0.  1.
         21   -1    0    0  501  502 -0.00000000000E+00 -0.00000000000E+00 -0.82547605072E+03  0.82547605072E+03  0.00000000000E+00 0.  1.
         25    1    1    2    0    0  0.00000000000E+00  0.00000000000E+00 -0.82074393281E+03  0.83020816862E+03  0.12500000000E+03 0.  0.
<mgrwt>
<rscale>  2 0.12500000E+03</rscale>
<asrwt>0</asrwt>
<pdfrwt beam="1">  1       21 0.72801937E-03 0.12500000E+03</pdfrwt>
<pdfrwt beam="2">  1       21 0.12699610E+00 0.12500000E+03</pdfrwt>
<totfact> 0.28386153E+06</totfact>
</mgrwt>
</event>
<event>
 3    0  0.1714191E+001  0.1250000E+03  0.7546771E-02  0.1235069E+00
         21   -1    0    0  502  501  0.00000000000E+00  0.00000000000E+00  0.79749819516E+02  0.79749819516E+02  0.00000000000E+00 0. -1.
         21   -1    0    0  501  502 -0.00000000000E+00 -0.00000000000E+00 -0.48981302073E+02  0.48981302073E+02  0.00000000000E+00 0. -1.
         25    1    1    2    0    0  0.00000000000E+00  0.00000000000E+00  0.30768517443E+02  0.12873112159E+03  0.12500000000E+03 0.  0.
<mgrwt>
<rscale>  2 0.12500000E+03</rscale>
<asrwt>0</asrwt>
<pdfrwt beam="1">  1       21 0.12269203E-01 0.12500000E+03</pdfrwt>
<pdfrwt beam="2">  1       21 0.75355849E-02 0.12500000E+03</pdfrwt>
<totfact> 0.73535017E+06</totfact>
</mgrwt>
</event>
<event>
 3    0  0.1708808E+001  0.1250000E+03  0.7546771E-02  0.1235069E+00
         21   -1    0    0  502  501  0.00000000000E+00  0.00000000000E+00  0.83893790273E+02  0.83893790273E+02  0.00000000000E+00 0. -1.
         21   -1    0    0  501  502 -0.00000000000E+00 -0.00000000000E+00 -0.46561849063E+02  0.46561849063E+02  0.00000000000E+00 0. -1.
         25    1    1    2    0    0  0.00000000000E+00  0.00000000000E+00  0.37331941210E+02  0.13045563934E+03  0.12500000000E+03 0.  0.
<mgrwt>
<rscale>  2 0.12500000E+03</rscale>
<asrwt>0</asrwt>
<pdfrwt beam="1">  1       21 0.12906737E-01 0.12500000E+03</pdfrwt>
<pdfrwt beam="2">  1       21 0.71633614E-02 0.12500000E+03</pdfrwt>
<totfact> 0.73304081E+06</totfact>
</mgrwt>
</event>
<event>
 3    0  0.1530272E+001  0.1250000E+03  0.7546771E-02  0.1235069E+00
         21   -1    0    0  502  501  0.00000000000E+00  0.00000000000E+00  0.41833058781E+03  0.41833058781E+03  0.00000000000E+00 0.  1.
         21   -1    0    0  501  502 -0.00000000000E+00 -0.00000000000E+00 -0.93377106859E+01  0.93377106859E+01  0.00000000000E+00 0.  1.
         25    1    1    2    0    0  0.00000000000E+00  0.00000000000E+00  0.40899287712E+03  0.42766829849E+03  0.12500000000E+03 0.  0.
<mgrwt>
<rscale>  2 0.12500000E+03</rscale>
<asrwt>0</asrwt>
<pdfrwt beam="1">  1       21 0.64358537E-01 0.12500000E+03</pdfrwt>
<pdfrwt beam="2">  1       21 0.14365712E-02 0.12500000E+03</pdfrwt>
<totfact> 0.46258708E+06</totfact>
</mgrwt>
</event>
<event>
 3    0  0.1527147E+001  0.1250000E+03  0.7546771E-02  0.1235069E+00
         21   -1    0    0  502  501  0.00000000000E+00  0.00000000000E+00  0.44777525917E+03  0.44777525917E+03  0.00000000000E+00 0.  1.
         21   -1    0    0  501  502 -0.00000000000E+00 -0.00000000000E+00 -0.87236843037E+01  0.87236843037E+01  0.00000000000E+00 0.  1.
         25    1    1    2    0    0  0.00000000000E+00  0.00000000000E+00  0.43905157487E+03  0.45649894347E+03  0.12500000000E+03 0.  0.
<mgrwt>
<rscale>  2 0.12500000E+03</rscale>
<asrwt>0</asrwt>
<pdfrwt beam="1">  1       21 0.68888484E-01 0.12500000E+03</pdfrwt>
<pdfrwt beam="2">  1       21 0.13421056E-02 0.12500000E+03</pdfrwt>
<totfact> 0.44505930E+06</totfact>
</mgrwt>
</event>
<event>
 3    0  0.1368989E+001  0.1250000E+03  0.7546771E-02  0.1235069E+00
         21   -1    0    0  502  501  0.00000000000E+00  0.00000000000E+00  0.34132651128E+01  0.34132651128E+01  0.00000000000E+00 0. -1.
         21   -1    0    0  501  502 -0.00000000000E+00 -0.00000000000E+00 -0.11444320529E+04  0.11444320529E+04  0.00000000000E+00 0. -1.
         25    1    1    2    0    0  0.00000000000E+00  0.00000000000E+00 -0.11410187877E+04  0.11478453180E+04  0.12500000000E+03 0.  0.
<mgrwt>
<rscale>  2 0.12500000E+03</rscale>
<asrwt>0</asrwt>
<pdfrwt beam="1">  1       21 0.52511737E-03 0.12500000E+03</pdfrwt>
<pdfrwt beam="2">  1       21 0.17606658E+00 0.12500000E+03</pdfrwt>
<totfact> 0.20214693E+06</totfact>
</mgrwt>
</event>
<event>
 3    0  0.1368989E+001  0.1250000E+03  0.7546771E-02  0.1235069E+00
         21   -1    0    0  502  501  0.00000000000E+00  0.00000000000E+00  0.77680287528E+03  0.77680287528E+03  0.00000000000E+00 0.  1.
         21   -1    0    0  501  502 -0.00000000000E+00 -0.00000000000E+00 -0.50286245382E+01  0.50286245382E+01  0.00000000000E+00 0.  1.
         25    1    1    2    0    0  0.00000000000E+00  0.00000000000E+00  0.77177425074E+03  0.78183149982E+03  0.12500000000E+03 0.  0.
<mgrwt>
<rscale>  2 0.12500000E+03</rscale>
<asrwt>0</asrwt>
<pdfrwt beam="1">  1       21 0.11950804E+00 0.12500000E+03</pdfrwt>
<pdfrwt beam="2">  1       21 0.77363516E-03 0.12500000E+03</pdfrwt>
<totfact> 0.29973700E+06</totfact>
</mgrwt>
</event>
<event>
 3    0  0.1597785E+001  0.1250000E+03  0.7546771E-02  0.1235069E+00
         21   -1    0    0  502  501  0.00000000000E+00  0.00000000000E+00  0.28211092996E+03  0.28211092996E+03  0.00000000000E+00 0.  1.
         21   -1    0    0  501  502 -0.00000000000E+00 -0.00000000000E+00 -0.13846503574E+02  0.13846503574E+02  0.00000000000E+00 0.  1.
         25    1    1    2    0    0  0.00000000000E+00  0.00000000000E+00  0.26826442638E+03  0.29595743353E+03  0.12500000000E+03 0.  0.
<mgrwt>
<rscale>  2 0.12500000E+03</rscale>
<asrwt>0</asrwt>
<pdfrwt beam="1">  1       21 0.43401678E-01 0.12500000E+03</pdfrwt>
<pdfrwt beam="2">  1       21 0.21302315E-02 0.12500000E+03</pdfrwt>
<totfact> 0.55793810E+06</totfact>
</mgrwt>
</event>
<event>
 3    0  0.1551732E+001  0.1250000E+03  0.7546771E-02  0.1235069E+00
         21   -1    0    0  502  501  0.00000000000E+00  0.00000000000E+00  0.36034621182E+03  0.36034621182E+03  0.00000000000E+00 0. -1.
         21   -1    0    0  501  502 -0.00000000000E+00 -0.00000000000E+00 -0.10840269363E+02  0.10840269363E+02  0.00000000000E+00 0. -1.
         25    1    1    2    0    0  0.00000000000E+00  0.00000000000E+00  0.34950594246E+03  0.37118648119E+03  0.12500000000E+03 0.  0.
<mgrwt>
<rscale>  2 0.12500000E+03</rscale>
<asrwt>0</asrwt>
<pdfrwt beam="1">  1       21 0.55437869E-01 0.12500000E+03</pdfrwt>
<pdfrwt beam="2">  1       21 0.16677340E-02 0.12500000E+03</pdfrwt>
<totfact> 0.50010813E+06</totfact>
</mgrwt>
</event>
<event>
 3    0  0.1433835E+001  0.1250000E+03  0.7546771E-02  0.1235069E+00
         21   -1    0    0  502  501  0.00000000000E+00  0.00000000000E+00  0.62445250513E+03  0.62445250513E+03  0.00000000000E+00 0.  1.
         21   -1    0    0  501  502 -0.00000000000E+00 -0.00000000000E+00 -0.62554797489E+01  0.62554797489E+01  0.00000000000E+00 0.  1.
         25    1    1    2    0    0  0.00000000000E+00  0.00000000000E+00  0.61819702538E+03  0.63070798488E+03  0.12500000000E+03 0.  0.
<mgrwt>
<rscale>  2 0.12500000E+03</rscale>
<asrwt>0</asrwt>
<pdfrwt beam="1">  1       21 0.96069567E-01 0.12500000E+03</pdfrwt>
<pdfrwt beam="2">  1       21 0.96238199E-03 0.12500000E+03</pdfrwt>
<totfact> 0.35739734E+06</totfact>
</mgrwt>
</event>
<event>
 3    0  0.1407821E+001  0.1250000E+03  0.7546771E-02  0.1235069E+00
         21   -1    0    0  502  501  0.00000000000E+00  0.00000000000E+00  0.62779101325E+03  0.62779101325E+03  0.00000000000E+00 0. -1.
         21   -1    0    0  501  502 -0.00000000000E+00 -0.00000000000E+00 -0.62222139495E+01  0.62222139495E+01  0.00000000000E+00 0. -1.
         25    1    1    2    0    0  0.00000000000E+00  0.00000000000E+00  0.62156879930E+03  0.63401322720E+03  0.12500000000E+03 0.  0.
<mgrwt>
<rscale>  2 0.12500000E+03</rscale>
<asrwt>0</asrwt>
<pdfrwt beam="1">  1       21 0.96583183E-01 0.12500000E+03</pdfrwt>
<pdfrwt beam="2">  1       21 0.95726417E-03 0.12500000E+03</pdfrwt>
<totfact> 0.35598255E+06</totfact>
</mgrwt>
</event>
<event>
 3    0  0.1687113E+001  0.1250000E+03  0.7546771E-02  0.1235069E+00
         21   -1    0    0  502  501  0.00000000000E+00  0.00000000000E+00  0.31745857641E+02  0.31745857641E+02  0.00000000000E+00 0. -1.
         21   -1    0    0  501  502 -0.00000000000E+00 -0.00000000000E+00 -0.12304754983E+03  0.12304754983E+03  0.00000000000E+00 0. -1.
         25    1    1    2    0    0  0.00000000000E+00  0.00000000000E+00 -0.91301692188E+02  0.15479340747E+03  0.12500000000E+03 0.  0.
<mgrwt>
<rscale>  2 0.12500000E+03</rscale>
<asrwt>0</asrwt>
<pdfrwt beam="1">  1       21 0.48839783E-02 0.12500000E+03</pdfrwt>
<pdfrwt beam="2">  1       21 0.18930392E-01 0.12500000E+03</pdfrwt>
<totfact> 0.70161345E+06</totfact>
</mgrwt>
</event>
<event>
 3    0  0.1531142E+001  0.1250000E+03  0.7546771E-02  0.1235069E+00
         21   -1    0    0  502  501  0.00000000000E+00  0.00000000000E+00  0.10079509806E+02  0.10079509806E+02  0.00000000000E+00 0. -1.
         21   -1    0    0  501  502 -0.00000000000E+00 -0.00000000000E+00 -0.38754364799E+03  0.38754364799E+03  0.00000000000E+00 0. -1.
         25    1    1    2    0    0  0.00000000000E+00  0.00000000000E+00 -0.37746413819E+03  0.39762315780E+03  0.12500000000E+03 0.  0.
<mgrwt>
<rscale>  2 0.12500000E+03</rscale>
<asrwt>0</asrwt>
<pdfrwt beam="1">  1       21 0.15506938E-02 0.12500000E+03</pdfrwt>
<pdfrwt beam="2">  1       21 0.59622099E-01 0.12500000E+03</pdfrwt>
<totfact> 0.48199405E+06</totfact>
</mgrwt>
</event>
<event>
 3    0  0.1722833E+001  0.1250000E+03  0.7546771E-02  0.1235069E+00
         21   -1    0    0  502  501  0.00000000000E+00  0.00000000000E+00  0.11806680527E+03  0.11806680527E+03  0.00000000000E+00 0.  1.
         21   -1    0    0  501  502 -0.00000000000E+00 -0.00000000000E+00 -0.33085082561E+02  0.33085082561E+02  0.00000000000E+00 0.  1.
         25    1    1    2    0    0  0.00000000000E+00  0.00000000000E+00  0.84981722708E+02  0.15115188783E+03  0.12500000000E+03 0.  0.
<mgrwt>
<rscale>  2 0.12500000E+03</rscale>
<asrwt>0</asrwt>
<pdfrwt beam="1">  1       21 0.18164124E-01 0.12500000E+03</pdfrwt>
<pdfrwt beam="2">  1       21 0.50900127E-02 0.12500000E+03</pdfrwt>
<totfact> 0.70614802E+06</totfact>
</mgrwt>
</event>
<event>
 3    0  0.1368989E+001  0.1250000E+03  0.7546771E-02  0.1235069E+00
         21   -1    0    0  502  501  0.00000000000E+00  0.00000000000E+00  0.72482555399E+03  0.72482555399E+03  0.00000000000E+00 0. -1.
         21   -1    0    0  501  502 -0.00000000000E+00 -0.00000000000E+00 -0.53892277645E+01  0.53892277645E+01  0.00000000000E+00 0. -1.
         25    1    1    2    0    0  0.00000000000E+00  0.00000000000E+00  0.71943632623E+03  0.73021478176E+03  0.12500000000E+03 0.  0.
<mgrwt>
<rscale>  2 0.12500000E+03</rscale>
<asrwt>0</asrwt>
<pdfrwt beam="1">  1       21 0.11151155E+00 0.12500000E+03</pdfrwt>
<pdfrwt beam="2">  1       21 0.82911254E-03 0.12500000E+03</pdfrwt>
<totfact> 0.31777302E+06</totfact>
</mgrwt>
</event>
<event>
 3    0  0.1448062E+001  0.1250000E+03  0.7546771E-02  0.1235069E+00
         21   -1    0    0  502  501  0.00000000000E+00  0.00000000000E+00  0.63434063874E+01  0.63434063874E+01  0.00000000000E+00 0.  1.
         21   -1    0    0  501  502 -0.00000000000E+00 -0.00000000000E+00 -0.61579690177E+03  0.61579690177E+03  0.00000000000E+00 0.  1.
         25    1    1    2    0    0  0.00000000000E+00  0.00000000000E+00 -0.60945349538E+03  0.62214030816E+03  0.12500000000E+03 0.  0.
<mgrwt>
<rscale>  2 0.12500000E+03</rscale>
<asrwt>0</asrwt>
<pdfrwt beam="1">  1       21 0.97590877E-03 0.12500000E+03</pdfrwt>
<pdfrwt beam="2">  1       21 0.94737976E-01 0.12500000E+03</pdfrwt>
<totfact> 0.36110129E+06</totfact>
</mgrwt>
</event>
<event>
 3    0  0.1678556E+001  0.1250000E+03  0.7546771E-02  0.1235069E+00
         21   -1    0    0  502  501  0.00000000000E+00  0.00000000000E+00  0.22439895778E+02  0.22439895778E+02  0.00000000000E+00 0.  1.
         21   -1    0    0  501  502 -0.00000000000E+00 -0.00000000000E+00 -0.17407612044E+03  0.17407612044E+03  0.00000000000E+00 0.  1.
         25    1    1    2    0    0  0.00000000000E+00  0.00000000000E+00 -0.15163622466E+03  0.19651601621E+03  0.12500000000E+03 0.  0.
<mgrwt>
<rscale>  2 0.12500000E+03</rscale>
<asrwt>0</asrwt>
<pdfrwt beam="1">  1       21 0.34522917E-02 0.12500000E+03</pdfrwt>
<pdfrwt beam="2">  1       21 0.26780941E-01 0.12500000E+03</pdfrwt>
<totfact> 0.65305480E+06</totfact>
</mgrwt>
</event>
<event>
 3    0  0.1727560E+001  0.1250000E+03  0.7546771E-02  0.1235069E+00
         21   -1    0    0  502  501  0.00000000000E+00  0.00000000000E+00  0.11137398666E+03  0.11137398666E+03  0.00000000000E+00 0.  1.
         21   -1    0    0  501  502 -0.00000000000E+00 -0.00000000000E+00 -0.35073270853E+02  0.35073270853E+02  0.00000000000E+00 0.  1.
         25    1    1    2    0    0  0.00000000000E+00  0.00000000000E+00  0.76300715803E+02  0.14644725751E+03  0.12500000000E+03 0.  0.
<mgrwt>
<rscale>  2 0.12500000E+03</rscale>
<asrwt>0</asrwt>
<pdfrwt beam="1">  1       21 0.17134459E-01 0.12500000E+03</pdfrwt>
<pdfrwt beam="2">  1       21 0.53958879E-02 0.12500000E+03</pdfrwt>
<totfact> 0.71208397E+06</totfact>
</mgrwt>
</event>
<event>
 3    0  0.1731614E+001  0.1250000E+03  0.7546771E-02  0.1235069E+00
         21   -1    0    0  502  501  0.00000000000E+00  0.00000000000E+00  0.39447810539E+02  0.39447810539E+02  0.00000000000E+00 0.  1.
         21   -1    0    0  501  502 -0.00000000000E+00 -0.00000000000E+00 -0.99023239735E+02  0.99023239735E+02  0.00000000000E+00 0.  1.
         25    1    1    2    0    0  0.00000000000E+00  0.00000000000E+00 -0.59575429196E+02  0.13847105027E+03  0.12500000000E+03 0.  0.
<mgrwt>
<rscale>  2 0.12500000E+03</rscale>
<asrwt>0</asrwt>
<pdfrwt beam="1">  1       21 0.60688940E-02 0.12500000E+03</pdfrwt>
<pdfrwt beam="2">  1       21 0.15234344E-01 0.12500000E+03</pdfrwt>
<totfact> 0.72239543E+06</totfact>
</mgrwt>
</event>
<event>
 3    0  0.1679645E+001  0.1250000E+03  0.7546771E-02  0.1235069E+00
         21   -1    0    0  502  501  0.00000000000E+00  0.00000000000E+00  0.13520176246E+03  0.13520176246E+03  0.00000000000E+00 0. -1.
         21   -1    0    0  501  502 -0.00000000000E+00 -0.00000000000E+00 -0.28892005022E+02  0.28892005022E+02  0.00000000000E+00 0. -1.
         25    1    1    2    0    0  0.00000000000E+00  0.00000000000E+00  0.10630975744E+03  0.16409376748E+03  0.12500000000E+03 0.  0.
<mgrwt>
<rscale>  2 0.12500000E+03</rscale>
<asrwt>0</asrwt>
<pdfrwt beam="1">  1       21 0.20800271E-01 0.12500000E+03</pdfrwt>
<pdfrwt beam="2">  1       21 0.44449239E-02 0.12500000E+03</pdfrwt>
<totfact> 0.69022710E+06</totfact>
</mgrwt>
</event>
<event>
 3    0  0.1663476E+001  0.1250000E+03  0.7546771E-02  0.1235069E+00
         21   -1    0    0  502  501  0.00000000000E+00  0.00000000000E+00  0.17610457013E+03  0.17610457013E+03  0.00000000000E+00 0. -1.
         21   -1    0    0  501  502 -0.00000000000E+00 -0.00000000000E+00 -0.22181423214E+02  0.22181423214E+02  0.00000000000E+00 0. -1.
         25    1    1    2    0    0  0.00000000000E+00  0.00000000000E+00  0.15392314692E+03  0.19828599335E+03  0.12500000000E+03 0.  0.
<mgrwt>
<rscale>  2 0.12500000E+03</rscale>
<asrwt>0</asrwt>
<pdfrwt beam="1">  1       21 0.27093010E-01 0.12500000E+03</pdfrwt>
<pdfrwt beam="2">  1       21 0.34125268E-02 0.12500000E+03</pdfrwt>
<totfact> 0.65113163E+06</totfact>
</mgrwt>
</event>
<event>
 3    0  0.1715495E+001  0.1250000E+03  0.7546771E-02  0.1235069E+00
         21   -1    0    0  502  501  0.00000000000E+00  0.00000000000E+00  0.65498569872E+02  0.65498569872E+02  0.00000000000E+00 0. -1.
         21   -1    0    0  501  502 -0.00000000000E+00 -0.00000000000E+00 -0.59638706733E+02  0.59638706733E+02  0.00000000000E+00 0. -1.
         25    1    1    2    0    0  0.00000000000E+00  0.00000000000E+00  0.58598631387E+01  0.12513727660E+03  0.12500000000E+03 0.  0.
<mgrwt>
<rscale>  2 0.12500000E+03</rscale>
<asrwt>0</asrwt>
<pdfrwt beam="1">  1       21 0.10076703E-01 0.12500000E+03</pdfrwt>
<pdfrwt beam="2">  1       21 0.91751857E-02 0.12500000E+03</pdfrwt>
<totfact> 0.74025041E+06</totfact>
</mgrwt>
</event>
<event>
 3    0  0.1580539E+001  0.1250000E+03  0.7546771E-02  0.1235069E+00
         21   -1    0    0  502  501  0.00000000000E+00  0.00000000000E+00  0.13953562238E+02  0.13953562238E+02  0.00000000000E+00 0. -1.
         21   -1    0    0  501  502 -0.00000000000E+00 -0.00000000000E+00 -0.27994643470E+03  0.27994643470E+03  0.00000000000E+00 0. -1.
         25    1    1    2    0    0  0.00000000000E+00  0.00000000000E+00 -0.26599287247E+03  0.29389999694E+03  0.12500000000E+03 0.  0.
<mgrwt>
<rscale>  2 0.12500000E+03</rscale>
<asrwt>0</asrwt>
<pdfrwt beam="1">  1       21 0.21467021E-02 0.12500000E+03</pdfrwt>
<pdfrwt beam="2">  1       21 0.43068678E-01 0.12500000E+03</pdfrwt>
<totfact> 0.55966950E+06</totfact>
</mgrwt>
</event>
<event>
 3    0  0.1368989E+001  0.1250000E+03  0.7546771E-02  0.1235069E+00
         21   -1    0    0  502  501  0.00000000000E+00  0.00000000000E+00  0.97238883516E+03  0.97238883516E+03  0.00000000000E+00 0.  1.
         21   -1    0    0  501  502 -0.00000000000E+00 -0.00000000000E+00 -0.40171687074E+01  0.40171687074E+01  0.00000000000E+00 0.  1.
         25    1    1    2    0    0  0.00000000000E+00  0.00000000000E+00  0.96837166645E+03  0.97640600386E+03  0.12500000000E+03 0.  0.
<mgrwt>
<rscale>  2 0.12500000E+03</rscale>
<asrwt>0</asrwt>
<pdfrwt beam="1">  1       21 0.14959810E+00 0.12500000E+03</pdfrwt>
<pdfrwt beam="2">  1       21 0.61802673E-03 0.12500000E+03</pdfrwt>
<totfact> 0.24217529E+06</totfact>
</mgrwt>
</event>
<event>
 3    0  0.1368989E+001  0.1250000E+03  0.7546771E-02  0.1235069E+00
         21   -1    0    0  502  501  0.00000000000E+00  0.00000000000E+00  0.72687485161E+03  0.72687485161E+03  0.00000000000E+00 0.  1.
         21   -1    0    0  501  502 -0.00000000000E+00 -0.00000000000E+00 -0.53740337712E+01  0.53740337712E+01  0.00000000000E+00 0.  1.
         25    1    1    2    0    0  0.00000000000E+00  0.00000000000E+00  0.72150081784E+03  0.73224888538E+03  0.12500000000E+03 0.  0.
<mgrwt>
<rscale>  2 0.12500000E+03</rscale>
<asrwt>0</asrwt>
<pdfrwt beam="1">  1       21 0.11182682E+00 0.12500000E+03</pdfrwt>
<pdfrwt beam="2">  1       21 0.82677500E-03 0.12500000E+03</pdfrwt>
<totfact> 0.31703287E+06</totfact>
</mgrwt>
</event>
<event>
 3    0  0.1611418E+001  0.1250000E+03  0.7546771E-02  0.1235069E+00
         21   -1    0    0  502  501  0.00000000000E+00  0.00000000000E+00  0.29116606753E+03  0.29116606753E+03  0.00000000000E+00 0.  1.
         21   -1    0    0  501  502 -0.00000000000E+00 -0.00000000000E+00 -0.13415883359E+02  0.13415883359E+02  0.00000000000E+00 0.  1.
         25    1    1    2    0    0  0.00000000000E+00  0.00000000000E+00  0.27775018417E+03  0.30458195089E+03  0.12500000000E+03 0.  0.
<mgrwt>
<rscale>  2 0.12500000E+03</rscale>
<asrwt>0</asrwt>
<pdfrwt beam="1">  1       21 0.44794775E-01 0.12500000E+03</pdfrwt>
<pdfrwt beam="2">  1       21 0.20639823E-02 0.12500000E+03</pdfrwt>
<totfact> 0.55077535E+06</totfact>
</mgrwt>
</event>
<event>
 3    0  0.1615686E+001  0.1250000E+03  0.7546771E-02  0.1235069E+00
         21   -1    0    0  502  501  0.00000000000E+00  0.00000000000E+00  0.16928588603E+02  0.16928588603E+02  0.00000000000E+00 0. -1.
         21   -1    0    0  501  502 -0.00000000000E+00 -0.00000000000E+00 -0.23074871105E+03  0.23074871105E+03  0.00000000000E+00 0. -1.
         25    1    1    2    0    0  0.00000000000E+00  0.00000000000E+00 -0.21382012245E+03  0.24767729965E+03  0.12500000000E+03 0.  0.
<mgrwt>
<rscale>  2 0.12500000E+03</rscale>
<asrwt>0</asrwt>
<pdfrwt beam="1">  1       21 0.26043983E-02 0.12500000E+03</pdfrwt>
<pdfrwt beam="2">  1       21 0.35499802E-01 0.12500000E+03</pdfrwt>
<totfact> 0.60097559E+06</totfact>
</mgrwt>
</event>
<event>
 3    0  0.1581978E+001  0.1250000E+03  0.7546771E-02  0.1235069E+00
         21   -1    0    0  502  501  0.00000000000E+00  0.00000000000E+00  0.31231997956E+03  0.31231997956E+03  0.00000000000E+00 0. -1.
         21   -1    0    0  501  502 -0.00000000000E+00 -0.00000000000E+00 -0.12507204968E+02  0.12507204968E+02  0.00000000000E+00 0. -1.
         25    1    1    2    0    0  0.00000000000E+00  0.00000000000E+00  0.29981277460E+03  0.32482718453E+03  0.12500000000E+03 0.  0.
<mgrwt>
<rscale>  2 0.12500000E+03</rscale>
<asrwt>0</asrwt>
<pdfrwt beam="1">  1       21 0.48049222E-01 0.12500000E+03</pdfrwt>
<pdfrwt beam="2">  1       21 0.19241856E-02 0.12500000E+03</pdfrwt>
<totfact> 0.53453019E+06</totfact>
</mgrwt>
</event>
<event>
 3    0  0.1532750E+001  0.1250000E+03  0.7546771E-02  0.1235069E+00
         21   -1    0    0  502  501  0.00000000000E+00  0.00000000000E+00  0.10099813124E+02  0.10099813124E+02  0.00000000000E+00 0. -1.
         21   -1    0    0  501  502 -0.00000000000E+00 -0.00000000000E+00 -0.38676458189E+03  0.38676458189E+03  0.00000000000E+00 0. -1.
         25    1    1    2    0    0  0.00000000000E+00  0.00000000000E+00 -0.37666476877E+03  0.39686439501E+03  0.12500000000E+03 0.  0.
<mgrwt>
<rscale>  2 0.12500000E+03</rscale>
<asrwt>0</asrwt>
<pdfrwt beam="1">  1       21 0.15538176E-02 0.12500000E+03</pdfrwt>
<pdfrwt beam="2">  1       21 0.59502237E-01 0.12500000E+03</pdfrwt>
<totfact> 0.48250032E+06</totfact>
</mgrwt>
</event>
<event>
 3    0  0.1374965E+001  0.1250000E+03  0.7546771E-02  0.1235069E+00
         21   -1    0    0  502  501  0.00000000000E+00  0.00000000000E+00  0.74036449899E+03  0.74036449899E+03  0.00000000000E+00 0. -1.
         21   -1    0    0  501  502 -0.00000000000E+00 -0.00000000000E+00 -0.52761173791E+01  0.52761173791E+01  0.00000000000E+00 0. -1.
         25    1    1    2    0    0  0.00000000000E+00  0.00000000000E+00  0.73508838161E+03  0.74564061637E+03  0.12500000000E+03 0.  0.
<mgrwt>
<rscale>  2 0.12500000E+03</rscale>
<asrwt>0</asrwt>
<pdfrwt beam="1">  1       21 0.11390215E+00 0.12500000E+03</pdfrwt>
<pdfrwt beam="2">  1       21 0.81171095E-03 0.12500000E+03</pdfrwt>
<totfact> 0.31222800E+06</totfact>
</mgrwt>
</event>
<event>
 3    0  0.1713653E+001  0.1250000E+03  0.7546771E-02  0.1235069E+00
         21   -1    0    0  502  501  0.00000000000E+00  0.00000000000E+00  0.77166298480E+02  0.77166298480E+02  0.00000000000E+00 0. -1.
         21   -1    0    0  501  502 -0.00000000000E+00 -0.00000000000E+00 -0.50621191853E+02  0.50621191853E+02  0.00000000000E+00 0. -1.
         25    1    1    2    0    0  0.00000000000E+00  0.00000000000E+00  0.26545106627E+02  0.12778749033E+03  0.12500000000E+03 0.  0.
<mgrwt>
<rscale>  2 0.12500000E+03</rscale>
<asrwt>0</asrwt>
<pdfrwt beam="1">  1       21 0.11871738E-01 0.12500000E+03</pdfrwt>
<pdfrwt beam="2">  1       21 0.77878757E-02 0.12500000E+03</pdfrwt>
<totfact> 0.73662287E+06</totfact>
</mgrwt>
</event>
<event>
 3    0  0.1734563E+001  0.1250000E+03  0.7546771E-02  0.1235069E+00
         21   -1    0    0  502  501  0.00000000000E+00  0.00000000000E+00  0.47113679124E+02  0.47113679124E+02  0.00000000000E+00 0.  1.
         21   -1    0    0  501  502 -0.00000000000E+00 -0.00000000000E+00 -0.82911164499E+02  0.82911164499E+02  0.00000000000E+00 0.  1.
         25    1    1    2    0    0  0.00000000000E+00  0.00000000000E+00 -0.35797485375E+02  0.13002484362E+03  0.12500000000E+03 0.  0.
<mgrwt>
<rscale>  2 0.12500000E+03</rscale>
<asrwt>0</asrwt>
<pdfrwt beam="1">  1       21 0.72482584E-02 0.12500000E+03</pdfrwt>
<pdfrwt beam="2">  1       21 0.12755564E-01 0.12500000E+03</pdfrwt>
<totfact> 0.73361595E+06</totfact>
</mgrwt>
</event>
<event>
 3    0  0.1696840E+001  0.1250000E+03  0.7546771E-02  0.1235069E+00
         21   -1    0    0  502  501  0.00000000000E+00  0.00000000000E+00  0.23446291935E+02  0.23446291935E+02  0.00000000000E+00 0.  1.
         21   -1    0    0  501  502 -0.00000000000E+00 -0.00000000000E+00 -0.16660416969E+03  0.16660416969E+03  0.00000000000E+00 0.  1.
         25    1    1    2    0    0  0.00000000000E+00  0.00000000000E+00 -0.14315787775E+03  0.19005046162E+03  0.12500000000E+03 0.  0.
<mgrwt>
<rscale>  2 0.12500000E+03</rscale>
<asrwt>0</asrwt>
<pdfrwt beam="1">  1       21 0.36071217E-02 0.12500000E+03</pdfrwt>
<pdfrwt beam="2">  1       21 0.25631411E-01 0.12500000E+03</pdfrwt>
<totfact> 0.66016855E+06</totfact>
</mgrwt>
</event>
<event>
 3    0  0.1612000E+001  0.1250000E+03  0.7546771E-02  0.1235069E+00
         21   -1    0    0  502  501  0.00000000000E+00  0.00000000000E+00  0.15987207149E+02  0.15987207149E+02  0.00000000000E+00 0. -1.
         21   -1    0    0  501  502 -0.00000000000E+00 -0.00000000000E+00 -0.24433598461E+03  0.24433598461E+03  0.00000000000E+00 0. -1.
         25    1    1    2    0    0  0.00000000000E+00  0.00000000000E+00 -0.22834877746E+03  0.26032319176E+03  0.12500000000E+03 0.  0.
<mgrwt>
<rscale>  2 0.12500000E+03</rscale>
<asrwt>0</asrwt>
<pdfrwt beam="1">  1       21 0.24595705E-02 0.12500000E+03</pdfrwt>
<pdfrwt beam="2">  1       21 0.37590149E-01 0.12500000E+03</pdfrwt>
<totfact> 0.58919663E+06</totfact>
</mgrwt>
</event>
<event>
 3    0  0.1711921E+001  0.1250000E+03  0.7546771E-02  0.1235069E+00
         21   -1    0    0  502  501  0.00000000000E+00  0.00000000000E+00  0.78711078111E+02  0.78711078111E+02  0.00000000000E+00 0. -1.
         21   -1    0    0  501  502 -0.00000000000E+00 -0.00000000000E+00 -0.49627702907E+02  0.49627702907E+02  0.00000000000E+00 0. -1.
         25    1    1    2    0    0  0.00000000000E+00  0.00000000000E+00  0.29083375203E+02  0.12833878102E+03  0.12500000000E+03 0.  0.
<mgrwt>
<rscale>  2 0.12500000E+03</rscale>
<asrwt>0</asrwt>
<pdfrwt beam="1">  1       21 0.12109397E-01 0.12500000E+03</pdfrwt>
<pdfrwt beam="2">  1       21 0.76350312E-02 0.12500000E+03</pdfrwt>
<totfact> 0.73587844E+06</totfact>
</mgrwt>
</event>
<event>
 3    0  0.1510204E+001  0.1250000E+03  0.7546771E-02  0.1235069E+00
         21   -1    0    0  502  501  0.00000000000E+00  0.00000000000E+00  0.42833980464E+03  0.42833980464E+03  0.00000000000E+00 0.  1.
         21   -1    0    0  501  502 -0.00000000000E+00 -0.00000000000E+00 -0.91195120269E+01  0.91195120269E+01  0.00000000000E+00 0.  1.
         25    1    1    2    0    0  0.00000000000E+00  0.00000000000E+00  0.41922029261E+03  0.43745931667E+03  0.12500000000E+03 0.  0.
<mgrwt>
<rscale>  2 0.12500000E+03</rscale>
<asrwt>0</asrwt>
<pdfrwt beam="1">  1       21 0.65898416E-01 0.12500000E+03</pdfrwt>
<pdfrwt beam="2">  1       21 0.14030022E-02 0.12500000E+03</pdfrwt>
<totfact> 0.45652069E+06</totfact>
</mgrwt>
</event>
<event>
 3    0  0.1368989E+001  0.1250000E+03  0.7546771E-02  0.1235069E+00
         21   -1    0    0  502  501  0.00000000000E+00  0.00000000000E+00  0.90475998084E+03  0.90475998084E+03  0.00000000000E+00 0. -1.
         21   -1    0    0  501  502 -0.00000000000E+00 -0.00000000000E+00 -0.43174433913E+01  0.43174433913E+01  0.00000000000E+00 0. -1.
         25    1    1    2    0    0  0.00000000000E+00  0.00000000000E+00  0.90044253745E+03  0.90907742424E+03  0.12500000000E+03 0.  0.
<mgrwt>
<rscale>  2 0.12500000E+03</rscale>
<asrwt>0</asrwt>
<pdfrwt beam="1">  1       21 0.13919369E+00 0.12500000E+03</pdfrwt>
<pdfrwt beam="2">  1       21 0.66422278E-03 0.12500000E+03</pdfrwt>
<totfact> 0.26039816E+06</totfact>
</mgrwt>
</event>
<event>
 3    0  0.1714884E+001  0.1250000E+03  0.7546771E-02  0.1235069E+00
         21   -1    0    0  502  501  0.00000000000E+00  0.00000000000E+00  0.68228922236E+02  0.68228922236E+02  0.00000000000E+00 0. -1.
         21   -1    0    0  501  502 -0.00000000000E+00 -0.00000000000E+00 -0.57252113502E+02  0.57252113502E+02  0.00000000000E+00 0. -1.
         25    1    1    2    0    0  0.00000000000E+00  0.00000000000E+00  0.10976808734E+02  0.12548103574E+03  0.12500000000E+03 0.  0.
<mgrwt>
<rscale>  2 0.12500000E+03</rscale>
<asrwt>0</asrwt>
<pdfrwt beam="1">  1       21 0.10496757E-01 0.12500000E+03</pdfrwt>
<pdfrwt beam="2">  1       21 0.88080175E-02 0.12500000E+03</pdfrwt>
<totfact> 0.73978049E+06</totfact>
</mgrwt>
</event>
<event>
 3    0  0.1709269E+001  0.1250000E+03  0.7546771E-02  0.1235069E+00
         21   -1    0    0  502  501  0.00000000000E+00  0.00000000000E+00  0.86020817744E+02  0.86020817744E+02  0.00000000000E+00 0. -1.
         21   -1    0    0  501  502 -0.00000000000E+00 -0.00000000000E+00 -0.45410519249E+02  0.45410519249E+02  0.00000000000E+00 0. -1.
         25    1    1    2    0    0  0.00000000000E+00  0.00000000000E+00  0.40610298495E+02  0.13143133699E+03  0.12500000000E+03 0.  0.
<mgrwt>
<rscale>  2 0.12500000E+03</rscale>
<asrwt>0</asrwt>
<pdfrwt beam="1">  1       21 0.13233972E-01 0.12500000E+03</pdfrwt>
<pdfrwt beam="2">  1       21 0.69862337E-02 0.12500000E+03</pdfrwt>
<totfact> 0.73172604E+06</totfact>
</mgrwt>
</event>
<event>
 3    0  0.1368989E+001  0.1250000E+03  0.7546771E-02  0.1235069E+00
         21   -1    0    0  502  501  0.00000000000E+00  0.00000000000E+00  0.44451439848E+01  0.44451439848E+01  0.00000000000E+00 0.  1.
         21   -1    0    0  501  502 -0.00000000000E+00 -0.00000000000E+00 -0.87876793493E+03  0.87876793493E+03  0.00000000000E+00 0.  1.
         25    1    1    2    0    0  0.00000000000E+00  0.00000000000E+00 -0.87432279094E+03  0.88321307891E+03  0.12500000000E+03 0.  0.
<mgrwt>
<rscale>  2 0.12500000E+03</rscale>
<asrwt>0</asrwt>
<pdfrwt beam="1">  1       21 0.68386831E-03 0.12500000E+03</pdfrwt>
<pdfrwt beam="2">  1       21 0.13519507E+00 0.12500000E+03</pdfrwt>
<totfact> 0.26783162E+06</totfact>
</mgrwt>
</event>
<event>
 3    0  0.1697072E+001  0.1250000E+03  0.7546771E-02  0.1235069E+00
         21   -1    0    0  502  501  0.00000000000E+00  0.00000000000E+00  0.13811896717E+03  0.13811896717E+03  0.00000000000E+00 0.  1.
         21   -1    0    0  501  502 -0.00000000000E+00 -0.00000000000E+00 -0.28281778239E+02  0.28281778239E+02  0.00000000000E+00 0.  1.
         25    1    1    2    0    0  0.00000000000E+00  0.00000000000E+00  0.10983718893E+03  0.16640074541E+03  0.12500000000E+03 0.  0.
<mgrwt>
<rscale>  2 0.12500000E+03</rscale>
<asrwt>0</asrwt>
<pdfrwt beam="1">  1       21 0.21249072E-01 0.12500000E+03</pdfrwt>
<pdfrwt beam="2">  1       21 0.43510429E-02 0.12500000E+03</pdfrwt>
<totfact> 0.68745729E+06</totfact>
</mgrwt>
</event>
<event>
 3    0  0.1713054E+001  0.1250000E+03  0.7546771E-02  0.1235069E+00
         21   -1    0    0  502  501  0.00000000000E+00  0.00000000000E+00  0.80673978069E+02  0.80673978069E+02  0.00000000000E+00 0. -1.
         21   -1    0    0  501  502 -0.00000000000E+00 -0.00000000000E+00 -0.48420198104E+02  0.48420198104E+02  0.00000000000E+00 0. -1.
         25    1    1    2    0    0  0.00000000000E+00  0.00000000000E+00  0.32253779965E+02  0.12909417617E+03  0.12500000000E+03 0.  0.
<mgrwt>
<rscale>  2 0.12500000E+03</rscale>
<asrwt>0</asrwt>
<pdfrwt beam="1">  1       21 0.12411381E-01 0.12500000E+03</pdfrwt>
<pdfrwt beam="2">  1       21 0.74492612E-02 0.12500000E+03</pdfrwt>
<totfact> 0.73486236E+06</totfact>
</mgrwt>
</event>
<event>
 3    0  0.1711925E+001  0.1250000E+03  0.7546771E-02  0.1235069E+00
         21   -1    0    0  502  501  0.00000000000E+00  0.00000000000E+00  0.81562791638E+02  0.81562791638E+02  0.00000000000E+00 0. -1.
         21   -1    0    0  501  502 -0.00000000000E+00 -0.00000000000E+00 -0.47892549060E+02  0.47892549060E+02  0.00000000000E+00 0. -1.
         25    1    1    2    0    0  0.00000000000E+00  0.00000000000E+00  0.33670242578E+02  0.12945534070E+03  0.12500000000E+03 0.  0.
<mgrwt>
<rscale>  2 0.12500000E+03</rscale>
<asrwt>0</asrwt>
<pdfrwt beam="1">  1       21 0.12548122E-01 0.12500000E+03</pdfrwt>
<pdfrwt beam="2">  1       21 0.73680845E-02 0.12500000E+03</pdfrwt>
<totfact> 0.73437800E+06</totfact>
</mgrwt>
</event>
<event>
 3    0  0.1672694E+001  0.1250000E+03  0.7546771E-02  0.1235069E+00
         21   -1    0    0  502  501  0.00000000000E+00  0.00000000000E+00  0.19947135223E+03  0.19947135223E+03  0.00000000000E+00 0.  1.
         21   -1    0    0  501  502 -0.00000000000E+00 -0.00000000000E+00 -0.19583012579E+02  0.19583012579E+02  0.00000000000E+00 0.  1.
         25    1    1    2    0    0  0.00000000000E+00  0.00000000000E+00  0.17988833965E+03  0.21905436481E+03  0.12500000000E+03 0.  0.
<mgrwt>
<rscale>  2 0.12500000E+03</rscale>
<asrwt>0</asrwt>
<pdfrwt beam="1">  1       21 0.30687899E-01 0.12500000E+03</pdfrwt>
<pdfrwt beam="2">  1       21 0.30127713E-02 0.12500000E+03</pdfrwt>
<totfact> 0.62919323E+06</totfact>
</mgrwt>
</event>
<event>
 3    0  0.1368989E+001  0.1250000E+03  0.7546771E-02  0.1235069E+00
         21   -1    0    0  502  501  0.00000000000E+00  0.00000000000E+00  0.73043052417E+03  0.73043052417E+03  0.00000000000E+00 0. -1.
         21   -1    0    0  501  502 -0.00000000000E+00 -0.00000000000E+00 -0.53478734400E+01  0.53478734400E+01  0.00000000000E+00 0. -1.
         25    1    1    2    0    0  0.00000000000E+00  0.00000000000E+00  0.72508265073E+03  0.73577839761E+03  0.12500000000E+03 0.  0.
<mgrwt>
<rscale>  2 0.12500000E+03</rscale>
<asrwt>0</asrwt>
<pdfrwt beam="1">  1       21 0.11237385E+00 0.12500000E+03</pdfrwt>
<pdfrwt beam="2">  1       21 0.82275034E-03 0.12500000E+03</pdfrwt>
<totfact> 0.31575512E+06</totfact>
</mgrwt>
</event>
<event>
 3    0  0.1703929E+001  0.1250000E+03  0.7546771E-02  0.1235069E+00
         21   -1    0    0  502  501  0.00000000000E+00  0.00000000000E+00  0.13519342479E+03  0.13519342479E+03  0.00000000000E+00 0.  1.
         21   -1    0    0  501  502 -0.00000000000E+00 -0.00000000000E+00 -0.28893786855E+02  0.28893786855E+02  0.00000000000E+00 0.  1.
         25    1    1    2    0    0  0.00000000000E+00  0.00000000000E+00  0.10629963793E+03  0.16408721164E+03  0.12500000000E+03 0.  0.
<mgrwt>
<rscale>  2 0.12500000E+03</rscale>
<asrwt>0</asrwt>
<pdfrwt beam="1">  1       21 0.20798988E-01 0.12500000E+03</pdfrwt>
<pdfrwt beam="2">  1       21 0.44451981E-02 0.12500000E+03</pdfrwt>
<totfact> 0.69023500E+06</totfact>
</mgrwt>
</event>
<event>
 3    0  0.1715349E+001  0.1250000E+03  0.7546771E-02  0.1235069E+00
         21   -1    0    0  502  501  0.00000000000E+00  0.00000000000E+00  0.58506532015E+02  0.58506532015E+02  0.00000000000E+00 0. -1.
         21   -1    0    0  501  502 -0.00000000000E+00 -0.00000000000E+00 -0.66766049285E+02  0.66766049285E+02  0.00000000000E+00 0. -1.
         25    1    1    2    0    0  0.00000000000E+00  0.00000000000E+00 -0.82595172700E+01  0.12527258130E+03  0.12500000000E+03 0.  0.
<mgrwt>
<rscale>  2 0.12500000E+03</rscale>
<asrwt>0</asrwt>
<pdfrwt beam="1">  1       21 0.90010049E-02 0.12500000E+03</pdfrwt>
<pdfrwt beam="2">  1       21 0.10271700E-01 0.12500000E+03</pdfrwt>
<totfact> 0.74006773E+06</totfact>
</mgrwt>
</event>
<event>
 3    0  0.1368989E+001  0.1250000E+03  0.7546771E-02  0.1235069E+00
         21   -1    0    0  502  501  0.00000000000E+00  0.00000000000E+00  0.27349707310E+01  0.27349707310E+01  0.00000000000E+00 0. -1.
         21   -1    0    0  501  502 -0.00000000000E+00 -0.00000000000E+00 -0.14282602573E+04  0.14282602573E+04  0.00000000000E+00 0. -1.
         25    1    1    2    0    0  0.00000000000E+00  0.00000000000E+00 -0.14255252866E+04  0.14309952280E+04  0.12500000000E+03 0.  0.
<mgrwt>
<rscale>  2 0.12500000E+03</rscale>
<asrwt>0</asrwt>
<pdfrwt beam="1">  1       21 0.42076539E-03 0.12500000E+03</pdfrwt>
<pdfrwt beam="2">  1       21 0.21973200E+00 0.12500000E+03</pdfrwt>
<totfact> 0.15047976E+06</totfact>
</mgrwt>
</event>
<event>
 3    0  0.1691697E+001  0.1250000E+03  0.7546771E-02  0.1235069E+00
         21   -1    0    0  502  501  0.00000000000E+00  0.00000000000E+00  0.35500563222E+02  0.35500563222E+02  0.00000000000E+00 0. -1.
         21   -1    0    0  501  502 -0.00000000000E+00 -0.00000000000E+00 -0.11003346554E+03  0.11003346554E+03  0.00000000000E+00 0. -1.
         25    1    1    2    0    0  0.00000000000E+00  0.00000000000E+00 -0.74532902320E+02  0.14553402876E+03  0.12500000000E+03 0.  0.
<mgrwt>
<rscale>  2 0.12500000E+03</rscale>
<asrwt>0</asrwt>
<pdfrwt beam="1">  1       21 0.54616252E-02 0.12500000E+03</pdfrwt>
<pdfrwt beam="2">  1       21 0.16928225E-01 0.12500000E+03</pdfrwt>
<totfact> 0.71324826E+06</totfact>
</mgrwt>
</event>
<event>
 3    0  0.1525161E+001  0.1250000E+03  0.7546771E-02  0.1235069E+00
         21   -1    0    0  502  501  0.00000000000E+00  0.00000000000E+00  0.95218606466E+01  0.95218606466E+01  0.00000000000E+00 0. -1.
         21   -1    0    0  501  502 -0.00000000000E+00 -0.00000000000E+00 -0.41024019832E+03  0.41024019832E+03  0.00000000000E+00 0. -1.
         25    1    1    2    0    0  0.00000000000E+00  0.00000000000E+00 -0.40071833767E+03  0.41976205896E+03  0.12500000000E+03 0.  0.
<mgrwt>
<rscale>  2 0.12500000E+03</rscale>
<asrwt>0</asrwt>
<pdfrwt beam="1">  1       21 0.14649021E-02 0.12500000E+03</pdfrwt>
<pdfrwt beam="2">  1       21 0.63113858E-01 0.12500000E+03</pdfrwt>
<totfact> 0.46757603E+06</totfact>
</mgrwt>
</event>
<event>
 3    0  0.1605594E+001  0.1250000E+03  0.7546771E-02  0.1235069E+00
         21   -1    0    0  502  501  0.00000000000E+00  0.00000000000E+00  0.29371214301E+03  0.29371214301E+03  0.00000000000E+00 0.  1.
         21   -1    0    0  501  502 -0.00000000000E+00 -0.00000000000E+00 -0.13299586323E+02  0.13299586323E+02  0.00000000000E+00 0.  1.
         25    1    1    2    0    0  0.00000000000E+00  0.00000000000E+00  0.28041255669E+03  0.30701172934E+03  0.12500000000E+03 0.  0.
<mgrwt>
<rscale>  2 0.12500000E+03</rscale>
<asrwt>0</asrwt>
<pdfrwt beam="1">  1       21 0.45186479E-01 0.12500000E+03</pdfrwt>
<pdfrwt beam="2">  1       21 0.20460904E-02 0.12500000E+03</pdfrwt>
<totfact> 0.54878461E+06</totfact>
</mgrwt>
</event>
<event>
 3    0  0.1733643E+001  0.1250000E+03  0.7546771E-02  0.1235069E+00
         21   -1    0    0  502  501  0.00000000000E+00  0.00000000000E+00  0.90465365387E+02  0.90465365387E+02  0.00000000000E+00 0.  1.
         21   -1    0    0  501  502 -0.00000000000E+00 -0.00000000000E+00 -0.43179508349E+02  0.43179508349E+02  0.00000000000E+00 0.  1.
         25    1    1    2    0    0  0.00000000000E+00  0.00000000000E+00  0.47285857039E+02  0.13364487374E+03  0.12500000000E+03 0.  0.
<mgrwt>
<rscale>  2 0.12500000E+03</rscale>
<asrwt>0</asrwt>
<pdfrwt beam="1">  1       21 0.13917748E-01 0.12500000E+03</pdfrwt>
<pdfrwt beam="2">  1       21 0.66430013E-02 0.12500000E+03</pdfrwt>
<totfact> 0.72876406E+06</totfact>
</mgrwt>
</event>
<event>
 3    0  0.1692320E+001  0.1250000E+03  0.7546771E-02  0.1235069E+00
         21   -1    0    0  502  501  0.00000000000E+00  0.00000000000E+00  0.12081261297E+03  0.12081261297E+03  0.00000000000E+00 0. -1.
         21   -1    0    0  501  502 -0.00000000000E+00 -0.00000000000E+00 -0.32333130655E+02  0.32333130655E+02  0.00000000000E+00 0. -1.
         25    1    1    2    0    0  0.00000000000E+00  0.00000000000E+00  0.88479482316E+02  0.15314574363E+03  0.12500000000E+03 0.  0.
<mgrwt>
<rscale>  2 0.12500000E+03</rscale>
<asrwt>0</asrwt>
<pdfrwt beam="1">  1       21 0.18586556E-01 0.12500000E+03</pdfrwt>
<pdfrwt beam="2">  1       21 0.49743278E-02 0.12500000E+03</pdfrwt>
<totfact> 0.70366239E+06</totfact>
</mgrwt>
</event>
<event>
 3    0  0.1678574E+001  0.1250000E+03  0.7546771E-02  0.1235069E+00
         21   -1    0    0  502  501  0.00000000000E+00  0.00000000000E+00  0.22440880269E+02  0.22440880269E+02  0.00000000000E+00 0.  1.
         21   -1    0    0  501  502 -0.00000000000E+00 -0.00000000000E+00 -0.17406848364E+03  0.17406848364E+03  0.00000000000E+00 0.  1.
         25    1    1    2    0    0  0.00000000000E+00  0.00000000000E+00 -0.15162760337E+03  0.19650936391E+03  0.12500000000E+03 0.  0.
<mgrwt>
<rscale>  2 0.12500000E+03</rscale>
<asrwt>0</asrwt>
<pdfrwt beam="1">  1       21 0.34524434E-02 0.12500000E+03</pdfrwt>
<pdfrwt beam="2">  1       21 0.26779765E-01 0.12500000E+03</pdfrwt>
<totfact> 0.65306206E+06</totfact>
</mgrwt>
</event>
<event>
 3    0  0.1679685E+001  0.1250000E+03  0.7546771E-02  0.1235069E+00
         21   -1    0    0  502  501  0.00000000000E+00  0.00000000000E+00  0.26963305767E+02  0.26963305767E+02  0.00000000000E+00 0. -1.
         21   -1    0    0  501  502 -0.00000000000E+00 -0.00000000000E+00 -0.14487281470E+03  0.14487281470E+03  0.00000000000E+00 0. -1.
         25    1    1    2    0    0  0.00000000000E+00  0.00000000000E+00 -0.11790950893E+03  0.17183612046E+03  0.12500000000E+03 0.  0.
<mgrwt>
<rscale>  2 0.12500000E+03</rscale>
<asrwt>0</asrwt>
<pdfrwt beam="1">  1       21 0.41482008E-02 0.12500000E+03</pdfrwt>
<pdfrwt beam="2">  1       21 0.22288126E-01 0.12500000E+03</pdfrwt>
<totfact> 0.68100637E+06</totfact>
</mgrwt>
</event>
<event>
 3    0  0.1368989E+001  0.1250000E+03  0.7546771E-02  0.1235069E+00
         21   -1    0    0  502  501  0.00000000000E+00  0.00000000000E+00  0.84475604879E+03  0.84475604879E+03  0.00000000000E+00 0. -1.
         21   -1    0    0  501  502 -0.00000000000E+00 -0.00000000000E+00 -0.46241160458E+01  0.46241160458E+01  0.00000000000E+00 0. -1.
         25    1    1    2    0    0  0.00000000000E+00  0.00000000000E+00  0.84013193274E+03  0.84938016483E+03  0.12500000000E+03 0.  0.
<mgrwt>
<rscale>  2 0.12500000E+03</rscale>
<asrwt>0</asrwt>
<pdfrwt beam="1">  1       21 0.12996235E+00 0.12500000E+03</pdfrwt>
<pdfrwt beam="2">  1       21 0.71140314E-03 0.12500000E+03</pdfrwt>
<totfact> 0.27790689E+06</totfact>
</mgrwt>
</event>
<event>
 3    0  0.1691577E+001  0.1250000E+03  0.7546771E-02  0.1235069E+00
         21   -1    0    0  502  501  0.00000000000E+00  0.00000000000E+00  0.33526837104E+02  0.33526837104E+02  0.00000000000E+00 0. -1.
         21   -1    0    0  501  502 -0.00000000000E+00 -0.00000000000E+00 -0.11651113965E+03  0.11651113965E+03  0.00000000000E+00 0. -1.
         25    1    1    2    0    0  0.00000000000E+00  0.00000000000E+00 -0.82984302550E+02  0.15003797676E+03  0.12500000000E+03 0.  0.
<mgrwt>
<rscale>  2 0.12500000E+03</rscale>
<asrwt>0</asrwt>
<pdfrwt beam="1">  1       21 0.51579749E-02 0.12500000E+03</pdfrwt>
<pdfrwt beam="2">  1       21 0.17924791E-01 0.12500000E+03</pdfrwt>
<totfact> 0.70754431E+06</totfact>
</mgrwt>
</event>
<event>
 3    0  0.1644043E+001  0.1250000E+03  0.7546771E-02  0.1235069E+00
         21   -1    0    0  502  501  0.00000000000E+00  0.00000000000E+00  0.19164006251E+03  0.19164006251E+03  0.00000000000E+00 0. -1.
         21   -1    0    0  501  502 -0.00000000000E+00 -0.00000000000E+00 -0.20383264067E+02  0.20383264067E+02  0.00000000000E+00 0. -1.
         25    1    1    2    0    0  0.00000000000E+00  0.00000000000E+00  0.17125679845E+03  0.21202332658E+03  0.12500000000E+03 0.  0.
<mgrwt>
<rscale>  2 0.12500000E+03</rscale>
<asrwt>0</asrwt>
<pdfrwt beam="1">  1       21 0.29483085E-01 0.12500000E+03</pdfrwt>
<pdfrwt beam="2">  1       21 0.31358869E-02 0.12500000E+03</pdfrwt>
<totfact> 0.63647286E+06</totfact>
</mgrwt>
</event>
<event>
 3    0  0.1652481E+001  0.1250000E+03  0.7546771E-02  0.1235069E+00
         21   -1    0    0  502  501  0.00000000000E+00  0.00000000000E+00  0.19712007725E+02  0.19712007725E+02  0.00000000000E+00 0. -1.
         21   -1    0    0  501  502 -0.00000000000E+00 -0.00000000000E+00 -0.19816601406E+03  0.19816601406E+03  0.00000000000E+00 0. -1.
         25    1    1    2    0    0  0.00000000000E+00  0.00000000000E+00 -0.17845400634E+03  0.21787802179E+03  0.12500000000E+03 0.  0.
<mgrwt>
<rscale>  2 0.12500000E+03</rscale>
<asrwt>0</asrwt>
<pdfrwt beam="1">  1       21 0.30326165E-02 0.12500000E+03</pdfrwt>
<pdfrwt beam="2">  1       21 0.30487080E-01 0.12500000E+03</pdfrwt>
<totfact> 0.63040090E+06</totfact>
</mgrwt>
</event>
<event>
 3    0  0.1563583E+001  0.1250000E+03  0.7546771E-02  0.1235069E+00
         21   -1    0    0  502  501  0.00000000000E+00  0.00000000000E+00  0.10686722283E+02  0.10686722283E+02  0.00000000000E+00 0.  1.
         21   -1    0    0  501  502 -0.00000000000E+00 -0.00000000000E+00 -0.36552367476E+03  0.36552367476E+03  0.00000000000E+00 0.  1.
         25    1    1    2    0    0  0.00000000000E+00  0.00000000000E+00 -0.35483695247E+03  0.37621039704E+03  0.12500000000E+03 0.  0.
<mgrwt>
<rscale>  2 0.12500000E+03</rscale>
<asrwt>0</asrwt>
<pdfrwt beam="1">  1       21 0.16441113E-02 0.12500000E+03</pdfrwt>
<pdfrwt beam="2">  1       21 0.56234406E-01 0.12500000E+03</pdfrwt>
<totfact> 0.49659084E+06</totfact>
</mgrwt>
</event>
<event>
 3    0  0.1562480E+001  0.1250000E+03  0.7546771E-02  0.1235069E+00
         21   -1    0    0  502  501  0.00000000000E+00  0.00000000000E+00  0.32115944905E+03  0.32115944905E+03  0.00000000000E+00 0. -1.
         21   -1    0    0  501  502 -0.00000000000E+00 -0.00000000000E+00 -0.12162961456E+02  0.12162961456E+02  0.00000000000E+00 0. -1.
         25    1    1    2    0    0  0.00000000000E+00  0.00000000000E+00  0.30899648759E+03  0.33332241050E+03  0.12500000000E+03 0.  0.
<mgrwt>
<rscale>  2 0.12500000E+03</rscale>
<asrwt>0</asrwt>
<pdfrwt beam="1">  1       21 0.49409140E-01 0.12500000E+03</pdfrwt>
<pdfrwt beam="2">  1       21 0.18712251E-02 0.12500000E+03</pdfrwt>
<totfact> 0.52794215E+06</totfact>
</mgrwt>
</event>
<event>
 3    0  0.1625904E+001  0.1250000E+03  0.7546771E-02  0.1235069E+00
         21   -1    0    0  502  501  0.00000000000E+00  0.00000000000E+00  0.14961979764E+02  0.14961979764E+02  0.00000000000E+00 0.  1.
         21   -1    0    0  501  502 -0.00000000000E+00 -0.00000000000E+00 -0.26107841754E+03  0.26107841754E+03  0.00000000000E+00 0.  1.
         25    1    1    2    0    0  0.00000000000E+00  0.00000000000E+00 -0.24611643777E+03  0.27604039730E+03  0.12500000000E+03 0.  0.
<mgrwt>
<rscale>  2 0.12500000E+03</rscale>
<asrwt>0</asrwt>
<pdfrwt beam="1">  1       21 0.23018432E-02 0.12500000E+03</pdfrwt>
<pdfrwt beam="2">  1       21 0.40165908E-01 0.12500000E+03</pdfrwt>
<totfact> 0.57508002E+06</totfact>
</mgrwt>
</event>
<event>
 3    0  0.1698458E+001  0.1250000E+03  0.7546771E-02  0.1235069E+00
         21   -1    0    0  502  501  0.00000000000E+00  0.00000000000E+00  0.11351955604E+03  0.11351955604E+03  0.00000000000E+00 0. -1.
         21   -1    0    0  501  502 -0.00000000000E+00 -0.00000000000E+00 -0.34410370654E+02  0.34410370654E+02  0.00000000000E+00 0. -1.
         25    1    1    2    0    0  0.00000000000E+00  0.00000000000E+00  0.79109185391E+02  0.14792992670E+03  0.12500000000E+03 0.  0.
<mgrwt>
<rscale>  2 0.12500000E+03</rscale>
<asrwt>0</asrwt>
<pdfrwt beam="1">  1       21 0.17464547E-01 0.12500000E+03</pdfrwt>
<pdfrwt beam="2">  1       21 0.52939032E-02 0.12500000E+03</pdfrwt>
<totfact> 0.71020218E+06</totfact>
</mgrwt>
</event>
<event>
 3    0  0.1650076E+001  0.1250000E+03  0.7546771E-02  0.1235069E+00
         21   -1    0    0  502  501  0.00000000000E+00  0.00000000000E+00  0.18163310020E+03  0.18163310020E+03  0.00000000000E+00 0. -1.
         21   -1    0    0  501  502 -0.00000000000E+00 -0.00000000000E+00 -0.21506267282E+02  0.21506267282E+02  0.00000000000E+00 0. -1.
         25    1    1    2    0    0  0.00000000000E+00  0.00000000000E+00  0.16012683291E+03  0.20313936748E+03  0.12500000000E+03 0.  0.
<mgrwt>
<rscale>  2 0.12500000E+03</rscale>
<asrwt>0</asrwt>
<pdfrwt beam="1">  1       21 0.27943553E-01 0.12500000E+03</pdfrwt>
<pdfrwt beam="2">  1       21 0.33086566E-02 0.12500000E+03</pdfrwt>
<totfact> 0.64588661E+06</totfact>
</mgrwt>
</event>
<event>
 3    0  0.1681821E+001  0.1250000E+03  0.7546771E-02  0.1235069E+00
         21   -1    0    0  502  501  0.00000000000E+00  0.00000000000E+00  0.17260673954E+03  0.17260673954E+03  0.00000000000E+00 0.  1.
         21   -1    0    0  501  502 -0.00000000000E+00 -0.00000000000E+00 -0.22630923974E+02  0.22630923974E+02  0.00000000000E+00 0.  1.
         25    1    1    2    0    0  0.00000000000E+00  0.00000000000E+00  0.14997581557E+03  0.19523766352E+03  0.12500000000E+03 0.  0.
<mgrwt>
<rscale>  2 0.12500000E+03</rscale>
<asrwt>0</asrwt>
<pdfrwt beam="1">  1       21 0.26554882E-01 0.12500000E+03</pdfrwt>
<pdfrwt beam="2">  1       21 0.34816807E-02 0.12500000E+03</pdfrwt>
<totfact> 0.65445021E+06</totfact>
</mgrwt>
</event>
<event>
 3    0  0.1590877E+001  0.1250000E+03  0.7546771E-02  0.1235069E+00
         21   -1    0    0  502  501  0.00000000000E+00  0.00000000000E+00  0.11070305951E+02  0.11070305951E+02  0.00000000000E+00 0.  1.
         21   -1    0    0  501  502 -0.00000000000E+00 -0.00000000000E+00 -0.35285835976E+03  0.35285835976E+03  0.00000000000E+00 0.  1.
         25    1    1    2    0    0  0.00000000000E+00  0.00000000000E+00 -0.34178805381E+03  0.36392866571E+03  0.12500000000E+03 0.  0.
<mgrwt>
<rscale>  2 0.12500000E+03</rscale>
<asrwt>0</asrwt>
<pdfrwt beam="1">  1       21 0.17031237E-02 0.12500000E+03</pdfrwt>
<pdfrwt beam="2">  1       21 0.54285911E-01 0.12500000E+03</pdfrwt>
<totfact> 0.50525922E+06</totfact>
</mgrwt>
</event>
<event>
 3    0  0.1733697E+001  0.1250000E+03  0.7546771E-02  0.1235069E+00
         21   -1    0    0  502  501  0.00000000000E+00  0.00000000000E+00  0.45543139844E+02  0.45543139844E+02  0.00000000000E+00 0.  1.
         21   -1    0    0  501  502 -0.00000000000E+00 -0.00000000000E+00 -0.85770327065E+02  0.85770327065E+02  0.00000000000E+00 0.  1.
         25    1    1    2    0    0  0.00000000000E+00  0.00000000000E+00 -0.40227187221E+02  0.13131346691E+03  0.12500000000E+03 0.  0.
<mgrwt>
<rscale>  2 0.12500000E+03</rscale>
<asrwt>0</asrwt>
<pdfrwt beam="1">  1       21 0.70066369E-02 0.12500000E+03</pdfrwt>
<pdfrwt beam="2">  1       21 0.13195435E-01 0.12500000E+03</pdfrwt>
<totfact> 0.73188460E+06</totfact>
</mgrwt>
</event>
<event>
 3    0  0.1595772E+001  0.1250000E+03  0.7546771E-02  0.1235069E+00
         21   -1    0    0  502  501  0.00000000000E+00  0.00000000000E+00  0.14294890249E+02  0.14294890249E+02  0.00000000000E+00 0. -1.
         21   -1    0    0  501  502 -0.00000000000E+00 -0.00000000000E+00 -0.27326197907E+03  0.27326197907E+03  0.00000000000E+00 0. -1.
         25    1    1    2    0    0  0.00000000000E+00  0.00000000000E+00 -0.25896708882E+03  0.28755686932E+03  0.12500000000E+03 0.  0.
<mgrwt>
<rscale>  2 0.12500000E+03</rscale>
<asrwt>0</asrwt>
<pdfrwt beam="1">  1       21 0.21992140E-02 0.12500000E+03</pdfrwt>
<pdfrwt beam="2">  1       21 0.42040303E-01 0.12500000E+03</pdfrwt>
<totfact> 0.56506364E+06</totfact>
</mgrwt>
</event>
<event>
 3    0  0.1584780E+001  0.1250000E+03  0.7546771E-02  0.1235069E+00
         21   -1    0    0  502  501  0.00000000000E+00  0.00000000000E+00  0.27780297476E+03  0.27780297476E+03  0.00000000000E+00 0. -1.
         21   -1    0    0  501  502 -0.00000000000E+00 -0.00000000000E+00 -0.14061224518E+02  0.14061224518E+02  0.00000000000E+00 0. -1.
         25    1    1    2    0    0  0.00000000000E+00  0.00000000000E+00  0.26374175024E+03  0.29186419928E+03  0.12500000000E+03 0.  0.
<mgrwt>
<rscale>  2 0.12500000E+03</rscale>
<asrwt>0</asrwt>
<pdfrwt beam="1">  1       21 0.42738915E-01 0.12500000E+03</pdfrwt>
<pdfrwt beam="2">  1       21 0.21632655E-02 0.12500000E+03</pdfrwt>
<totfact> 0.56139143E+06</totfact>
</mgrwt>
</event>
<event>
 3    0  0.1697445E+001  0.1250000E+03  0.7546771E-02  0.1235069E+00
         21   -1    0    0  502  501  0.00000000000E+00  0.00000000000E+00  0.15609741264E+03  0.15609741264E+03  0.00000000000E+00 0.  1.
         21   -1    0    0  501  502 -0.00000000000E+00 -0.00000000000E+00 -0.25024437842E+02  0.25024437842E+02  0.00000000000E+00 0.  1.
         25    1    1    2    0    0  0.00000000000E+00  0.00000000000E+00  0.13107297480E+03  0.18112185049E+03  0.12500000000E+03 0.  0.
<mgrwt>
<rscale>  2 0.12500000E+03</rscale>
<asrwt>0</asrwt>
<pdfrwt beam="1">  1       21 0.24014986E-01 0.12500000E+03</pdfrwt>
<pdfrwt beam="2">  1       21 0.38499136E-02 0.12500000E+03</pdfrwt>
<totfact> 0.67023074E+06</totfact>
</mgrwt>
</event>
<event>
 3    0  0.1368989E+001  0.1250000E+03  0.7546771E-02  0.1235069E+00
         21   -1    0    0  502  501  0.00000000000E+00  0.00000000000E+00  0.37051096638E+01  0.37051096638E+01  0.00000000000E+00 0. -1.
         21   -1    0    0  501  502 -0.00000000000E+00 -0.00000000000E+00 -0.10542872828E+04  0.10542872828E+04  0.00000000000E+00 0. -1.
         25    1    1    2    0    0  0.00000000000E+00  0.00000000000E+00 -0.10505821732E+04  0.10579923925E+04  0.12500000000E+03 0.  0.
<mgrwt>
<rscale>  2 0.12500000E+03</rscale>
<asrwt>0</asrwt>
<pdfrwt beam="1">  1       21 0.57001669E-03 0.12500000E+03</pdfrwt>
<pdfrwt beam="2">  1       21 0.16219810E+00 0.12500000E+03</pdfrwt>
<totfact> 0.22210645E+06</totfact>
</mgrwt>
</event>
<event>
 3    0  0.1368989E+001  0.1250000E+03  0.7546771E-02  0.1235069E+00
         21   -1    0    0  502  501  0.00000000000E+00  0.00000000000E+00  0.37222172967E+01  0.37222172967E+01  0.00000000000E+00 0. -1.
         21   -1    0    0  501  502 -0.00000000000E+00 -0.00000000000E+00 -0.10494416872E+04  0.10494416872E+04  0.00000000000E+00 0. -1.
         25    1    1    2    0    0  0.00000000000E+00  0.00000000000E+00 -0.10457194699E+04  0.10531639045E+04  0.12500000000E+03 0.  0.
<mgrwt>
<rscale>  2 0.12500000E+03</rscale>
<asrwt>0</asrwt>
<pdfrwt beam="1">  1       21 0.57264765E-03 0.12500000E+03</pdfrwt>
<pdfrwt beam="2">  1       21 0.16145289E+00 0.12500000E+03</pdfrwt>
<totfact> 0.22324171E+06</totfact>
</mgrwt>
</event>
<event>
 3    0  0.1617007E+001  0.1250000E+03  0.7546771E-02  0.1235069E+00
         21   -1    0    0  502  501  0.00000000000E+00  0.00000000000E+00  0.22146249045E+03  0.22146249045E+03  0.00000000000E+00 0. -1.
         21   -1    0    0  501  502 -0.00000000000E+00 -0.00000000000E+00 -0.17638427131E+02  0.17638427131E+02  0.00000000000E+00 0. -1.
         25    1    1    2    0    0  0.00000000000E+00  0.00000000000E+00  0.20382406331E+03  0.23910091758E+03  0.12500000000E+03 0.  0.
<mgrwt>
<rscale>  2 0.12500000E+03</rscale>
<asrwt>0</asrwt>
<pdfrwt beam="1">  1       21 0.34071150E-01 0.12500000E+03</pdfrwt>
<pdfrwt beam="2">  1       21 0.27136043E-02 0.12500000E+03</pdfrwt>
<totfact> 0.60919775E+06</totfact>
</mgrwt>
</event>
<event>
 3    0  0.1710219E+001  0.1250000E+03  0.7546771E-02  0.1235069E+00
         21   -1    0    0  502  501  0.00000000000E+00  0.00000000000E+00  0.47265914020E+02  0.47265914020E+02  0.00000000000E+00 0. -1.
         21   -1    0    0  501  502 -0.00000000000E+00 -0.00000000000E+00 -0.82644122746E+02  0.82644122746E+02  0.00000000000E+00 0. -1.
         25    1    1    2    0    0  0.00000000000E+00  0.00000000000E+00 -0.35378208726E+02  0.12991003677E+03  0.12500000000E+03 0.  0.
<mgrwt>
<rscale>  2 0.12500000E+03</rscale>
<asrwt>0</asrwt>
<pdfrwt beam="1">  1       21 0.72716791E-02 0.12500000E+03</pdfrwt>
<pdfrwt beam="2">  1       21 0.12714480E-01 0.12500000E+03</pdfrwt>
<totfact> 0.73376941E+06</totfact>
</mgrwt>
</event>
<event>
 3    0  0.1425283E+001  0.1250000E+03  0.7546771E-02  0.1235069E+00
         21   -1    0    0  502  501  0.00000000000E+00  0.00000000000E+00  0.67615085097E+01  0.67615085097E+01  0.00000000000E+00 0. -1.
         21   -1    0    0  501  502 -0.00000000000E+00 -0.00000000000E+00 -0.57771871386E+03  0.57771871386E+03  0.00000000000E+00 0. -1.
         25    1    1    2    0    0  0.00000000000E+00  0.00000000000E+00 -0.57095720535E+03  0.58448022237E+03  0.12500000000E+03 0.  0.
<mgrwt>
<rscale>  2 0.12500000E+03</rscale>
<asrwt>0</asrwt>
<pdfrwt beam="1">  1       21 0.10402321E-02 0.12500000E+03</pdfrwt>
<pdfrwt beam="2">  1       21 0.88879799E-01 0.12500000E+03</pdfrwt>
<totfact> 0.37804032E+06</totfact>
</mgrwt>
</event>
<event>
 3    0  0.1715794E+001  0.1250000E+03  0.7546771E-02  0.1235069E+00
         21   -1    0    0  502  501  0.00000000000E+00  0.00000000000E+00  0.62730225250E+02  0.62730225250E+02  0.00000000000E+00 0. -1.
         21   -1    0    0  501  502 -0.00000000000E+00 -0.00000000000E+00 -0.62270619696E+02  0.62270619696E+02  0.00000000000E+00 0. -1.
         25    1    1    2    0    0  0.00000000000E+00  0.00000000000E+00  0.45960555452E+00  0.12500084495E+03  0.12500000000E+03 0.  0.
<mgrwt>
<rscale>  2 0.12500000E+03</rscale>
<asrwt>0</asrwt>
<pdfrwt beam="1">  1       21 0.96508038E-02 0.12500000E+03</pdfrwt>
<pdfrwt beam="2">  1       21 0.95800954E-02 0.12500000E+03</pdfrwt>
<totfact> 0.74043467E+06</totfact>
</mgrwt>
</event>
<event>
 3    0  0.1680542E+001  0.1250000E+03  0.7546771E-02  0.1235069E+00
         21   -1    0    0  502  501  0.00000000000E+00  0.00000000000E+00  0.14699440625E+03  0.14699440625E+03  0.00000000000E+00 0. -1.
         21   -1    0    0  501  502 -0.00000000000E+00 -0.00000000000E+00 -0.26574140470E+02  0.26574140470E+02  0.00000000000E+00 0. -1.
         25    1    1    2    0    0  0.00000000000E+00  0.00000000000E+00  0.12042026578E+03  0.17356854672E+03  0.12500000000E+03 0.  0.
<mgrwt>
<rscale>  2 0.12500000E+03</rscale>
<asrwt>0</asrwt>
<pdfrwt beam="1">  1       21 0.22614524E-01 0.12500000E+03</pdfrwt>
<pdfrwt beam="2">  1       21 0.40883294E-02 0.12500000E+03</pdfrwt>
<totfact> 0.67897102E+06</totfact>
</mgrwt>
</event>
<event>
 3    0  0.1368989E+001  0.1250000E+03  0.7546771E-02  0.1235069E+00
         21   -1    0    0  502  501  0.00000000000E+00  0.00000000000E+00  0.15706113277E+04  0.15706113277E+04  0.00000000000E+00 0. -1.
         21   -1    0    0  501  502 -0.00000000000E+00 -0.00000000000E+00 -0.24870889005E+01  0.24870889005E+01  0.00000000000E+00 0. -1.
         25    1    1    2    0    0  0.00000000000E+00  0.00000000000E+00  0.15681242388E+04  0.15730984166E+04  0.12500000000E+03 0.  0.
<mgrwt>
<rscale>  2 0.12500000E+03</rscale>
<asrwt>0</asrwt>
<pdfrwt beam="1">  1       21 0.24163172E+00 0.12500000E+03</pdfrwt>
<pdfrwt beam="2">  1       21 0.38263032E-03 0.12500000E+03</pdfrwt>
<totfact> 0.12943214E+06</totfact>
</mgrwt>
</event>
<event>
 3    0  0.1715866E+001  0.1250000E+03  0.7546771E-02  0.1235069E+00
         21   -1    0    0  502  501  0.00000000000E+00  0.00000000000E+00  0.59962245136E+02  0.59962245136E+02  0.00000000000E+00 0. -1.
         21   -1    0    0  501  502 -0.00000000000E+00 -0.00000000000E+00 -0.65145159110E+02  0.65145159110E+02  0.00000000000E+00 0. -1.
         25    1    1    2    0    0  0.00000000000E+00  0.00000000000E+00 -0.51829139740E+01  0.12510740425E+03  0.12500000000E+03 0.  0.
<mgrwt>
<rscale>  2 0.12500000E+03</rscale>
<asrwt>0</asrwt>
<pdfrwt beam="1">  1       21 0.92249608E-02 0.12500000E+03</pdfrwt>
<pdfrwt beam="2">  1       21 0.10022332E-01 0.12500000E+03</pdfrwt>
<totfact> 0.74029075E+06</totfact>
</mgrwt>
</event>
<event>
 3    0  0.1444513E+001  0.1250000E+03  0.7546771E-02  0.1235069E+00
         21   -1    0    0  502  501  0.00000000000E+00  0.00000000000E+00  0.50114387350E+03  0.50114387350E+03  0.00000000000E+00 0. -1.
         21   -1    0    0  501  502 -0.00000000000E+00 -0.00000000000E+00 -0.77946677722E+01  0.77946677722E+01  0.00000000000E+00 0. -1.
         25    1    1    2    0    0  0.00000000000E+00  0.00000000000E+00  0.49334920573E+03  0.50893854127E+03  0.12500000000E+03 0.  0.
<mgrwt>
<rscale>  2 0.12500000E+03</rscale>
<asrwt>0</asrwt>
<pdfrwt beam="1">  1       21 0.77099032E-01 0.12500000E+03</pdfrwt>
<pdfrwt beam="2">  1       21 0.11991801E-02 0.12500000E+03</pdfrwt>
<totfact> 0.41563434E+06</totfact>
</mgrwt>
</event>
<event>
 3    0  0.1722089E+001  0.1250000E+03  0.7546771E-02  0.1235069E+00
         21   -1    0    0  502  501  0.00000000000E+00  0.00000000000E+00  0.10408982465E+03  0.10408982465E+03  0.00000000000E+00 0.  1.
         21   -1    0    0  501  502 -0.00000000000E+00 -0.00000000000E+00 -0.37527683546E+02  0.37527683546E+02  0.00000000000E+00 0.  1.
         25    1    1    2    0    0  0.00000000000E+00  0.00000000000E+00  0.66562141109E+02  0.14161750820E+03  0.12500000000E+03 0.  0.
<mgrwt>
<rscale>  2 0.12500000E+03</rscale>
<asrwt>0</asrwt>
<pdfrwt beam="1">  1       21 0.16013819E-01 0.12500000E+03</pdfrwt>
<pdfrwt beam="2">  1       21 0.57734898E-02 0.12500000E+03</pdfrwt>
<totfact> 0.71828844E+06</totfact>
</mgrwt>
</event>
<event>
 3    0  0.1395824E+001  0.1250000E+03  0.7546771E-02  0.1235069E+00
         21   -1    0    0  502  501  0.00000000000E+00  0.00000000000E+00  0.73973153314E+03  0.73973153314E+03  0.00000000000E+00 0.  1.
         21   -1    0    0  501  502 -0.00000000000E+00 -0.00000000000E+00 -0.52806319928E+01  0.52806319928E+01  0.00000000000E+00 0.  1.
         25    1    1    2    0    0  0.00000000000E+00  0.00000000000E+00  0.73445090115E+03  0.74501216514E+03  0.12500000000E+03 0.  0.
<mgrwt>
<rscale>  2 0.12500000E+03</rscale>
<asrwt>0</asrwt>
<pdfrwt beam="1">  1       21 0.11380477E+00 0.12500000E+03</pdfrwt>
<pdfrwt beam="2">  1       21 0.81240551E-03 0.12500000E+03</pdfrwt>
<totfact> 0.31245089E+06</totfact>
</mgrwt>
</event>
<event>
 3    0  0.1740514E+001  0.1250000E+03  0.7546771E-02  0.1235069E+00
         21   -1    0    0  502  501  0.00000000000E+00  0.00000000000E+00  0.63680005526E+02  0.63680005526E+02  0.00000000000E+00 0.  1.
         21   -1    0    0  501  502 -0.00000000000E+00 -0.00000000000E+00 -0.61341860254E+02  0.61341860254E+02  0.00000000000E+00 0.  1.
         25    1    1    2    0    0  0.00000000000E+00  0.00000000000E+00  0.23381452720E+01  0.12502186578E+03  0.12500000000E+03 0.  0.
<mgrwt>
<rscale>  2 0.12500000E+03</rscale>
<asrwt>0</asrwt>
<pdfrwt beam="1">  1       21 0.97969240E-02 0.12500000E+03</pdfrwt>
<pdfrwt beam="2">  1       21 0.94372092E-02 0.12500000E+03</pdfrwt>
<totfact> 0.74040628E+06</totfact>
</mgrwt>
</event>
<event>
 3    0  0.1723042E+001  0.1250000E+03  0.7546771E-02  0.1235069E+00
         21   -1    0    0  502  501  0.00000000000E+00  0.00000000000E+00  0.33148298265E+02  0.33148298265E+02  0.00000000000E+00 0.  1.
         21   -1    0    0  501  502 -0.00000000000E+00 -0.00000000000E+00 -0.11784164511E+03  0.11784164511E+03  0.00000000000E+00 0.  1.
         25    1    1    2    0    0  0.00000000000E+00  0.00000000000E+00 -0.84693346842E+02  0.15098994337E+03  0.12500000000E+03 0.  0.
<mgrwt>
<rscale>  2 0.12500000E+03</rscale>
<asrwt>0</asrwt>
<pdfrwt beam="1">  1       21 0.50997381E-02 0.12500000E+03</pdfrwt>
<pdfrwt beam="2">  1       21 0.18129484E-01 0.12500000E+03</pdfrwt>
<totfact> 0.70635067E+06</totfact>
</mgrwt>
</event>
<event>
 3    0  0.1699484E+001  0.1250000E+03  0.7546771E-02  0.1235069E+00
         21   -1    0    0  502  501  0.00000000000E+00  0.00000000000E+00  0.28473563952E+02  0.28473563952E+02  0.00000000000E+00 0.  1.
         21   -1    0    0  501  502 -0.00000000000E+00 -0.00000000000E+00 -0.13718865705E+03  0.13718865705E+03  0.00000000000E+00 0.  1.
         25    1    1    2    0    0  0.00000000000E+00  0.00000000000E+00 -0.10871509310E+03  0.16566222100E+03  0.12500000000E+03 0.  0.
<mgrwt>
<rscale>  2 0.12500000E+03</rscale>
<asrwt>0</asrwt>
<pdfrwt beam="1">  1       21 0.43805484E-02 0.12500000E+03</pdfrwt>
<pdfrwt beam="2">  1       21 0.21105947E-01 0.12500000E+03</pdfrwt>
<totfact> 0.68834168E+06</totfact>
</mgrwt>
</event>
<event>
 3    0  0.1671993E+001  0.1250000E+03  0.7546771E-02  0.1235069E+00
         21   -1    0    0  502  501  0.00000000000E+00  0.00000000000E+00  0.15663148253E+03  0.15663148253E+03  0.00000000000E+00 0. -1.
         21   -1    0    0  501  502 -0.00000000000E+00 -0.00000000000E+00 -0.24939111455E+02  0.24939111455E+02  0.00000000000E+00 0. -1.
         25    1    1    2    0    0  0.00000000000E+00  0.00000000000E+00  0.13169237107E+03  0.18157059398E+03  0.12500000000E+03 0.  0.
<mgrwt>
<rscale>  2 0.12500000E+03</rscale>
<asrwt>0</asrwt>
<pdfrwt beam="1">  1       21 0.24097150E-01 0.12500000E+03</pdfrwt>
<pdfrwt beam="2">  1       21 0.38367865E-02 0.12500000E+03</pdfrwt>
<totfact> 0.66971819E+06</totfact>
</mgrwt>
</event>
<event>
 3    0  0.1649135E+001  0.1250000E+03  0.7546771E-02  0.1235069E+00
         21   -1    0    0  502  501  0.00000000000E+00  0.00000000000E+00  0.22603233455E+03  0.22603233455E+03  0.00000000000E+00 0.  1.
         21   -1    0    0  501  502 -0.00000000000E+00 -0.00000000000E+00 -0.17281819469E+02  0.17281819469E+02  0.00000000000E+00 0.  1.
         25    1    1    2    0    0  0.00000000000E+00  0.00000000000E+00  0.20875051509E+03  0.24331415402E+03  0.12500000000E+03 0.  0.
<mgrwt>
<rscale>  2 0.12500000E+03</rscale>
<asrwt>0</asrwt>
<pdfrwt beam="1">  1       21 0.34774203E-01 0.12500000E+03</pdfrwt>
<pdfrwt beam="2">  1       21 0.26587416E-02 0.12500000E+03</pdfrwt>
<totfact> 0.60513426E+06</totfact>
</mgrwt>
</event>
<event>
 3    0  0.1368989E+001  0.1250000E+03  0.7546771E-02  0.1235069E+00
         21   -1    0    0  502  501  0.00000000000E+00  0.00000000000E+00  0.59505248420E+01  0.59505248420E+01  0.00000000000E+00 0. -1.
         21   -1    0    0  501  502 -0.00000000000E+00 -0.00000000000E+00 -0.65645470000E+03  0.65645470000E+03  0.00000000000E+00 0. -1.
         25    1    1    2    0    0  0.00000000000E+00  0.00000000000E+00 -0.65050417516E+03  0.66240522484E+03  0.12500000000E+03 0.  0.
<mgrwt>
<rscale>  2 0.12500000E+03</rscale>
<asrwt>0</asrwt>
<pdfrwt beam="1">  1       21 0.91546592E-03 0.12500000E+03</pdfrwt>
<pdfrwt beam="2">  1       21 0.10099297E+00 0.12500000E+03</pdfrwt>
<totfact> 0.34410454E+06</totfact>
</mgrwt>
</event>
<event>
 3    0  0.1675944E+001  0.1250000E+03  0.7546771E-02  0.1235069E+00
         21   -1    0    0  502  501  0.00000000000E+00  0.00000000000E+00  0.26162656070E+02  0.26162656070E+02  0.00000000000E+00 0. -1.
         21   -1    0    0  501  502 -0.00000000000E+00 -0.00000000000E+00 -0.14930632385E+03  0.14930632385E+03  0.00000000000E+00 0. -1.
         25    1    1    2    0    0  0.00000000000E+00  0.00000000000E+00 -0.12314366778E+03  0.17546897992E+03  0.12500000000E+03 0.  0.
<mgrwt>
<rscale>  2 0.12500000E+03</rscale>
<asrwt>0</asrwt>
<pdfrwt beam="1">  1       21 0.40250241E-02 0.12500000E+03</pdfrwt>
<pdfrwt beam="2">  1       21 0.22970203E-01 0.12500000E+03</pdfrwt>
<totfact> 0.67675161E+06</totfact>
</mgrwt>
</event>
<event>
 3    0  0.1724851E+001  0.1250000E+03  0.7546771E-02  0.1235069E+00
         21   -1    0    0  502  501  0.00000000000E+00  0.00000000000E+00  0.10269247574E+03  0.10269247574E+03  0.00000000000E+00 0.  1.
         21   -1    0    0  501  502 -0.00000000000E+00 -0.00000000000E+00 -0.38038327267E+02  0.38038327267E+02  0.00000000000E+00 0.  1.
         25    1    1    2    0    0  0.00000000000E+00  0.00000000000E+00  0.64654148472E+02  0.14073080301E+03  0.12500000000E+03 0.  0.
<mgrwt>
<rscale>  2 0.12500000E+03</rscale>
<asrwt>0</asrwt>
<pdfrwt beam="1">  1       21 0.15798842E-01 0.12500000E+03</pdfrwt>
<pdfrwt beam="2">  1       21 0.58520504E-02 0.12500000E+03</pdfrwt>
<totfact> 0.71944047E+06</totfact>
</mgrwt>
</event>
<event>
 3    0  0.1726608E+001  0.1250000E+03  0.7546771E-02  0.1235069E+00
         21   -1    0    0  502  501  0.00000000000E+00  0.00000000000E+00  0.39562792650E+02  0.39562792650E+02  0.00000000000E+00 0.  1.
         21   -1    0    0  501  502 -0.00000000000E+00 -0.00000000000E+00 -0.98735446575E+02  0.98735446575E+02  0.00000000000E+00 0.  1.
         25    1    1    2    0    0  0.00000000000E+00  0.00000000000E+00 -0.59172653925E+02  0.13829823922E+03  0.12500000000E+03 0.  0.
<mgrwt>
<rscale>  2 0.12500000E+03</rscale>
<asrwt>0</asrwt>
<pdfrwt beam="1">  1       21 0.60865836E-02 0.12500000E+03</pdfrwt>
<pdfrwt beam="2">  1       21 0.15190068E-01 0.12500000E+03</pdfrwt>
<totfact> 0.72262256E+06</totfact>
</mgrwt>
</event>
<event>
 3    0  0.1368989E+001  0.1250000E+03  0.7546771E-02  0.1235069E+00
         21   -1    0    0  502  501  0.00000000000E+00  0.00000000000E+00  0.37948260528E+01  0.37948260528E+01  0.00000000000E+00 0. -1.
         21   -1    0    0  501  502 -0.00000000000E+00 -0.00000000000E+00 -0.10293620697E+04  0.10293620697E+04  0.00000000000E+00 0. -1.
         25    1    1    2    0    0  0.00000000000E+00  0.00000000000E+00 -0.10255672437E+04  0.10331568958E+04  0.12500000000E+03 0.  0.
<mgrwt>
<rscale>  2 0.12500000E+03</rscale>
<asrwt>0</asrwt>
<pdfrwt beam="1">  1       21 0.58382008E-03 0.12500000E+03</pdfrwt>
<pdfrwt beam="2">  1       21 0.15836321E+00 0.12500000E+03</pdfrwt>
<totfact> 0.22802354E+06</totfact>
</mgrwt>
</event>
<event>
 3    0  0.1693032E+001  0.1250000E+03  0.7546771E-02  0.1235069E+00
         21   -1    0    0  502  501  0.00000000000E+00  0.00000000000E+00  0.12048739015E+03  0.12048739015E+03  0.00000000000E+00 0. -1.
         21   -1    0    0  501  502 -0.00000000000E+00 -0.00000000000E+00 -0.32420405115E+02  0.32420405115E+02  0.00000000000E+00 0. -1.
         25    1    1    2    0    0  0.00000000000E+00  0.00000000000E+00  0.88066985038E+02  0.15290779527E+03  0.12500000000E+03 0.  0.
<mgrwt>
<rscale>  2 0.12500000E+03</rscale>
<asrwt>0</asrwt>
<pdfrwt beam="1">  1       21 0.18536521E-01 0.12500000E+03</pdfrwt>
<pdfrwt beam="2">  1       21 0.49877547E-02 0.12500000E+03</pdfrwt>
<totfact> 0.70395812E+06</totfact>
</mgrwt>
</event>
<event>
 3    0  0.1623849E+001  0.1250000E+03  0.7546771E-02  0.1235069E+00
         21   -1    0    0  502  501  0.00000000000E+00  0.00000000000E+00  0.14912024331E+02  0.14912024331E+02  0.00000000000E+00 0.  1.
         21   -1    0    0  501  502 -0.00000000000E+00 -0.00000000000E+00 -0.26195303289E+03  0.26195303289E+03  0.00000000000E+00 0.  1.
         25    1    1    2    0    0  0.00000000000E+00  0.00000000000E+00 -0.24704100856E+03  0.27686505722E+03  0.12500000000E+03 0.  0.
<mgrwt>
<rscale>  2 0.12500000E+03</rscale>
<asrwt>0</asrwt>
<pdfrwt beam="1">  1       21 0.22941577E-02 0.12500000E+03</pdfrwt>
<pdfrwt beam="2">  1       21 0.40300464E-01 0.12500000E+03</pdfrwt>
<totfact> 0.57435300E+06</totfact>
</mgrwt>
</event>
<event>
 3    0  0.1719144E+001  0.1250000E+03  0.7546771E-02  0.1235069E+00
         21   -1    0    0  502  501  0.00000000000E+00  0.00000000000E+00  0.10852815790E+03  0.10852815790E+03  0.00000000000E+00 0.  1.
         21   -1    0    0  501  502 -0.00000000000E+00 -0.00000000000E+00 -0.35992963259E+02  0.35992963259E+02  0.00000000000E+00 0.  1.
         25    1    1    2    0    0  0.00000000000E+00  0.00000000000E+00  0.72535194645E+02  0.14452112116E+03  0.12500000000E+03 0.  0.
<mgrwt>
<rscale>  2 0.12500000E+03</rscale>
<asrwt>0</asrwt>
<pdfrwt beam="1">  1       21 0.16696640E-01 0.12500000E+03</pdfrwt>
<pdfrwt beam="2">  1       21 0.55373790E-02 0.12500000E+03</pdfrwt>
<totfact> 0.71454440E+06</totfact>
</mgrwt>
</event>
<event>
 3    0  0.1681690E+001  0.1250000E+03  0.7546771E-02  0.1235069E+00
         21   -1    0    0  502  501  0.00000000000E+00  0.00000000000E+00  0.21859816630E+02  0.21859816630E+02  0.00000000000E+00 0.  1.
         21   -1    0    0  501  502 -0.00000000000E+00 -0.00000000000E+00 -0.17869546054E+03  0.17869546054E+03  0.00000000000E+00 0.  1.
         25    1    1    2    0    0  0.00000000000E+00  0.00000000000E+00 -0.15683564390E+03  0.20055527717E+03  0.12500000000E+03 0.  0.
<mgrwt>
<rscale>  2 0.12500000E+03</rscale>
<asrwt>0</asrwt>
<pdfrwt beam="1">  1       21 0.33630487E-02 0.12500000E+03</pdfrwt>
<pdfrwt beam="2">  1       21 0.27491609E-01 0.12500000E+03</pdfrwt>
<totfact> 0.64867134E+06</totfact>
</mgrwt>
</event>
<event>
 3    0  0.1491795E+001  0.1250000E+03  0.7546771E-02  0.1235069E+00
         21   -1    0    0  502  501  0.00000000000E+00  0.00000000000E+00  0.48705079846E+03  0.48705079846E+03  0.00000000000E+00 0.  1.
         21   -1    0    0  501  502 -0.00000000000E+00 -0.00000000000E+00 -0.80202106482E+01  0.80202106482E+01  0.00000000000E+00 0.  1.
         25    1    1    2    0    0  0.00000000000E+00  0.00000000000E+00  0.47903058781E+03  0.49507100910E+03  0.12500000000E+03 0.  0.
<mgrwt>
<rscale>  2 0.12500000E+03</rscale>
<asrwt>0</asrwt>
<pdfrwt beam="1">  1       21 0.74930869E-01 0.12500000E+03</pdfrwt>
<pdfrwt beam="2">  1       21 0.12338789E-02 0.12500000E+03</pdfrwt>
<totfact> 0.42312656E+06</totfact>
</mgrwt>
</event>
<event>
 3    0  0.1569599E+001  0.1250000E+03  0.7546771E-02  0.1235069E+00
         21   -1    0    0  502  501  0.00000000000E+00  0.00000000000E+00  0.13715649536E+02  0.13715649536E+02  0.00000000000E+00 0. -1.
         21   -1    0    0  501  502 -0.00000000000E+00 -0.00000000000E+00 -0.28480240690E+03  0.28480240690E+03  0.00000000000E+00 0. -1.
         25    1    1    2    0    0  0.00000000000E+00  0.00000000000E+00 -0.27108675737E+03  0.29851805644E+03  0.12500000000E+03 0.  0.
<mgrwt>
<rscale>  2 0.12500000E+03</rscale>
<asrwt>0</asrwt>
<pdfrwt beam="1">  1       21 0.21101001E-02 0.12500000E+03</pdfrwt>
<pdfrwt beam="2">  1       21 0.43815751E-01 0.12500000E+03</pdfrwt>
<totfact> 0.55579556E+06</totfact>
</mgrwt>
</event>
<event>
 3    0  0.1500061E+001  0.1250000E+03  0.7546771E-02  0.1235069E+00
         21   -1    0    0  502  501  0.00000000000E+00  0.00000000000E+00  0.46158362823E+03  0.46158362823E+03  0.00000000000E+00 0.  1.
         21   -1    0    0  501  502 -0.00000000000E+00 -0.00000000000E+00 -0.84627134956E+01  0.84627134956E+01  0.00000000000E+00 0.  1.
         25    1    1    2    0    0  0.00000000000E+00  0.00000000000E+00  0.45312091474E+03  0.47004634173E+03  0.12500000000E+03 0.  0.
<mgrwt>
<rscale>  2 0.12500000E+03</rscale>
<asrwt>0</asrwt>
<pdfrwt beam="1">  1       21 0.71012846E-01 0.12500000E+03</pdfrwt>
<pdfrwt beam="2">  1       21 0.13019563E-02 0.12500000E+03</pdfrwt>
<totfact> 0.43716548E+06</totfact>
</mgrwt>
</event>
<event>
 3    0  0.1368989E+001  0.1250000E+03  0.7546771E-02  0.1235069E+00
         21   -1    0    0  502  501  0.00000000000E+00  0.00000000000E+00  0.14147038146E+01  0.14147038146E+01  0.00000000000E+00 0.  1.
         21   -1    0    0  501  502 -0.00000000000E+00 -0.00000000000E+00 -0.27611786720E+04  0.27611786720E+04  0.00000000000E+00 0.  1.
         25    1    1    2    0    0  0.00000000000E+00  0.00000000000E+00 -0.27597639682E+04  0.27625933758E+04  0.12500000000E+03 0.  0.
<mgrwt>
<rscale>  2 0.12500000E+03</rscale>
<asrwt>0</asrwt>
<pdfrwt beam="1">  1       21 0.21764584E-03 0.12500000E+03</pdfrwt>
<pdfrwt beam="2">  1       21 0.42479847E+00 0.12500000E+03</pdfrwt>
<totfact> 0.26425854E+05</totfact>
</mgrwt>
</event>
<event>
 3    0  0.1643773E+001  0.1250000E+03  0.7546771E-02  0.1235069E+00
         21   -1    0    0  502  501  0.00000000000E+00  0.00000000000E+00  0.20362871740E+02  0.20362871740E+02  0.00000000000E+00 0. -1.
         21   -1    0    0  501  502 -0.00000000000E+00 -0.00000000000E+00 -0.19183197978E+03  0.19183197978E+03  0.00000000000E+00 0. -1.
         25    1    1    2    0    0  0.00000000000E+00  0.00000000000E+00 -0.17146910804E+03  0.21219485152E+03  0.12500000000E+03 0.  0.
<mgrwt>
<rscale>  2 0.12500000E+03</rscale>
<asrwt>0</asrwt>
<pdfrwt beam="1">  1       21 0.31327494E-02 0.12500000E+03</pdfrwt>
<pdfrwt beam="2">  1       21 0.29512613E-01 0.12500000E+03</pdfrwt>
<totfact> 0.63629349E+06</totfact>
</mgrwt>
</event>
<event>
 3    0  0.1711452E+001  0.1250000E+03  0.7546771E-02  0.1235069E+00
         21   -1    0    0  502  501  0.00000000000E+00  0.00000000000E+00  0.84521611186E+02  0.84521611186E+02  0.00000000000E+00 0. -1.
         21   -1    0    0  501  502 -0.00000000000E+00 -0.00000000000E+00 -0.46215990741E+02  0.46215990741E+02  0.00000000000E+00 0. -1.
         25    1    1    2    0    0  0.00000000000E+00  0.00000000000E+00  0.38305620445E+02  0.13073760193E+03  0.12500000000E+03 0.  0.
<mgrwt>
<rscale>  2 0.12500000E+03</rscale>
<asrwt>0</asrwt>
<pdfrwt beam="1">  1       21 0.13003325E-01 0.12500000E+03</pdfrwt>
<pdfrwt beam="2">  1       21 0.71101524E-02 0.12500000E+03</pdfrwt>
<totfact> 0.73266054E+06</totfact>
</mgrwt>
</event>
<event>
 3    0  0.1626462E+001  0.1250000E+03  0.7546771E-02  0.1235069E+00
         21   -1    0    0  502  501  0.00000000000E+00  0.00000000000E+00  0.23550898769E+03  0.23550898769E+03  0.00000000000E+00 0.  1.
         21   -1    0    0  501  502 -0.00000000000E+00 -0.00000000000E+00 -0.16586415824E+02  0.16586415824E+02  0.00000000000E+00 0.  1.
         25    1    1    2    0    0  0.00000000000E+00  0.00000000000E+00  0.21892257186E+03  0.25209540351E+03  0.12500000000E+03 0.  0.
<mgrwt>
<rscale>  2 0.12500000E+03</rscale>
<asrwt>0</asrwt>
<pdfrwt beam="1">  1       21 0.36232150E-01 0.12500000E+03</pdfrwt>
<pdfrwt beam="2">  1       21 0.25517564E-02 0.12500000E+03</pdfrwt>
<totfact> 0.59681470E+06</totfact>
</mgrwt>
</event>
<event>
 3    0  0.1621443E+001  0.1250000E+03  0.7546771E-02  0.1235069E+00
         21   -1    0    0  502  501  0.00000000000E+00  0.00000000000E+00  0.23994865354E+03  0.23994865354E+03  0.00000000000E+00 0. -1.
         21   -1    0    0  501  502 -0.00000000000E+00 -0.00000000000E+00 -0.16279524566E+02  0.16279524566E+02  0.00000000000E+00 0. -1.
         25    1    1    2    0    0  0.00000000000E+00  0.00000000000E+00  0.22366912898E+03  0.25622817811E+03  0.12500000000E+03 0.  0.
<mgrwt>
<rscale>  2 0.12500000E+03</rscale>
<asrwt>0</asrwt>
<pdfrwt beam="1">  1       21 0.36915175E-01 0.12500000E+03</pdfrwt>
<pdfrwt beam="2">  1       21 0.25045424E-02 0.12500000E+03</pdfrwt>
<totfact> 0.59296722E+06</totfact>
</mgrwt>
</event>
<event>
 3    0  0.1701801E+001  0.1250000E+03  0.7546771E-02  0.1235069E+00
         21   -1    0    0  502  501  0.00000000000E+00  0.00000000000E+00  0.37192896381E+02  0.37192896381E+02  0.00000000000E+00 0. -1.
         21   -1    0    0  501  502 -0.00000000000E+00 -0.00000000000E+00 -0.10502677608E+03  0.10502677608E+03  0.00000000000E+00 0. -1.
         25    1    1    2    0    0  0.00000000000E+00  0.00000000000E+00 -0.67833879699E+02  0.14221967246E+03  0.12500000000E+03 0.  0.
<mgrwt>
<rscale>  2 0.12500000E+03</rscale>
<asrwt>0</asrwt>
<pdfrwt beam="1">  1       21 0.57219842E-02 0.12500000E+03</pdfrwt>
<pdfrwt beam="2">  1       21 0.16157965E-01 0.12500000E+03</pdfrwt>
<totfact> 0.71750843E+06</totfact>
</mgrwt>
</event>
<event>
 3    0  0.1490929E+001  0.1250000E+03  0.7546771E-02  0.1235069E+00
         21   -1    0    0  502  501  0.00000000000E+00  0.00000000000E+00  0.48750737149E+03  0.48750737149E+03  0.00000000000E+00 0.  1.
         21   -1    0    0  501  502 -0.00000000000E+00 -0.00000000000E+00 -0.80126993527E+01  0.80126993527E+01  0.00000000000E+00 0.  1.
         25    1    1    2    0    0  0.00000000000E+00  0.00000000000E+00  0.47949467214E+03  0.49552007085E+03  0.12500000000E+03 0.  0.
<mgrwt>
<rscale>  2 0.12500000E+03</rscale>
<asrwt>0</asrwt>
<pdfrwt beam="1">  1       21 0.75001111E-01 0.12500000E+03</pdfrwt>
<pdfrwt beam="2">  1       21 0.12327234E-02 0.12500000E+03</pdfrwt>
<totfact> 0.42288082E+06</totfact>
</mgrwt>
</event>
<event>
 3    0  0.1672004E+001  0.1250000E+03  0.7546771E-02  0.1235069E+00
         21   -1    0    0  502  501  0.00000000000E+00  0.00000000000E+00  0.15662675716E+03  0.15662675716E+03  0.00000000000E+00 0. -1.
         21   -1    0    0  501  502 -0.00000000000E+00 -0.00000000000E+00 -0.24939863857E+02  0.24939863857E+02  0.00000000000E+00 0. -1.
         25    1    1    2    0    0  0.00000000000E+00  0.00000000000E+00  0.13168689331E+03  0.18156662102E+03  0.12500000000E+03 0.  0.
<mgrwt>
<rscale>  2 0.12500000E+03</rscale>
<asrwt>0</asrwt>
<pdfrwt beam="1">  1       21 0.24096424E-01 0.12500000E+03</pdfrwt>
<pdfrwt beam="2">  1       21 0.38369022E-02 0.12500000E+03</pdfrwt>
<totfact> 0.66972272E+06</totfact>
</mgrwt>
</event>
<event>
 3    0  0.1737989E+001  0.1250000E+03  0.7546771E-02  0.1235069E+00
         21   -1    0    0  502  501  0.00000000000E+00  0.00000000000E+00  0.70888881121E+02  0.70888881121E+02  0.00000000000E+00 0.  1.
         21   -1    0    0  501  502 -0.00000000000E+00 -0.00000000000E+00 -0.55103846164E+02  0.55103846164E+02  0.00000000000E+00 0.  1.
         25    1    1    2    0    0  0.00000000000E+00  0.00000000000E+00  0.15785034957E+02  0.12599272728E+03  0.12500000000E+03 0.  0.
<mgrwt>
<rscale>  2 0.12500000E+03</rscale>
<asrwt>0</asrwt>
<pdfrwt beam="1">  1       21 0.10905982E-01 0.12500000E+03</pdfrwt>
<pdfrwt beam="2">  1       21 0.84775148E-02 0.12500000E+03</pdfrwt>
<totfact> 0.73907041E+06</totfact>
</mgrwt>
</event>
<event>
 3    0  0.1368989E+001  0.1250000E+03  0.7546771E-02  0.1235069E+00
         21   -1    0    0  502  501  0.00000000000E+00  0.00000000000E+00  0.10715138599E+04  0.10715138599E+04  0.00000000000E+00 0. -1.
         21   -1    0    0  501  502 -0.00000000000E+00 -0.00000000000E+00 -0.36455431388E+01  0.36455431388E+01  0.00000000000E+00 0. -1.
         25    1    1    2    0    0  0.00000000000E+00  0.00000000000E+00  0.10678683167E+04  0.10751594030E+04  0.12500000000E+03 0.  0.
<mgrwt>
<rscale>  2 0.12500000E+03</rscale>
<asrwt>0</asrwt>
<pdfrwt beam="1">  1       21 0.16484803E+00 0.12500000E+03</pdfrwt>
<pdfrwt beam="2">  1       21 0.56085365E-03 0.12500000E+03</pdfrwt>
<totfact> 0.21812525E+06</totfact>
</mgrwt>
</event>
<event>
 3    0  0.1496857E+001  0.1250000E+03  0.7546771E-02  0.1235069E+00
         21   -1    0    0  502  501  0.00000000000E+00  0.00000000000E+00  0.86540135307E+01  0.86540135307E+01  0.00000000000E+00 0. -1.
         21   -1    0    0  501  502 -0.00000000000E+00 -0.00000000000E+00 -0.45138015860E+03  0.45138015860E+03  0.00000000000E+00 0. -1.
         25    1    1    2    0    0  0.00000000000E+00  0.00000000000E+00 -0.44272614507E+03  0.46003417213E+03  0.12500000000E+03 0.  0.
<mgrwt>
<rscale>  2 0.12500000E+03</rscale>
<asrwt>0</asrwt>
<pdfrwt beam="1">  1       21 0.13313870E-02 0.12500000E+03</pdfrwt>
<pdfrwt beam="2">  1       21 0.69443088E-01 0.12500000E+03</pdfrwt>
<totfact> 0.44297876E+06</totfact>
</mgrwt>
</event>
<event>
 3    0  0.1674381E+001  0.1250000E+03  0.7546771E-02  0.1235069E+00
         21   -1    0    0  502  501  0.00000000000E+00  0.00000000000E+00  0.21501925901E+02  0.21501925901E+02  0.00000000000E+00 0.  1.
         21   -1    0    0  501  502 -0.00000000000E+00 -0.00000000000E+00 -0.18166977312E+03  0.18166977312E+03  0.00000000000E+00 0.  1.
         25    1    1    2    0    0  0.00000000000E+00  0.00000000000E+00 -0.16016784722E+03  0.20317169902E+03  0.12500000000E+03 0.  0.
<mgrwt>
<rscale>  2 0.12500000E+03</rscale>
<asrwt>0</asrwt>
<pdfrwt beam="1">  1       21 0.33079886E-02 0.12500000E+03</pdfrwt>
<pdfrwt beam="2">  1       21 0.27949196E-01 0.12500000E+03</pdfrwt>
<totfact> 0.64585189E+06</totfact>
</mgrwt>
</event>
<event>
 3    0  0.1454049E+001  0.1250000E+03  0.7546771E-02  0.1235069E+00
         21   -1    0    0  502  501  0.00000000000E+00  0.00000000000E+00  0.82432978867E+01  0.82432978867E+01  0.00000000000E+00 0. -1.
         21   -1    0    0  501  502 -0.00000000000E+00 -0.00000000000E+00 -0.47386980959E+03  0.47386980959E+03  0.00000000000E+00 0. -1.
         25    1    1    2    0    0  0.00000000000E+00  0.00000000000E+00 -0.46562651170E+03  0.48211310748E+03  0.12500000000E+03 0.  0.
<mgrwt>
<rscale>  2 0.12500000E+03</rscale>
<asrwt>0</asrwt>
<pdfrwt beam="1">  1       21 0.12681990E-02 0.12500000E+03</pdfrwt>
<pdfrwt beam="2">  1       21 0.72903084E-01 0.12500000E+03</pdfrwt>
<totfact> 0.43031017E+06</totfact>
</mgrwt>
</event>
<event>
 3    0  0.1376887E+001  0.1250000E+03  0.7546771E-02  0.1235069E+00
         21   -1    0    0  502  501  0.00000000000E+00  0.00000000000E+00  0.68866623358E+03  0.68866623358E+03  0.00000000000E+00 0. -1.
         21   -1    0    0  501  502 -0.00000000000E+00 -0.00000000000E+00 -0.56721962099E+01  0.56721962099E+01  0.00000000000E+00 0. -1.
         25    1    1    2    0    0  0.00000000000E+00  0.00000000000E+00  0.68299403737E+03  0.69433842979E+03  0.12500000000E+03 0.  0.
<mgrwt>
<rscale>  2 0.12500000E+03</rscale>
<asrwt>0</asrwt>
<pdfrwt beam="1">  1       21 0.10594859E+00 0.12500000E+03</pdfrwt>
<pdfrwt beam="2">  1       21 0.87264612E-03 0.12500000E+03</pdfrwt>
<totfact> 0.33129574E+06</totfact>
</mgrwt>
</event>
<event>
 3    0  0.1584172E+001  0.1250000E+03  0.7546771E-02  0.1235069E+00
         21   -1    0    0  502  501  0.00000000000E+00  0.00000000000E+00  0.10974459309E+02  0.10974459309E+02  0.00000000000E+00 0.  1.
         21   -1    0    0  501  502 -0.00000000000E+00 -0.00000000000E+00 -0.35594008687E+03  0.35594008687E+03  0.00000000000E+00 0.  1.
         25    1    1    2    0    0  0.00000000000E+00  0.00000000000E+00 -0.34496562756E+03  0.36691454618E+03  0.12500000000E+03 0.  0.
<mgrwt>
<rscale>  2 0.12500000E+03</rscale>
<asrwt>0</asrwt>
<pdfrwt beam="1">  1       21 0.16883783E-02 0.12500000E+03</pdfrwt>
<pdfrwt beam="2">  1       21 0.54760016E-01 0.12500000E+03</pdfrwt>
<totfact> 0.50312992E+06</totfact>
</mgrwt>
</event>
<event>
 3    0  0.1669355E+001  0.1250000E+03  0.7546771E-02  0.1235069E+00
         21   -1    0    0  502  501  0.00000000000E+00  0.00000000000E+00  0.15170166042E+03  0.15170166042E+03  0.00000000000E+00 0. -1.
         21   -1    0    0  501  502 -0.00000000000E+00 -0.00000000000E+00 -0.25749553362E+02  0.25749553362E+02  0.00000000000E+00 0. -1.
         25    1    1    2    0    0  0.00000000000E+00  0.00000000000E+00  0.12595210705E+03  0.17745121378E+03  0.12500000000E+03 0.  0.
<mgrwt>
<rscale>  2 0.12500000E+03</rscale>
<asrwt>0</asrwt>
<pdfrwt beam="1">  1       21 0.23338716E-01 0.12500000E+03</pdfrwt>
<pdfrwt beam="2">  1       21 0.39614699E-02 0.12500000E+03</pdfrwt>
<totfact> 0.67445135E+06</totfact>
</mgrwt>
</event>
<event>
 3    0  0.1675848E+001  0.1250000E+03  0.7546771E-02  0.1235069E+00
         21   -1    0    0  502  501  0.00000000000E+00  0.00000000000E+00  0.18084465667E+03  0.18084465667E+03  0.00000000000E+00 0.  1.
         21   -1    0    0  501  502 -0.00000000000E+00 -0.00000000000E+00 -0.21600029948E+02  0.21600029948E+02  0.00000000000E+00 0.  1.
         25    1    1    2    0    0  0.00000000000E+00  0.00000000000E+00  0.15924462672E+03  0.20244468661E+03  0.12500000000E+03 0.  0.
<mgrwt>
<rscale>  2 0.12500000E+03</rscale>
<asrwt>0</asrwt>
<pdfrwt beam="1">  1       21 0.27822254E-01 0.12500000E+03</pdfrwt>
<pdfrwt beam="2">  1       21 0.33230816E-02 0.12500000E+03</pdfrwt>
<totfact> 0.64663313E+06</totfact>
</mgrwt>
</event>
<event>
 3    0  0.1368989E+001  0.1250000E+03  0.7546771E-02  0.1235069E+00
         21   -1    0    0  502  501  0.00000000000E+00  0.00000000000E+00  0.95499228491E+03  0.95499228491E+03  0.00000000000E+00 0. -1.
         21   -1    0    0  501  502 -0.00000000000E+00 -0.00000000000E+00 -0.40903471805E+01  0.40903471805E+01  0.00000000000E+00 0. -1.
         25    1    1    2    0    0  0.00000000000E+00  0.00000000000E+00  0.95090193773E+03  0.95908263209E+03  0.12500000000E+03 0.  0.
<mgrwt>
<rscale>  2 0.12500000E+03</rscale>
<asrwt>0</asrwt>
<pdfrwt beam="1">  1       21 0.14692171E+00 0.12500000E+03</pdfrwt>
<pdfrwt beam="2">  1       21 0.62928494E-03 0.12500000E+03</pdfrwt>
<totfact> 0.24669825E+06</totfact>
</mgrwt>
</event>
<event>
 3    0  0.1636970E+001  0.1250000E+03  0.7546771E-02  0.1235069E+00
         21   -1    0    0  502  501  0.00000000000E+00  0.00000000000E+00  0.16033628547E+02  0.16033628547E+02  0.00000000000E+00 0.  1.
         21   -1    0    0  501  502 -0.00000000000E+00 -0.00000000000E+00 -0.24362857033E+03  0.24362857033E+03  0.00000000000E+00 0.  1.
         25    1    1    2    0    0  0.00000000000E+00  0.00000000000E+00 -0.22759494178E+03  0.25966219887E+03  0.12500000000E+03 0.  0.
<mgrwt>
<rscale>  2 0.12500000E+03</rscale>
<asrwt>0</asrwt>
<pdfrwt beam="1">  1       21 0.24667122E-02 0.12500000E+03</pdfrwt>
<pdfrwt beam="2">  1       21 0.37481317E-01 0.12500000E+03</pdfrwt>
<totfact> 0.58980247E+06</totfact>
</mgrwt>
</event>
<event>
 3    0  0.1705870E+001  0.1250000E+03  0.7546771E-02  0.1235069E+00
         21   -1    0    0  502  501  0.00000000000E+00  0.00000000000E+00  0.96983917298E+02  0.96983917298E+02  0.00000000000E+00 0. -1.
         21   -1    0    0  501  502 -0.00000000000E+00 -0.00000000000E+00 -0.40277296575E+02  0.40277296575E+02  0.00000000000E+00 0. -1.
         25    1    1    2    0    0  0.00000000000E+00  0.00000000000E+00  0.56706620723E+02  0.13726121387E+03  0.12500000000E+03 0.  0.
<mgrwt>
<rscale>  2 0.12500000E+03</rscale>
<asrwt>0</asrwt>
<pdfrwt beam="1">  1       21 0.14920603E-01 0.12500000E+03</pdfrwt>
<pdfrwt beam="2">  1       21 0.61965072E-02 0.12500000E+03</pdfrwt>
<totfact> 0.72398434E+06</totfact>
</mgrwt>
</event>
<event>
 3    0  0.1634051E+001  0.1250000E+03  0.7546771E-02  0.1235069E+00
         21   -1    0    0  502  501  0.00000000000E+00  0.00000000000E+00  0.18193357421E+02  0.18193357421E+02  0.00000000000E+00 0. -1.
         21   -1    0    0  501  502 -0.00000000000E+00 -0.00000000000E+00 -0.21470748414E+03  0.21470748414E+03  0.00000000000E+00 0. -1.
         25    1    1    2    0    0  0.00000000000E+00  0.00000000000E+00 -0.19651412672E+03  0.23290084156E+03  0.12500000000E+03 0.  0.
<mgrwt>
<rscale>  2 0.12500000E+03</rscale>
<asrwt>0</asrwt>
<pdfrwt beam="1">  1       21 0.27989783E-02 0.12500000E+03</pdfrwt>
<pdfrwt beam="2">  1       21 0.33031918E-01 0.12500000E+03</pdfrwt>
<totfact> 0.61526476E+06</totfact>
</mgrwt>
</event>
<event>
 3    0  0.1694233E+001  0.1250000E+03  0.7546771E-02  0.1235069E+00
         21   -1    0    0  502  501  0.00000000000E+00  0.00000000000E+00  0.33889009920E+02  0.33889009920E+02  0.00000000000E+00 0. -1.
         21   -1    0    0  501  502 -0.00000000000E+00 -0.00000000000E+00 -0.11526598178E+03  0.11526598178E+03  0.00000000000E+00 0. -1.
         25    1    1    2    0    0  0.00000000000E+00  0.00000000000E+00 -0.81376971859E+02  0.14915499170E+03  0.12500000000E+03 0.  0.
<mgrwt>
<rscale>  2 0.12500000E+03</rscale>
<asrwt>0</asrwt>
<pdfrwt beam="1">  1       21 0.52136939E-02 0.12500000E+03</pdfrwt>
<pdfrwt beam="2">  1       21 0.17733228E-01 0.12500000E+03</pdfrwt>
<totfact> 0.70865511E+06</totfact>
</mgrwt>
</event>
<event>
 3    0  0.1378671E+001  0.1250000E+03  0.7546771E-02  0.1235069E+00
         21   -1    0    0  502  501  0.00000000000E+00  0.00000000000E+00  0.60634601976E+03  0.60634601976E+03  0.00000000000E+00 0. -1.
         21   -1    0    0  501  502 -0.00000000000E+00 -0.00000000000E+00 -0.64422786210E+01  0.64422786210E+01  0.00000000000E+00 0. -1.
         25    1    1    2    0    0  0.00000000000E+00  0.00000000000E+00  0.59990374114E+03  0.61278829838E+03  0.12500000000E+03 0.  0.
<mgrwt>
<rscale>  2 0.12500000E+03</rscale>
<asrwt>0</asrwt>
<pdfrwt beam="1">  1       21 0.93283958E-01 0.12500000E+03</pdfrwt>
<pdfrwt beam="2">  1       21 0.99112027E-03 0.12500000E+03</pdfrwt>
<totfact> 0.36520622E+06</totfact>
</mgrwt>
</event>
<event>
 3    0  0.1368989E+001  0.1250000E+03  0.7546771E-02  0.1235069E+00
         21   -1    0    0  502  501  0.00000000000E+00  0.00000000000E+00  0.95087796575E+03  0.95087796575E+03  0.00000000000E+00 0.  1.
         21   -1    0    0  501  502 -0.00000000000E+00 -0.00000000000E+00 -0.41080455544E+01  0.41080455544E+01  0.00000000000E+00 0.  1.
         25    1    1    2    0    0  0.00000000000E+00  0.00000000000E+00  0.94676992019E+03  0.95498601130E+03  0.12500000000E+03 0.  0.
<mgrwt>
<rscale>  2 0.12500000E+03</rscale>
<asrwt>0</asrwt>
<pdfrwt beam="1">  1       21 0.14628874E+00 0.12500000E+03</pdfrwt>
<pdfrwt beam="2">  1       21 0.63200776E-03 0.12500000E+03</pdfrwt>
<totfact> 0.24778413E+06</totfact>
</mgrwt>
</event>
<event>
 3    0  0.1368989E+001  0.1250000E+03  0.7546771E-02  0.1235069E+00
         21   -1    0    0  502  501  0.00000000000E+00  0.00000000000E+00  0.20343731842E+01  0.20343731842E+01  0.00000000000E+00 0.  1.
         21   -1    0    0  501  502 -0.00000000000E+00 -0.00000000000E+00 -0.19201246017E+04  0.19201246017E+04  0.00000000000E+00 0.  1.
         25    1    1    2    0    0  0.00000000000E+00  0.00000000000E+00 -0.19180902285E+04  0.19221589749E+04  0.12500000000E+03 0.  0.
<mgrwt>
<rscale>  2 0.12500000E+03</rscale>
<asrwt>0</asrwt>
<pdfrwt beam="1">  1       21 0.31298112E-03 0.12500000E+03</pdfrwt>
<pdfrwt beam="2">  1       21 0.29540319E+00 0.12500000E+03</pdfrwt>
<totfact> 0.87322990E+05</totfact>
</mgrwt>
</event>
<event>
 3    0  0.1702535E+001  0.1250000E+03  0.7546771E-02  0.1235069E+00
         21   -1    0    0  502  501  0.00000000000E+00  0.00000000000E+00  0.13030068481E+03  0.13030068481E+03  0.00000000000E+00 0.  1.
         21   -1    0    0  501  502 -0.00000000000E+00 -0.00000000000E+00 -0.29978737300E+02  0.29978737300E+02  0.00000000000E+00 0.  1.
         25    1    1    2    0    0  0.00000000000E+00  0.00000000000E+00  0.10032194751E+03  0.16027942211E+03  0.12500000000E+03 0.  0.
<mgrwt>
<rscale>  2 0.12500000E+03</rscale>
<asrwt>0</asrwt>
<pdfrwt beam="1">  1       21 0.20046259E-01 0.12500000E+03</pdfrwt>
<pdfrwt beam="2">  1       21 0.46121135E-02 0.12500000E+03</pdfrwt>
<totfact> 0.69485370E+06</totfact>
</mgrwt>
</event>
<event>
 3    0  0.1368989E+001  0.1250000E+03  0.7546771E-02  0.1235069E+00
         21   -1    0    0  502  501  0.00000000000E+00  0.00000000000E+00  0.43228213481E+01  0.43228213481E+01  0.00000000000E+00 0. -1.
         21   -1    0    0  501  502 -0.00000000000E+00 -0.00000000000E+00 -0.90363438260E+03  0.90363438260E+03  0.00000000000E+00 0. -1.
         25    1    1    2    0    0  0.00000000000E+00  0.00000000000E+00 -0.89931156125E+03  0.90795720395E+03  0.12500000000E+03 0.  0.
<mgrwt>
<rscale>  2 0.12500000E+03</rscale>
<asrwt>0</asrwt>
<pdfrwt beam="1">  1       21 0.66504923E-03 0.12500000E+03</pdfrwt>
<pdfrwt beam="2">  1       21 0.13902072E+00 0.12500000E+03</pdfrwt>
<totfact> 0.26071602E+06</totfact>
</mgrwt>
</event>
<event>
 3    0  0.1629893E+001  0.1250000E+03  0.7546771E-02  0.1235069E+00
         21   -1    0    0  502  501  0.00000000000E+00  0.00000000000E+00  0.22425160640E+03  0.22425160640E+03  0.00000000000E+00 0. -1.
         21   -1    0    0  501  502 -0.00000000000E+00 -0.00000000000E+00 -0.17419050248E+02  0.17419050248E+02  0.00000000000E+00 0. -1.
         25    1    1    2    0    0  0.00000000000E+00  0.00000000000E+00  0.20683255615E+03  0.24167065664E+03  0.12500000000E+03 0.  0.
<mgrwt>
<rscale>  2 0.12500000E+03</rscale>
<asrwt>0</asrwt>
<pdfrwt beam="1">  1       21 0.34500245E-01 0.12500000E+03</pdfrwt>
<pdfrwt beam="2">  1       21 0.26798540E-02 0.12500000E+03</pdfrwt>
<totfact> 0.60671372E+06</totfact>
</mgrwt>
</event>
<event>
 3    0  0.1368989E+001  0.1250000E+03  0.7546771E-02  0.1235069E+00
         21   -1    0    0  502  501  0.00000000000E+00  0.00000000000E+00  0.30149436256E+01  0.30149436256E+01  0.00000000000E+00 0. -1.
         21   -1    0    0  501  502 -0.00000000000E+00 -0.00000000000E+00 -0.12956295325E+04  0.12956295325E+04  0.00000000000E+00 0. -1.
         25    1    1    2    0    0  0.00000000000E+00  0.00000000000E+00 -0.12926145888E+04  0.12986444761E+04  0.12500000000E+03 0.  0.
<mgrwt>
<rscale>  2 0.12500000E+03</rscale>
<asrwt>0</asrwt>
<pdfrwt beam="1">  1       21 0.46383708E-03 0.12500000E+03</pdfrwt>
<pdfrwt beam="2">  1       21 0.19932779E+00 0.12500000E+03</pdfrwt>
<totfact> 0.17276675E+06</totfact>
</mgrwt>
</event>
<event>
 3    0  0.1507569E+001  0.1250000E+03  0.7546771E-02  0.1235069E+00
         21   -1    0    0  502  501  0.00000000000E+00  0.00000000000E+00  0.93229750048E+01  0.93229750048E+01  0.00000000000E+00 0. -1.
         21   -1    0    0  501  502 -0.00000000000E+00 -0.00000000000E+00 -0.41899179157E+03  0.41899179157E+03  0.00000000000E+00 0. -1.
         25    1    1    2    0    0  0.00000000000E+00  0.00000000000E+00 -0.40966881656E+03  0.42831476657E+03  0.12500000000E+03 0.  0.
<mgrwt>
<rscale>  2 0.12500000E+03</rscale>
<asrwt>0</asrwt>
<pdfrwt beam="1">  1       21 0.14343042E-02 0.12500000E+03</pdfrwt>
<pdfrwt beam="2">  1       21 0.64460258E-01 0.12500000E+03</pdfrwt>
<totfact> 0.46218277E+06</totfact>
</mgrwt>
</event>
<event>
 3    0  0.1573699E+001  0.1250000E+03  0.7546771E-02  0.1235069E+00
         21   -1    0    0  502  501  0.00000000000E+00  0.00000000000E+00  0.11982799031E+02  0.11982799031E+02  0.00000000000E+00 0.  1.
         21   -1    0    0  501  502 -0.00000000000E+00 -0.00000000000E+00 -0.32598810928E+03  0.32598810928E+03  0.00000000000E+00 0.  1.
         25    1    1    2    0    0  0.00000000000E+00  0.00000000000E+00 -0.31400531025E+03  0.33797090831E+03  0.12500000000E+03 0.  0.
<mgrwt>
<rscale>  2 0.12500000E+03</rscale>
<asrwt>0</asrwt>
<pdfrwt beam="1">  1       21 0.18435078E-02 0.12500000E+03</pdfrwt>
<pdfrwt beam="2">  1       21 0.50152010E-01 0.12500000E+03</pdfrwt>
<totfact> 0.52439276E+06</totfact>
</mgrwt>
</event>
<event>
 3    0  0.1429128E+001  0.1250000E+03  0.7546771E-02  0.1235069E+00
         21   -1    0    0  502  501  0.00000000000E+00  0.00000000000E+00  0.57656204356E+03  0.57656204356E+03  0.00000000000E+00 0. -1.
         21   -1    0    0  501  502 -0.00000000000E+00 -0.00000000000E+00 -0.67750731142E+01  0.67750731142E+01  0.00000000000E+00 0. -1.
         25    1    1    2    0    0  0.00000000000E+00  0.00000000000E+00  0.56978697045E+03  0.58333711668E+03  0.12500000000E+03 0.  0.
<mgrwt>
<rscale>  2 0.12500000E+03</rscale>
<asrwt>0</asrwt>
<pdfrwt beam="1">  1       21 0.88701814E-01 0.12500000E+03</pdfrwt>
<pdfrwt beam="2">  1       21 0.10423194E-02 0.12500000E+03</pdfrwt>
<totfact> 0.37857207E+06</totfact>
</mgrwt>
</event>
<event>
 3    0  0.1422565E+001  0.1250000E+03  0.7546771E-02  0.1235069E+00
         21   -1    0    0  502  501  0.00000000000E+00  0.00000000000E+00  0.51330772838E+03  0.51330772838E+03  0.00000000000E+00 0. -1.
         21   -1    0    0  501  502 -0.00000000000E+00 -0.00000000000E+00 -0.76099575051E+01  0.76099575051E+01  0.00000000000E+00 0. -1.
         25    1    1    2    0    0  0.00000000000E+00  0.00000000000E+00  0.50569777087E+03  0.52091768588E+03  0.12500000000E+03 0.  0.
<mgrwt>
<rscale>  2 0.12500000E+03</rscale>
<asrwt>0</asrwt>
<pdfrwt beam="1">  1       21 0.78970392E-01 0.12500000E+03</pdfrwt>
<pdfrwt beam="2">  1       21 0.11707631E-02 0.12500000E+03</pdfrwt>
<totfact> 0.40931922E+06</totfact>
</mgrwt>
</event>
<event>
 3    0  0.1710802E+001  0.1250000E+03  0.7546771E-02  0.1235069E+00
         21   -1    0    0  502  501  0.00000000000E+00  0.00000000000E+00  0.94206047606E+02  0.94206047606E+02  0.00000000000E+00 0. -1.
         21   -1    0    0  501  502 -0.00000000000E+00 -0.00000000000E+00 -0.41464960045E+02  0.41464960045E+02  0.00000000000E+00 0. -1.
         25    1    1    2    0    0  0.00000000000E+00  0.00000000000E+00  0.52741087561E+02  0.13567100765E+03  0.12500000000E+03 0.  0.
<mgrwt>
<rscale>  2 0.12500000E+03</rscale>
<asrwt>0</asrwt>
<pdfrwt beam="1">  1       21 0.14493238E-01 0.12500000E+03</pdfrwt>
<pdfrwt beam="2">  1       21 0.63792247E-02 0.12500000E+03</pdfrwt>
<totfact> 0.72607748E+06</totfact>
</mgrwt>
</event>
<event>
 3    0  0.1368989E+001  0.1250000E+03  0.7546771E-02  0.1235069E+00
         21   -1    0    0  502  501  0.00000000000E+00  0.00000000000E+00  0.27593810055E+01  0.27593810055E+01  0.00000000000E+00 0. -1.
         21   -1    0    0  501  502 -0.00000000000E+00 -0.00000000000E+00 -0.14156254581E+04  0.14156254581E+04  0.00000000000E+00 0. -1.
         25    1    1    2    0    0  0.00000000000E+00  0.00000000000E+00 -0.14128660771E+04  0.14183848391E+04  0.12500000000E+03 0.  0.
<mgrwt>
<rscale>  2 0.12500000E+03</rscale>
<asrwt>0</asrwt>
<pdfrwt beam="1">  1       21 0.42451903E-03 0.12500000E+03</pdfrwt>
<pdfrwt beam="2">  1       21 0.21778911E+00 0.12500000E+03</pdfrwt>
<totfact> 0.15248193E+06</totfact>
</mgrwt>
</event>
<event>
 3    0  0.1443282E+001  0.1250000E+03  0.7546771E-02  0.1235069E+00
         21   -1    0    0  502  501  0.00000000000E+00  0.00000000000E+00  0.78117716474E+01  0.78117716474E+01  0.00000000000E+00 0. -1.
         21   -1    0    0  501  502 -0.00000000000E+00 -0.00000000000E+00 -0.50004661891E+03  0.50004661891E+03  0.00000000000E+00 0. -1.
         25    1    1    2    0    0  0.00000000000E+00  0.00000000000E+00 -0.49223484727E+03  0.50785839056E+03  0.12500000000E+03 0.  0.
<mgrwt>
<rscale>  2 0.12500000E+03</rscale>
<asrwt>0</asrwt>
<pdfrwt beam="1">  1       21 0.12018114E-02 0.12500000E+03</pdfrwt>
<pdfrwt beam="2">  1       21 0.76930224E-01 0.12500000E+03</pdfrwt>
<totfact> 0.41621083E+06</totfact>
</mgrwt>
</event>
<event>
 3    0  0.1527508E+001  0.1250000E+03  0.7546771E-02  0.1235069E+00
         21   -1    0    0  502  501  0.00000000000E+00  0.00000000000E+00  0.11234082575E+02  0.11234082575E+02  0.00000000000E+00 0. -1.
         21   -1    0    0  501  502 -0.00000000000E+00 -0.00000000000E+00 -0.34771419687E+03  0.34771419687E+03  0.00000000000E+00 0. -1.
         25    1    1    2    0    0  0.00000000000E+00  0.00000000000E+00 -0.33648011429E+03  0.35894827944E+03  0.12500000000E+03 0.  0.
<mgrwt>
<rscale>  2 0.12500000E+03</rscale>
<asrwt>0</asrwt>
<pdfrwt beam="1">  1       21 0.17283204E-02 0.12500000E+03</pdfrwt>
<pdfrwt beam="2">  1       21 0.53494491E-01 0.12500000E+03</pdfrwt>
<totfact> 0.50884291E+06</totfact>
</mgrwt>
</event>
<event>
 3    0  0.1674768E+001  0.1250000E+03  0.7546771E-02  0.1235069E+00
         21   -1    0    0  502  501  0.00000000000E+00  0.00000000000E+00  0.19862762605E+03  0.19862762605E+03  0.00000000000E+00 0.  1.
         21   -1    0    0  501  502 -0.00000000000E+00 -0.00000000000E+00 -0.19666196882E+02  0.19666196882E+02  0.00000000000E+00 0.  1.
         25    1    1    2    0    0  0.00000000000E+00  0.00000000000E+00  0.17896142916E+03  0.21829382293E+03  0.12500000000E+03 0.  0.
<mgrwt>
<rscale>  2 0.12500000E+03</rscale>
<asrwt>0</asrwt>
<pdfrwt beam="1">  1       21 0.30558095E-01 0.12500000E+03</pdfrwt>
<pdfrwt beam="2">  1       21 0.30255689E-02 0.12500000E+03</pdfrwt>
<totfact> 0.62997357E+06</totfact>
</mgrwt>
</event>
<event>
 3    0  0.1687375E+001  0.1250000E+03  0.7546771E-02  0.1235069E+00
         21   -1    0    0  502  501  0.00000000000E+00  0.00000000000E+00  0.14104801176E+03  0.14104801176E+03  0.00000000000E+00 0. -1.
         21   -1    0    0  501  502 -0.00000000000E+00 -0.00000000000E+00 -0.27694470494E+02  0.27694470494E+02  0.00000000000E+00 0. -1.
         25    1    1    2    0    0  0.00000000000E+00  0.00000000000E+00  0.11335354127E+03  0.16874248226E+03  0.12500000000E+03 0.  0.
<mgrwt>
<rscale>  2 0.12500000E+03</rscale>
<asrwt>0</asrwt>
<pdfrwt beam="1">  1       21 0.21699694E-01 0.12500000E+03</pdfrwt>
<pdfrwt beam="2">  1       21 0.42606879E-02 0.12500000E+03</pdfrwt>
<totfact> 0.68466723E+06</totfact>
</mgrwt>
</event>
<event>
 3    0  0.1368989E+001  0.1250000E+03  0.7546771E-02  0.1235069E+00
         21   -1    0    0  502  501  0.00000000000E+00  0.00000000000E+00  0.76430641881E+03  0.76430641881E+03  0.00000000000E+00 0.  1.
         21   -1    0    0  501  502 -0.00000000000E+00 -0.00000000000E+00 -0.51108428555E+01  0.51108428555E+01  0.00000000000E+00 0.  1.
         25    1    1    2    0    0  0.00000000000E+00  0.00000000000E+00  0.75919557596E+03  0.76941726167E+03  0.12500000000E+03 0.  0.
<mgrwt>
<rscale>  2 0.12500000E+03</rscale>
<asrwt>0</asrwt>
<pdfrwt beam="1">  1       21 0.11758551E+00 0.12500000E+03</pdfrwt>
<pdfrwt beam="2">  1       21 0.78628412E-03 0.12500000E+03</pdfrwt>
<totfact> 0.30397410E+06</totfact>
</mgrwt>
</event>
<event>
 3    0  0.1740358E+001  0.1250000E+03  0.7546771E-02  0.1235069E+00
         21   -1    0    0  502  501  0.00000000000E+00  0.00000000000E+00  0.65200988482E+02  0.65200988482E+02  0.00000000000E+00 0.  1.
         21   -1    0    0  501  502 -0.00000000000E+00 -0.00000000000E+00 -0.59910901520E+02  0.59910901520E+02  0.00000000000E+00 0.  1.
         25    1    1    2    0    0  0.00000000000E+00  0.00000000000E+00  0.52900869620E+01  0.12511189000E+03  0.12500000000E+03 0.  0.
<mgrwt>
<rscale>  2 0.12500000E+03</rscale>
<asrwt>0</asrwt>
<pdfrwt beam="1">  1       21 0.10030921E-01 0.12500000E+03</pdfrwt>
<pdfrwt beam="2">  1       21 0.92170618E-02 0.12500000E+03</pdfrwt>
<totfact> 0.74028470E+06</totfact>
</mgrwt>
</event>
<event>
 3    0  0.1545344E+001  0.1250000E+03  0.7546771E-02  0.1235069E+00
         21   -1    0    0  502  501  0.00000000000E+00  0.00000000000E+00  0.36337009878E+03  0.36337009878E+03  0.00000000000E+00 0. -1.
         21   -1    0    0  501  502 -0.00000000000E+00 -0.00000000000E+00 -0.10750058998E+02  0.10750058998E+02  0.00000000000E+00 0. -1.
         25    1    1    2    0    0  0.00000000000E+00  0.00000000000E+00  0.35262003979E+03  0.37412015778E+03  0.12500000000E+03 0.  0.
<mgrwt>
<rscale>  2 0.12500000E+03</rscale>
<asrwt>0</asrwt>
<pdfrwt beam="1">  1       21 0.55903083E-01 0.12500000E+03</pdfrwt>
<pdfrwt beam="2">  1       21 0.16538555E-02 0.12500000E+03</pdfrwt>
<totfact> 0.49804950E+06</totfact>
</mgrwt>
</event>
<event>
 3    0  0.1641029E+001  0.1250000E+03  0.7546771E-02  0.1235069E+00
         21   -1    0    0  502  501  0.00000000000E+00  0.00000000000E+00  0.21141485788E+03  0.21141485788E+03  0.00000000000E+00 0. -1.
         21   -1    0    0  501  502 -0.00000000000E+00 -0.00000000000E+00 -0.18476705181E+02  0.18476705181E+02  0.00000000000E+00 0. -1.
         25    1    1    2    0    0  0.00000000000E+00  0.00000000000E+00  0.19293815270E+03  0.22989156306E+03  0.12500000000E+03 0.  0.
<mgrwt>
<rscale>  2 0.12500000E+03</rscale>
<asrwt>0</asrwt>
<pdfrwt beam="1">  1       21 0.32525361E-01 0.12500000E+03</pdfrwt>
<pdfrwt beam="2">  1       21 0.28425702E-02 0.12500000E+03</pdfrwt>
<totfact> 0.61824773E+06</totfact>
</mgrwt>
</event>
<event>
 3    0  0.1650331E+001  0.1250000E+03  0.7546771E-02  0.1235069E+00
         21   -1    0    0  502  501  0.00000000000E+00  0.00000000000E+00  0.17941205391E+02  0.17941205391E+02  0.00000000000E+00 0.  1.
         21   -1    0    0  501  502 -0.00000000000E+00 -0.00000000000E+00 -0.21772505887E+03  0.21772505887E+03  0.00000000000E+00 0.  1.
         25    1    1    2    0    0  0.00000000000E+00  0.00000000000E+00 -0.19978385348E+03  0.23566626426E+03  0.12500000000E+03 0.  0.
<mgrwt>
<rscale>  2 0.12500000E+03</rscale>
<asrwt>0</asrwt>
<pdfrwt beam="1">  1       21 0.27601853E-02 0.12500000E+03</pdfrwt>
<pdfrwt beam="2">  1       21 0.33496165E-01 0.12500000E+03</pdfrwt>
<totfact> 0.61254566E+06</totfact>
</mgrwt>
</event>
<event>
 3    0  0.1635851E+001  0.1250000E+03  0.7546771E-02  0.1235069E+00
         21   -1    0    0  502  501  0.00000000000E+00  0.00000000000E+00  0.25659722213E+03  0.25659722213E+03  0.00000000000E+00 0.  1.
         21   -1    0    0  501  502 -0.00000000000E+00 -0.00000000000E+00 -0.15223274701E+02  0.15223274701E+02  0.00000000000E+00 0.  1.
         25    1    1    2    0    0  0.00000000000E+00  0.00000000000E+00  0.24137394743E+03  0.27182049683E+03  0.12500000000E+03 0.  0.
<mgrwt>
<rscale>  2 0.12500000E+03</rscale>
<asrwt>0</asrwt>
<pdfrwt beam="1">  1       21 0.39476492E-01 0.12500000E+03</pdfrwt>
<pdfrwt beam="2">  1       21 0.23420425E-02 0.12500000E+03</pdfrwt>
<totfact> 0.57882432E+06</totfact>
</mgrwt>
</event>
<event>
 3    0  0.1440587E+001  0.1250000E+03  0.7546771E-02  0.1235069E+00
         21   -1    0    0  502  501  0.00000000000E+00  0.00000000000E+00  0.68657876611E+01  0.68657876611E+01  0.00000000000E+00 0. -1.
         21   -1    0    0  501  502 -0.00000000000E+00 -0.00000000000E+00 -0.56894419007E+03  0.56894419007E+03  0.00000000000E+00 0. -1.
         25    1    1    2    0    0  0.00000000000E+00  0.00000000000E+00 -0.56207840241E+03  0.57580997773E+03  0.12500000000E+03 0.  0.
<mgrwt>
<rscale>  2 0.12500000E+03</rscale>
<asrwt>0</asrwt>
<pdfrwt beam="1">  1       21 0.10562749E-02 0.12500000E+03</pdfrwt>
<pdfrwt beam="2">  1       21 0.87529884E-01 0.12500000E+03</pdfrwt>
<totfact> 0.38209951E+06</totfact>
</mgrwt>
</event>
<event>
 3    0  0.1717350E+001  0.1250000E+03  0.7546771E-02  0.1235069E+00
         21   -1    0    0  502  501  0.00000000000E+00  0.00000000000E+00  0.11614056836E+03  0.11614056836E+03  0.00000000000E+00 0.  1.
         21   -1    0    0  501  502 -0.00000000000E+00 -0.00000000000E+00 -0.33633811641E+02  0.33633811641E+02  0.00000000000E+00 0.  1.
         25    1    1    2    0    0  0.00000000000E+00  0.00000000000E+00  0.82506756717E+02  0.14977438000E+03  0.12500000000E+03 0.  0.
<mgrwt>
<rscale>  2 0.12500000E+03</rscale>
<asrwt>0</asrwt>
<pdfrwt beam="1">  1       21 0.17867780E-01 0.12500000E+03</pdfrwt>
<pdfrwt beam="2">  1       21 0.51744326E-02 0.12500000E+03</pdfrwt>
<totfact> 0.70787554E+06</totfact>
</mgrwt>
</event>
<event>
 3    0  0.1547342E+001  0.1250000E+03  0.7546771E-02  0.1235069E+00
         21   -1    0    0  502  501  0.00000000000E+00  0.00000000000E+00  0.38946461213E+03  0.38946461213E+03  0.00000000000E+00 0.  1.
         21   -1    0    0  501  502 -0.00000000000E+00 -0.00000000000E+00 -0.10029794437E+02  0.10029794437E+02  0.00000000000E+00 0.  1.
         25    1    1    2    0    0  0.00000000000E+00  0.00000000000E+00  0.37943481769E+03  0.39949440656E+03  0.12500000000E+03 0.  0.
<mgrwt>
<rscale>  2 0.12500000E+03</rscale>
<asrwt>0</asrwt>
<pdfrwt beam="1">  1       21 0.59917621E-01 0.12500000E+03</pdfrwt>
<pdfrwt beam="2">  1       21 0.15430456E-02 0.12500000E+03</pdfrwt>
<totfact> 0.48074909E+06</totfact>
</mgrwt>
</event>
<event>
 3    0  0.1667919E+001  0.1250000E+03  0.7546771E-02  0.1235069E+00
         21   -1    0    0  502  501  0.00000000000E+00  0.00000000000E+00  0.25584431854E+02  0.25584431854E+02  0.00000000000E+00 0. -1.
         21   -1    0    0  501  502 -0.00000000000E+00 -0.00000000000E+00 -0.15268074047E+03  0.15268074047E+03  0.00000000000E+00 0. -1.
         25    1    1    2    0    0  0.00000000000E+00  0.00000000000E+00 -0.12709630862E+03  0.17826517233E+03  0.12500000000E+03 0.  0.
<mgrwt>
<rscale>  2 0.12500000E+03</rscale>
<asrwt>0</asrwt>
<pdfrwt beam="1">  1       21 0.39360665E-02 0.12500000E+03</pdfrwt>
<pdfrwt beam="2">  1       21 0.23489344E-01 0.12500000E+03</pdfrwt>
<totfact> 0.67351110E+06</totfact>
</mgrwt>
</event>
<event>
 3    0  0.1644951E+001  0.1250000E+03  0.7546771E-02  0.1235069E+00
         21   -1    0    0  502  501  0.00000000000E+00  0.00000000000E+00  0.15437847014E+02  0.15437847014E+02  0.00000000000E+00 0.  1.
         21   -1    0    0  501  502 -0.00000000000E+00 -0.00000000000E+00 -0.25303074945E+03  0.25303074945E+03  0.00000000000E+00 0.  1.
         25    1    1    2    0    0  0.00000000000E+00  0.00000000000E+00 -0.23759290244E+03  0.26846859647E+03  0.12500000000E+03 0.  0.
<mgrwt>
<rscale>  2 0.12500000E+03</rscale>
<asrwt>0</asrwt>
<pdfrwt beam="1">  1       21 0.23750535E-02 0.12500000E+03</pdfrwt>
<pdfrwt beam="2">  1       21 0.38927806E-01 0.12500000E+03</pdfrwt>
<totfact> 0.58181669E+06</totfact>
</mgrwt>
</event>
<event>
 3    0  0.1368989E+001  0.1250000E+03  0.7546771E-02  0.1235069E+00
         21   -1    0    0  502  501  0.00000000000E+00  0.00000000000E+00  0.17667401838E+04  0.17667401838E+04  0.00000000000E+00 0. -1.
         21   -1    0    0  501  502 -0.00000000000E+00 -0.00000000000E+00 -0.22109928986E+01  0.22109928986E+01  0.00000000000E+00 0. -1.
         25    1    1    2    0    0  0.00000000000E+00  0.00000000000E+00  0.17645291909E+04  0.17689511767E+04  0.12500000000E+03 0.  0.
<mgrwt>
<rscale>  2 0.12500000E+03</rscale>
<asrwt>0</asrwt>
<pdfrwt beam="1">  1       21 0.27180505E+00 0.12500000E+03</pdfrwt>
<pdfrwt beam="2">  1       21 0.34015417E-03 0.12500000E+03</pdfrwt>
<totfact> 0.10431985E+06</totfact>
</mgrwt>
</event>
<event>
 3    0  0.1536756E+001  0.1250000E+03  0.7546771E-02  0.1235069E+00
         21   -1    0    0  502  501  0.00000000000E+00  0.00000000000E+00  0.10326628096E+02  0.10326628096E+02  0.00000000000E+00 0.  1.
         21   -1    0    0  501  502 -0.00000000000E+00 -0.00000000000E+00 -0.37826965044E+03  0.37826965044E+03  0.00000000000E+00 0.  1.
         25    1    1    2    0    0  0.00000000000E+00  0.00000000000E+00 -0.36794302234E+03  0.38859627853E+03  0.12500000000E+03 0.  0.
<mgrwt>
<rscale>  2 0.12500000E+03</rscale>
<asrwt>0</asrwt>
<pdfrwt beam="1">  1       21 0.15887119E-02 0.12500000E+03</pdfrwt>
<pdfrwt beam="2">  1       21 0.58195337E-01 0.12500000E+03</pdfrwt>
<totfact> 0.48807057E+06</totfact>
</mgrwt>
</event>
<event>
 3    0  0.1733462E+001  0.1250000E+03  0.7546771E-02  0.1235069E+00
         21   -1    0    0  502  501  0.00000000000E+00  0.00000000000E+00  0.95359375568E+02  0.95359375568E+02  0.00000000000E+00 0.  1.
         21   -1    0    0  501  502 -0.00000000000E+00 -0.00000000000E+00 -0.40963460349E+02  0.40963460349E+02  0.00000000000E+00 0.  1.
         25    1    1    2    0    0  0.00000000000E+00  0.00000000000E+00  0.54395915219E+02  0.13632283592E+03  0.12500000000E+03 0.  0.
<mgrwt>
<rscale>  2 0.12500000E+03</rscale>
<asrwt>0</asrwt>
<pdfrwt beam="1">  1       21 0.14670673E-01 0.12500000E+03</pdfrwt>
<pdfrwt beam="2">  1       21 0.63020709E-02 0.12500000E+03</pdfrwt>
<totfact> 0.72521790E+06</totfact>
</mgrwt>
</event>
<event>
 3    0  0.1680610E+001  0.1250000E+03  0.7546771E-02  0.1235069E+00
         21   -1    0    0  502  501  0.00000000000E+00  0.00000000000E+00  0.18642521148E+03  0.18642521148E+03  0.00000000000E+00 0.  1.
         21   -1    0    0  501  502 -0.00000000000E+00 -0.00000000000E+00 -0.20953442772E+02  0.20953442772E+02  0.00000000000E+00 0.  1.
         25    1    1    2    0    0  0.00000000000E+00  0.00000000000E+00  0.16547176871E+03  0.20737865425E+03  0.12500000000E+03 0.  0.
<mgrwt>
<rscale>  2 0.12500000E+03</rscale>
<asrwt>0</asrwt>
<pdfrwt beam="1">  1       21 0.28680801E-01 0.12500000E+03</pdfrwt>
<pdfrwt beam="2">  1       21 0.32236067E-02 0.12500000E+03</pdfrwt>
<totfact> 0.64136391E+06</totfact>
</mgrwt>
</event>
<event>
 3    0  0.1426413E+001  0.1250000E+03  0.7546771E-02  0.1235069E+00
         21   -1    0    0  502  501  0.00000000000E+00  0.00000000000E+00  0.67691515342E+01  0.67691515342E+01  0.00000000000E+00 0. -1.
         21   -1    0    0  501  502 -0.00000000000E+00 -0.00000000000E+00 -0.57706641376E+03  0.57706641376E+03  0.00000000000E+00 0. -1.
         25    1    1    2    0    0  0.00000000000E+00  0.00000000000E+00 -0.57029726222E+03  0.58383556529E+03  0.12500000000E+03 0.  0.
<mgrwt>
<rscale>  2 0.12500000E+03</rscale>
<asrwt>0</asrwt>
<pdfrwt beam="1">  1       21 0.10414081E-02 0.12500000E+03</pdfrwt>
<pdfrwt beam="2">  1       21 0.88779437E-01 0.12500000E+03</pdfrwt>
<totfact> 0.37834003E+06</totfact>
</mgrwt>
</event>
<event>
 3    0  0.1435464E+001  0.1250000E+03  0.7546771E-02  0.1235069E+00
         21   -1    0    0  502  501  0.00000000000E+00  0.00000000000E+00  0.66925027090E+01  0.66925027090E+01  0.00000000000E+00 0.  1.
         21   -1    0    0  501  502 -0.00000000000E+00 -0.00000000000E+00 -0.58367552018E+03  0.58367552018E+03  0.00000000000E+00 0.  1.
         25    1    1    2    0    0  0.00000000000E+00  0.00000000000E+00 -0.57698301747E+03  0.59036802289E+03  0.12500000000E+03 0.  0.
<mgrwt>
<rscale>  2 0.12500000E+03</rscale>
<asrwt>0</asrwt>
<pdfrwt beam="1">  1       21 0.10296159E-02 0.12500000E+03</pdfrwt>
<pdfrwt beam="2">  1       21 0.89796224E-01 0.12500000E+03</pdfrwt>
<totfact> 0.37531881E+06</totfact>
</mgrwt>
</event>
<event>
 3    0  0.1739341E+001  0.1250000E+03  0.7546771E-02  0.1235069E+00
         21   -1    0    0  502  501  0.00000000000E+00  0.00000000000E+00  0.76299312425E+02  0.76299312425E+02  0.00000000000E+00 0.  1.
         21   -1    0    0  501  502 -0.00000000000E+00 -0.00000000000E+00 -0.51196398445E+02  0.51196398445E+02  0.00000000000E+00 0.  1.
         25    1    1    2    0    0  0.00000000000E+00  0.00000000000E+00  0.25102913980E+02  0.12749571087E+03  0.12500000000E+03 0.  0.
<mgrwt>
<rscale>  2 0.12500000E+03</rscale>
<asrwt>0</asrwt>
<pdfrwt beam="1">  1       21 0.11738356E-01 0.12500000E+03</pdfrwt>
<pdfrwt beam="2">  1       21 0.78763690E-02 0.12500000E+03</pdfrwt>
<totfact> 0.73701799E+06</totfact>
</mgrwt>
</event>
<event>
 3    0  0.1668327E+001  0.1250000E+03  0.7546771E-02  0.1235069E+00
         21   -1    0    0  502  501  0.00000000000E+00  0.00000000000E+00  0.22407139860E+02  0.22407139860E+02  0.00000000000E+00 0. -1.
         21   -1    0    0  501  502 -0.00000000000E+00 -0.00000000000E+00 -0.17433059393E+03  0.17433059393E+03  0.00000000000E+00 0. -1.
         25    1    1    2    0    0  0.00000000000E+00  0.00000000000E+00 -0.15192345407E+03  0.19673773379E+03  0.12500000000E+03 0.  0.
<mgrwt>
<rscale>  2 0.12500000E+03</rscale>
<asrwt>0</asrwt>
<pdfrwt beam="1">  1       21 0.34472522E-02 0.12500000E+03</pdfrwt>
<pdfrwt beam="2">  1       21 0.26820092E-01 0.12500000E+03</pdfrwt>
<totfact> 0.65281332E+06</totfact>
</mgrwt>
</event>
<event>
 3    0  0.1693454E+001  0.1250000E+03  0.7546771E-02  0.1235069E+00
         21   -1    0    0  502  501  0.00000000000E+00  0.00000000000E+00  0.10912159543E+03  0.10912159543E+03  0.00000000000E+00 0. -1.
         21   -1    0    0  501  502 -0.00000000000E+00 -0.00000000000E+00 -0.35797222213E+02  0.35797222213E+02  0.00000000000E+00 0. -1.
         25    1    1    2    0    0  0.00000000000E+00  0.00000000000E+00  0.73324373221E+02  0.14491881765E+03  0.12500000000E+03 0.  0.
<mgrwt>
<rscale>  2 0.12500000E+03</rscale>
<asrwt>0</asrwt>
<pdfrwt beam="1">  1       21 0.16787938E-01 0.12500000E+03</pdfrwt>
<pdfrwt beam="2">  1       21 0.55072650E-02 0.12500000E+03</pdfrwt>
<totfact> 0.71403490E+06</totfact>
</mgrwt>
</event>
<event>
 3    0  0.1727583E+001  0.1250000E+03  0.7546771E-02  0.1235069E+00
         21   -1    0    0  502  501  0.00000000000E+00  0.00000000000E+00  0.11136321399E+03  0.11136321399E+03  0.00000000000E+00 0.  1.
         21   -1    0    0  501  502 -0.00000000000E+00 -0.00000000000E+00 -0.35076663650E+02  0.35076663650E+02  0.00000000000E+00 0.  1.
         25    1    1    2    0    0  0.00000000000E+00  0.00000000000E+00  0.76286550336E+02  0.14643987764E+03  0.12500000000E+03 0.  0.
<mgrwt>
<rscale>  2 0.12500000E+03</rscale>
<asrwt>0</asrwt>
<pdfrwt beam="1">  1       21 0.17132802E-01 0.12500000E+03</pdfrwt>
<pdfrwt beam="2">  1       21 0.53964098E-02 0.12500000E+03</pdfrwt>
<totfact> 0.71209336E+06</totfact>
</mgrwt>
</event>
<event>
 3    0  0.1476307E+001  0.1250000E+03  0.7546771E-02  0.1235069E+00
         21   -1    0    0  502  501  0.00000000000E+00  0.00000000000E+00  0.89816847627E+01  0.89816847627E+01  0.00000000000E+00 0. -1.
         21   -1    0    0  501  502 -0.00000000000E+00 -0.00000000000E+00 -0.43491283687E+03  0.43491283687E+03  0.00000000000E+00 0. -1.
         25    1    1    2    0    0  0.00000000000E+00  0.00000000000E+00 -0.42593115211E+03  0.44389452163E+03  0.12500000000E+03 0.  0.
<mgrwt>
<rscale>  2 0.12500000E+03</rscale>
<asrwt>0</asrwt>
<pdfrwt beam="1">  1       21 0.13817978E-02 0.12500000E+03</pdfrwt>
<pdfrwt beam="2">  1       21 0.66909660E-01 0.12500000E+03</pdfrwt>
<totfact> 0.45259877E+06</totfact>
</mgrwt>
</event>
<event>
 3    0  0.1611353E+001  0.1250000E+03  0.7546771E-02  0.1235069E+00
         21   -1    0    0  502  501  0.00000000000E+00  0.00000000000E+00  0.14613590996E+02  0.14613590996E+02  0.00000000000E+00 0.  1.
         21   -1    0    0  501  502 -0.00000000000E+00 -0.00000000000E+00 -0.26730254056E+03  0.26730254056E+03  0.00000000000E+00 0.  1.
         25    1    1    2    0    0  0.00000000000E+00  0.00000000000E+00 -0.25268894956E+03  0.28191613155E+03  0.12500000000E+03 0.  0.
<mgrwt>
<rscale>  2 0.12500000E+03</rscale>
<asrwt>0</asrwt>
<pdfrwt beam="1">  1       21 0.22482450E-02 0.12500000E+03</pdfrwt>
<pdfrwt beam="2">  1       21 0.41123464E-01 0.12500000E+03</pdfrwt>
<totfact> 0.56993317E+06</totfact>
</mgrwt>
</event>
<event>
 3    0  0.1728985E+001  0.1250000E+03  0.7546771E-02  0.1235069E+00
         21   -1    0    0  502  501  0.00000000000E+00  0.00000000000E+00  0.97813104765E+02  0.97813104765E+02  0.00000000000E+00 0.  1.
         21   -1    0    0  501  502 -0.00000000000E+00 -0.00000000000E+00 -0.39935855317E+02  0.39935855317E+02  0.00000000000E+00 0.  1.
         25    1    1    2    0    0  0.00000000000E+00  0.00000000000E+00  0.57877249448E+02  0.13774896008E+03  0.12500000000E+03 0.  0.
<mgrwt>
<rscale>  2 0.12500000E+03</rscale>
<asrwt>0</asrwt>
<pdfrwt beam="1">  1       21 0.15048170E-01 0.12500000E+03</pdfrwt>
<pdfrwt beam="2">  1       21 0.61439778E-02 0.12500000E+03</pdfrwt>
<totfact> 0.72334495E+06</totfact>
</mgrwt>
</event>
<event>
 3    0  0.1689810E+001  0.1250000E+03  0.7546771E-02  0.1235069E+00
         21   -1    0    0  502  501  0.00000000000E+00  0.00000000000E+00  0.12195672525E+03  0.12195672525E+03  0.00000000000E+00 0. -1.
         21   -1    0    0  501  502 -0.00000000000E+00 -0.00000000000E+00 -0.32029803949E+02  0.32029803949E+02  0.00000000000E+00 0. -1.
         25    1    1    2    0    0  0.00000000000E+00  0.00000000000E+00  0.89926921301E+02  0.15398652920E+03  0.12500000000E+03 0.  0.
<mgrwt>
<rscale>  2 0.12500000E+03</rscale>
<asrwt>0</asrwt>
<pdfrwt beam="1">  1       21 0.18762573E-01 0.12500000E+03</pdfrwt>
<pdfrwt beam="2">  1       21 0.49276622E-02 0.12500000E+03</pdfrwt>
<totfact> 0.70261839E+06</totfact>
</mgrwt>
</event>
<event>
 3    0  0.1587896E+001  0.1250000E+03  0.7546771E-02  0.1235069E+00
         21   -1    0    0  502  501  0.00000000000E+00  0.00000000000E+00  0.27643388160E+03  0.27643388160E+03  0.00000000000E+00 0. -1.
         21   -1    0    0  501  502 -0.00000000000E+00 -0.00000000000E+00 -0.14130865498E+02  0.14130865498E+02  0.00000000000E+00 0. -1.
         25    1    1    2    0    0  0.00000000000E+00  0.00000000000E+00  0.26230301611E+03  0.29056474710E+03  0.12500000000E+03 0.  0.
<mgrwt>
<rscale>  2 0.12500000E+03</rscale>
<asrwt>0</asrwt>
<pdfrwt beam="1">  1       21 0.42528286E-01 0.12500000E+03</pdfrwt>
<pdfrwt beam="2">  1       21 0.21739795E-02 0.12500000E+03</pdfrwt>
<totfact> 0.56249511E+06</totfact>
</mgrwt>
</event>
<event>
 3    0  0.1725382E+001  0.1250000E+03  0.7546771E-02  0.1235069E+00
         21   -1    0    0  502  501  0.00000000000E+00  0.00000000000E+00  0.33451725794E+02  0.33451725794E+02  0.00000000000E+00 0.  1.
         21   -1    0    0  501  502 -0.00000000000E+00 -0.00000000000E+00 -0.11677274961E+03  0.11677274961E+03  0.00000000000E+00 0.  1.
         25    1    1    2    0    0  0.00000000000E+00  0.00000000000E+00 -0.83321023813E+02  0.15022447540E+03  0.12500000000E+03 0.  0.
<mgrwt>
<rscale>  2 0.12500000E+03</rscale>
<asrwt>0</asrwt>
<pdfrwt beam="1">  1       21 0.51464194E-02 0.12500000E+03</pdfrwt>
<pdfrwt beam="2">  1       21 0.17965038E-01 0.12500000E+03</pdfrwt>
<totfact> 0.70731014E+06</totfact>
</mgrwt>
</event>
<event>
 3    0  0.1368989E+001  0.1250000E+03  0.7546771E-02  0.1235069E+00
         21   -1    0    0  502  501  0.00000000000E+00  0.00000000000E+00  0.15043982331E+04  0.15043982331E+04  0.00000000000E+00 0. -1.
         21   -1    0    0  501  502 -0.00000000000E+00 -0.00000000000E+00 -0.25965531692E+01  0.25965531692E+01  0.00000000000E+00 0. -1.
         25    1    1    2    0    0  0.00000000000E+00  0.00000000000E+00  0.15018016799E+04  0.15069947863E+04  0.12500000000E+03 0.  0.
<mgrwt>
<rscale>  2 0.12500000E+03</rscale>
<asrwt>0</asrwt>
<pdfrwt beam="1">  1       21 0.23144519E+00 0.12500000E+03</pdfrwt>
<pdfrwt beam="2">  1       21 0.39947092E-03 0.12500000E+03</pdfrwt>
<totfact> 0.13889634E+06</totfact>
</mgrwt>
</event>
<event>
 3    0  0.1708918E+001  0.1250000E+03  0.7546771E-02  0.1235069E+00
         21   -1    0    0  502  501  0.00000000000E+00  0.00000000000E+00  0.12752106402E+03  0.12752106402E+03  0.00000000000E+00 0.  1.
         21   -1    0    0  501  502 -0.00000000000E+00 -0.00000000000E+00 -0.30632194217E+02  0.30632194217E+02  0.00000000000E+00 0.  1.
         25    1    1    2    0    0  0.00000000000E+00  0.00000000000E+00  0.96888869806E+02  0.15815325824E+03  0.12500000000E+03 0.  0.
<mgrwt>
<rscale>  2 0.12500000E+03</rscale>
<asrwt>0</asrwt>
<pdfrwt beam="1">  1       21 0.19618625E-01 0.12500000E+03</pdfrwt>
<pdfrwt beam="2">  1       21 0.47126453E-02 0.12500000E+03</pdfrwt>
<totfact> 0.69745855E+06</totfact>
</mgrwt>
</event>
<event>
 3    0  0.1730644E+001  0.1250000E+03  0.7546771E-02  0.1235069E+00
         21   -1    0    0  502  501  0.00000000000E+00  0.00000000000E+00  0.99701946885E+02  0.99701946885E+02  0.00000000000E+00 0.  1.
         21   -1    0    0  501  502 -0.00000000000E+00 -0.00000000000E+00 -0.39179275050E+02  0.39179275050E+02  0.00000000000E+00 0.  1.
         25    1    1    2    0    0  0.00000000000E+00  0.00000000000E+00  0.60522671836E+02  0.13888122193E+03  0.12500000000E+03 0.  0.
<mgrwt>
<rscale>  2 0.12500000E+03</rscale>
<asrwt>0</asrwt>
<pdfrwt beam="1">  1       21 0.15338761E-01 0.12500000E+03</pdfrwt>
<pdfrwt beam="2">  1       21 0.60275808E-02 0.12500000E+03</pdfrwt>
<totfact> 0.72185701E+06</totfact>
</mgrwt>
</event>
<event>
 3    0  0.1368989E+001  0.1250000E+03  0.7546771E-02  0.1235069E+00
         21   -1    0    0  502  501  0.00000000000E+00  0.00000000000E+00  0.36713670083E+01  0.36713670083E+01  0.00000000000E+00 0.  1.
         21   -1    0    0  501  502 -0.00000000000E+00 -0.00000000000E+00 -0.10639769849E+04  0.10639769849E+04  0.00000000000E+00 0.  1.
         25    1    1    2    0    0  0.00000000000E+00  0.00000000000E+00 -0.10603056179E+04  0.10676483519E+04  0.12500000000E+03 0.  0.
<mgrwt>
<rscale>  2 0.12500000E+03</rscale>
<asrwt>0</asrwt>
<pdfrwt beam="1">  1       21 0.56482591E-03 0.12500000E+03</pdfrwt>
<pdfrwt beam="2">  1       21 0.16368870E+00 0.12500000E+03</pdfrwt>
<totfact> 0.21985637E+06</totfact>
</mgrwt>
</event>
<event>
 3    0  0.1694612E+001  0.1250000E+03  0.7546771E-02  0.1235069E+00
         21   -1    0    0  502  501  0.00000000000E+00  0.00000000000E+00  0.25766115805E+02  0.25766115805E+02  0.00000000000E+00 0.  1.
         21   -1    0    0  501  502 -0.00000000000E+00 -0.00000000000E+00 -0.15160414669E+03  0.15160414669E+03  0.00000000000E+00 0.  1.
         25    1    1    2    0    0  0.00000000000E+00  0.00000000000E+00 -0.12583803088E+03  0.17737026249E+03  0.12500000000E+03 0.  0.
<mgrwt>
<rscale>  2 0.12500000E+03</rscale>
<asrwt>0</asrwt>
<pdfrwt beam="1">  1       21 0.39640178E-02 0.12500000E+03</pdfrwt>
<pdfrwt beam="2">  1       21 0.23323715E-01 0.12500000E+03</pdfrwt>
<totfact> 0.67454499E+06</totfact>
</mgrwt>
</event>
<event>
 3    0  0.1518752E+001  0.1250000E+03  0.7546771E-02  0.1235069E+00
         21   -1    0    0  502  501  0.00000000000E+00  0.00000000000E+00  0.39266811604E+03  0.39266811604E+03  0.00000000000E+00 0. -1.
         21   -1    0    0  501  502 -0.00000000000E+00 -0.00000000000E+00 -0.99479683744E+01  0.99479683744E+01  0.00000000000E+00 0. -1.
         25    1    1    2    0    0  0.00000000000E+00  0.00000000000E+00  0.38272014767E+03  0.40261608442E+03  0.12500000000E+03 0.  0.
<mgrwt>
<rscale>  2 0.12500000E+03</rscale>
<asrwt>0</asrwt>
<pdfrwt beam="1">  1       21 0.60410467E-01 0.12500000E+03</pdfrwt>
<pdfrwt beam="2">  1       21 0.15304570E-02 0.12500000E+03</pdfrwt>
<totfact> 0.47868316E+06</totfact>
</mgrwt>
</event>
<event>
 3    0  0.1714742E+001  0.1250000E+03  0.7546771E-02  0.1235069E+00
         21   -1    0    0  502  501  0.00000000000E+00  0.00000000000E+00  0.68496295324E+02  0.68496295324E+02  0.00000000000E+00 0. -1.
         21   -1    0    0  501  502 -0.00000000000E+00 -0.00000000000E+00 -0.57028631717E+02  0.57028631717E+02  0.00000000000E+00 0. -1.
         25    1    1    2    0    0  0.00000000000E+00  0.00000000000E+00  0.11467663607E+02  0.12552492704E+03  0.12500000000E+03 0.  0.
<mgrwt>
<rscale>  2 0.12500000E+03</rscale>
<asrwt>0</asrwt>
<pdfrwt beam="1">  1       21 0.10537892E-01 0.12500000E+03</pdfrwt>
<pdfrwt beam="2">  1       21 0.87736356E-02 0.12500000E+03</pdfrwt>
<totfact> 0.73971913E+06</totfact>
</mgrwt>
</event>
<event>
 3    0  0.1368989E+001  0.1250000E+03  0.7546771E-02  0.1235069E+00
         21   -1    0    0  502  501  0.00000000000E+00  0.00000000000E+00  0.16321261301E+04  0.16321261301E+04  0.00000000000E+00 0. -1.
         21   -1    0    0  501  502 -0.00000000000E+00 -0.00000000000E+00 -0.23933505677E+01  0.23933505677E+01  0.00000000000E+00 0. -1.
         25    1    1    2    0    0  0.00000000000E+00  0.00000000000E+00  0.16297327795E+04  0.16345194807E+04  0.12500000000E+03 0.  0.
<mgrwt>
<rscale>  2 0.12500000E+03</rscale>
<asrwt>0</asrwt>
<pdfrwt beam="1">  1       21 0.25109544E+00 0.12500000E+03</pdfrwt>
<pdfrwt beam="2">  1       21 0.36820908E-03 0.12500000E+03</pdfrwt>
<totfact> 0.12111154E+06</totfact>
</mgrwt>
</event>
<event>
 3    0  0.1368989E+001  0.1250000E+03  0.7546771E-02  0.1235069E+00
         21   -1    0    0  502  501  0.00000000000E+00  0.00000000000E+00  0.21766689507E+01  0.21766689507E+01  0.00000000000E+00 0.  1.
         21   -1    0    0  501  502 -0.00000000000E+00 -0.00000000000E+00 -0.17945999546E+04  0.17945999546E+04  0.00000000000E+00 0.  1.
         25    1    1    2    0    0  0.00000000000E+00  0.00000000000E+00 -0.17924232856E+04  0.17967766235E+04  0.12500000000E+03 0.  0.
<mgrwt>
<rscale>  2 0.12500000E+03</rscale>
<asrwt>0</asrwt>
<pdfrwt beam="1">  1       21 0.33487251E-03 0.12500000E+03</pdfrwt>
<pdfrwt beam="2">  1       21 0.27609200E+00 0.12500000E+03</pdfrwt>
<totfact> 0.10107071E+06</totfact>
</mgrwt>
</event>
<event>
 3    0  0.1728750E+001  0.1250000E+03  0.7546771E-02  0.1235069E+00
         21   -1    0    0  502  501  0.00000000000E+00  0.00000000000E+00  0.11081073898E+03  0.11081073898E+03  0.00000000000E+00 0.  1.
         21   -1    0    0  501  502 -0.00000000000E+00 -0.00000000000E+00 -0.35251547240E+02  0.35251547240E+02  0.00000000000E+00 0.  1.
         25    1    1    2    0    0  0.00000000000E+00  0.00000000000E+00  0.75559191745E+02  0.14606228622E+03  0.12500000000E+03 0.  0.
<mgrwt>
<rscale>  2 0.12500000E+03</rscale>
<asrwt>0</asrwt>
<pdfrwt beam="1">  1       21 0.17047806E-01 0.12500000E+03</pdfrwt>
<pdfrwt beam="2">  1       21 0.54233150E-02 0.12500000E+03</pdfrwt>
<totfact> 0.71257429E+06</totfact>
</mgrwt>
</event>
<event>
 3    0  0.1684080E+001  0.1250000E+03  0.7546771E-02  0.1235069E+00
         21   -1    0    0  502  501  0.00000000000E+00  0.00000000000E+00  0.17168200419E+03  0.17168200419E+03  0.00000000000E+00 0.  1.
         21   -1    0    0  501  502 -0.00000000000E+00 -0.00000000000E+00 -0.22752821523E+02  0.22752821523E+02  0.00000000000E+00 0.  1.
         25    1    1    2    0    0  0.00000000000E+00  0.00000000000E+00  0.14892918267E+03  0.19443482571E+03  0.12500000000E+03 0.  0.
<mgrwt>
<rscale>  2 0.12500000E+03</rscale>
<asrwt>0</asrwt>
<pdfrwt beam="1">  1       21 0.26412615E-01 0.12500000E+03</pdfrwt>
<pdfrwt beam="2">  1       21 0.35004342E-02 0.12500000E+03</pdfrwt>
<totfact> 0.65532932E+06</totfact>
</mgrwt>
</event>
<event>
 3    0  0.1624993E+001  0.1250000E+03  0.7546771E-02  0.1235069E+00
         21   -1    0    0  502  501  0.00000000000E+00  0.00000000000E+00  0.24831603320E+03  0.24831603320E+03  0.00000000000E+00 0.  1.
         21   -1    0    0  501  502 -0.00000000000E+00 -0.00000000000E+00 -0.15730961669E+02  0.15730961669E+02  0.00000000000E+00 0.  1.
         25    1    1    2    0    0  0.00000000000E+00  0.00000000000E+00  0.23258507153E+03  0.26404699487E+03  0.12500000000E+03 0.  0.
<mgrwt>
<rscale>  2 0.12500000E+03</rscale>
<asrwt>0</asrwt>
<pdfrwt beam="1">  1       21 0.38202464E-01 0.12500000E+03</pdfrwt>
<pdfrwt beam="2">  1       21 0.24201481E-02 0.12500000E+03</pdfrwt>
<totfact> 0.58580318E+06</totfact>
</mgrwt>
</event>
<event>
 3    0  0.1624065E+001  0.1250000E+03  0.7546771E-02  0.1235069E+00
         21   -1    0    0  502  501  0.00000000000E+00  0.00000000000E+00  0.21849207376E+03  0.21849207376E+03  0.00000000000E+00 0. -1.
         21   -1    0    0  501  502 -0.00000000000E+00 -0.00000000000E+00 -0.17878222915E+02  0.17878222915E+02  0.00000000000E+00 0. -1.
         25    1    1    2    0    0  0.00000000000E+00  0.00000000000E+00  0.20061385085E+03  0.23637029668E+03  0.12500000000E+03 0.  0.
<mgrwt>
<rscale>  2 0.12500000E+03</rscale>
<asrwt>0</asrwt>
<pdfrwt beam="1">  1       21 0.33614163E-01 0.12500000E+03</pdfrwt>
<pdfrwt beam="2">  1       21 0.27504960E-02 0.12500000E+03</pdfrwt>
<totfact> 0.61185680E+06</totfact>
</mgrwt>
</event>
<event>
 3    0  0.1368989E+001  0.1250000E+03  0.7546771E-02  0.1235069E+00
         21   -1    0    0  502  501  0.00000000000E+00  0.00000000000E+00  0.58793162103E+01  0.58793162103E+01  0.00000000000E+00 0.  1.
         21   -1    0    0  501  502 -0.00000000000E+00 -0.00000000000E+00 -0.66440549551E+03  0.66440549551E+03  0.00000000000E+00 0.  1.
         25    1    1    2    0    0  0.00000000000E+00  0.00000000000E+00 -0.65852617930E+03  0.67028481172E+03  0.12500000000E+03 0.  0.
<mgrwt>
<rscale>  2 0.12500000E+03</rscale>
<asrwt>0</asrwt>
<pdfrwt beam="1">  1       21 0.90451000E-03 0.12500000E+03</pdfrwt>
<pdfrwt beam="2">  1       21 0.10221625E+00 0.12500000E+03</pdfrwt>
<totfact> 0.34087518E+06</totfact>
</mgrwt>
</event>
<event>
 3    0  0.1603763E+001  0.1250000E+03  0.7546771E-02  0.1235069E+00
         21   -1    0    0  502  501  0.00000000000E+00  0.00000000000E+00  0.13268100500E+02  0.13268100500E+02  0.00000000000E+00 0.  1.
         21   -1    0    0  501  502 -0.00000000000E+00 -0.00000000000E+00 -0.29440913565E+03  0.29440913565E+03  0.00000000000E+00 0.  1.
         25    1    1    2    0    0  0.00000000000E+00  0.00000000000E+00 -0.28114103515E+03  0.30767723615E+03  0.12500000000E+03 0.  0.
<mgrwt>
<rscale>  2 0.12500000E+03</rscale>
<asrwt>0</asrwt>
<pdfrwt beam="1">  1       21 0.20412463E-02 0.12500000E+03</pdfrwt>
<pdfrwt beam="2">  1       21 0.45293712E-01 0.12500000E+03</pdfrwt>
<totfact> 0.54824140E+06</totfact>
</mgrwt>
</event>
<event>
 3    0  0.1615113E+001  0.1250000E+03  0.7546771E-02  0.1235069E+00
         21   -1    0    0  502  501  0.00000000000E+00  0.00000000000E+00  0.16074551287E+02  0.16074551287E+02  0.00000000000E+00 0. -1.
         21   -1    0    0  501  502 -0.00000000000E+00 -0.00000000000E+00 -0.24300833847E+03  0.24300833847E+03  0.00000000000E+00 0. -1.
         25    1    1    2    0    0  0.00000000000E+00  0.00000000000E+00 -0.22693378718E+03  0.25908288976E+03  0.12500000000E+03 0.  0.
<mgrwt>
<rscale>  2 0.12500000E+03</rscale>
<asrwt>0</asrwt>
<pdfrwt beam="1">  1       21 0.24730081E-02 0.12500000E+03</pdfrwt>
<pdfrwt beam="2">  1       21 0.37385894E-01 0.12500000E+03</pdfrwt>
<totfact> 0.59033434E+06</totfact>
</mgrwt>
</event>
<event>
 3    0  0.1503533E+001  0.1250000E+03  0.7546771E-02  0.1235069E+00
         21   -1    0    0  502  501  0.00000000000E+00  0.00000000000E+00  0.92780607734E+01  0.92780607734E+01  0.00000000000E+00 0. -1.
         21   -1    0    0  501  502 -0.00000000000E+00 -0.00000000000E+00 -0.42102009196E+03  0.42102009196E+03  0.00000000000E+00 0. -1.
         25    1    1    2    0    0  0.00000000000E+00  0.00000000000E+00 -0.41174203118E+03  0.43029815273E+03  0.12500000000E+03 0.  0.
<mgrwt>
<rscale>  2 0.12500000E+03</rscale>
<asrwt>0</asrwt>
<pdfrwt beam="1">  1       21 0.14273944E-02 0.12500000E+03</pdfrwt>
<pdfrwt beam="2">  1       21 0.64772301E-01 0.12500000E+03</pdfrwt>
<totfact> 0.46094566E+06</totfact>
</mgrwt>
</event>
<event>
 3    0  0.1738105E+001  0.1250000E+03  0.7546771E-02  0.1235069E+00
         21   -1    0    0  502  501  0.00000000000E+00  0.00000000000E+00  0.52678931463E+02  0.52678931463E+02  0.00000000000E+00 0.  1.
         21   -1    0    0  501  502 -0.00000000000E+00 -0.00000000000E+00 -0.74152035577E+02  0.74152035577E+02  0.00000000000E+00 0.  1.
         25    1    1    2    0    0  0.00000000000E+00  0.00000000000E+00 -0.21473104115E+02  0.12683096704E+03  0.12500000000E+03 0.  0.
<mgrwt>
<rscale>  2 0.12500000E+03</rscale>
<asrwt>0</asrwt>
<pdfrwt beam="1">  1       21 0.81044509E-02 0.12500000E+03</pdfrwt>
<pdfrwt beam="2">  1       21 0.11408006E-01 0.12500000E+03</pdfrwt>
<totfact> 0.73792165E+06</totfact>
</mgrwt>
</event>
<event>
 3    0  0.1714668E+001  0.1250000E+03  0.7546771E-02  0.1235069E+00
         21   -1    0    0  502  501  0.00000000000E+00  0.00000000000E+00  0.53772497136E+02  0.53772497136E+02  0.00000000000E+00 0. -1.
         21   -1    0    0  501  502 -0.00000000000E+00 -0.00000000000E+00 -0.72644013354E+02  0.72644013354E+02  0.00000000000E+00 0. -1.
         25    1    1    2    0    0  0.00000000000E+00  0.00000000000E+00 -0.18871516218E+02  0.12641651049E+03  0.12500000000E+03 0.  0.
<mgrwt>
<rscale>  2 0.12500000E+03</rscale>
<asrwt>0</asrwt>
<pdfrwt beam="1">  1       21 0.82726919E-02 0.12500000E+03</pdfrwt>
<pdfrwt beam="2">  1       21 0.11176002E-01 0.12500000E+03</pdfrwt>
<totfact> 0.73848805E+06</totfact>
</mgrwt>
</event>
<event>
 3    0  0.1608436E+001  0.1250000E+03  0.7546771E-02  0.1235069E+00
         21   -1    0    0  502  501  0.00000000000E+00  0.00000000000E+00  0.26828826772E+03  0.26828826772E+03  0.00000000000E+00 0.  1.
         21   -1    0    0  501  502 -0.00000000000E+00 -0.00000000000E+00 -0.14559898699E+02  0.14559898699E+02  0.00000000000E+00 0.  1.
         25    1    1    2    0    0  0.00000000000E+00  0.00000000000E+00  0.25372836902E+03  0.28284816641E+03  0.12500000000E+03 0.  0.
<mgrwt>
<rscale>  2 0.12500000E+03</rscale>
<asrwt>0</asrwt>
<pdfrwt beam="1">  1       21 0.41275115E-01 0.12500000E+03</pdfrwt>
<pdfrwt beam="2">  1       21 0.22399846E-02 0.12500000E+03</pdfrwt>
<totfact> 0.56912378E+06</totfact>
</mgrwt>
</event>
<event>
 3    0  0.1719113E+001  0.1250000E+03  0.7546771E-02  0.1235069E+00
         21   -1    0    0  502  501  0.00000000000E+00  0.00000000000E+00  0.11532575518E+03  0.11532575518E+03  0.00000000000E+00 0.  1.
         21   -1    0    0  501  502 -0.00000000000E+00 -0.00000000000E+00 -0.33871445228E+02  0.33871445228E+02  0.00000000000E+00 0.  1.
         25    1    1    2    0    0  0.00000000000E+00  0.00000000000E+00  0.81454309955E+02  0.14919720041E+03  0.12500000000E+03 0.  0.
<mgrwt>
<rscale>  2 0.12500000E+03</rscale>
<asrwt>0</asrwt>
<pdfrwt beam="1">  1       21 0.17742424E-01 0.12500000E+03</pdfrwt>
<pdfrwt beam="2">  1       21 0.52109916E-02 0.12500000E+03</pdfrwt>
<totfact> 0.70860193E+06</totfact>
</mgrwt>
</event>
<event>
 3    0  0.1710534E+001  0.1250000E+03  0.7546771E-02  0.1235069E+00
         21   -1    0    0  502  501  0.00000000000E+00  0.00000000000E+00  0.46107235860E+02  0.46107235860E+02  0.00000000000E+00 0. -1.
         21   -1    0    0  501  502 -0.00000000000E+00 -0.00000000000E+00 -0.84720975508E+02  0.84720975508E+02  0.00000000000E+00 0. -1.
         25    1    1    2    0    0  0.00000000000E+00  0.00000000000E+00 -0.38613739648E+02  0.13082821137E+03  0.12500000000E+03 0.  0.
<mgrwt>
<rscale>  2 0.12500000E+03</rscale>
<asrwt>0</asrwt>
<pdfrwt beam="1">  1       21 0.70934209E-02 0.12500000E+03</pdfrwt>
<pdfrwt beam="2">  1       21 0.13033996E-01 0.12500000E+03</pdfrwt>
<totfact> 0.73253831E+06</totfact>
</mgrwt>
</event>
<event>
 3    0  0.1608109E+001  0.1250000E+03  0.7546771E-02  0.1235069E+00
         21   -1    0    0  502  501  0.00000000000E+00  0.00000000000E+00  0.15095308292E+02  0.15095308292E+02  0.00000000000E+00 0. -1.
         21   -1    0    0  501  502 -0.00000000000E+00 -0.00000000000E+00 -0.25877245595E+03  0.25877245595E+03  0.00000000000E+00 0. -1.
         25    1    1    2    0    0  0.00000000000E+00  0.00000000000E+00 -0.24367714766E+03  0.27386776424E+03  0.12500000000E+03 0.  0.
<mgrwt>
<rscale>  2 0.12500000E+03</rscale>
<asrwt>0</asrwt>
<pdfrwt beam="1">  1       21 0.23223551E-02 0.12500000E+03</pdfrwt>
<pdfrwt beam="2">  1       21 0.39811147E-01 0.12500000E+03</pdfrwt>
<totfact> 0.57700272E+06</totfact>
</mgrwt>
</event>
<event>
 3    0  0.1368989E+001  0.1250000E+03  0.7546771E-02  0.1235069E+00
         21   -1    0    0  502  501  0.00000000000E+00  0.00000000000E+00  0.48072943245E+01  0.48072943245E+01  0.00000000000E+00 0.  1.
         21   -1    0    0  501  502 -0.00000000000E+00 -0.00000000000E+00 -0.81256726473E+03  0.81256726473E+03  0.00000000000E+00 0.  1.
         25    1    1    2    0    0  0.00000000000E+00  0.00000000000E+00 -0.80775997041E+03  0.81737455906E+03  0.12500000000E+03 0.  0.
<mgrwt>
<rscale>  2 0.12500000E+03</rscale>
<asrwt>0</asrwt>
<pdfrwt beam="1">  1       21 0.73958450E-03 0.12500000E+03</pdfrwt>
<pdfrwt beam="2">  1       21 0.12501022E+00 0.12500000E+03</pdfrwt>
<totfact> 0.28795214E+06</totfact>
</mgrwt>
</event>
<event>
 3    0  0.1517185E+001  0.1250000E+03  0.7546771E-02  0.1235069E+00
         21   -1    0    0  502  501  0.00000000000E+00  0.00000000000E+00  0.99054170671E+01  0.99054170671E+01  0.00000000000E+00 0. -1.
         21   -1    0    0  501  502 -0.00000000000E+00 -0.00000000000E+00 -0.39435492454E+03  0.39435492454E+03  0.00000000000E+00 0. -1.
         25    1    1    2    0    0  0.00000000000E+00  0.00000000000E+00 -0.38444950747E+03  0.40426034161E+03  0.12500000000E+03 0.  0.
<mgrwt>
<rscale>  2 0.12500000E+03</rscale>
<asrwt>0</asrwt>
<pdfrwt beam="1">  1       21 0.15239103E-02 0.12500000E+03</pdfrwt>
<pdfrwt beam="2">  1       21 0.60669987E-01 0.12500000E+03</pdfrwt>
<totfact> 0.47760045E+06</totfact>
</mgrwt>
</event>
<event>
 3    0  0.1368989E+001  0.1250000E+03  0.7546771E-02  0.1235069E+00
         21   -1    0    0  502  501  0.00000000000E+00  0.00000000000E+00  0.25571314446E+01  0.25571314446E+01  0.00000000000E+00 0. -1.
         21   -1    0    0  501  502 -0.00000000000E+00 -0.00000000000E+00 -0.15275906165E+04  0.15275906165E+04  0.00000000000E+00 0. -1.
         25    1    1    2    0    0  0.00000000000E+00  0.00000000000E+00 -0.15250334851E+04  0.15301477480E+04  0.12500000000E+03 0.  0.
<mgrwt>
<rscale>  2 0.12500000E+03</rscale>
<asrwt>0</asrwt>
<pdfrwt beam="1">  1       21 0.39340529E-03 0.12500000E+03</pdfrwt>
<pdfrwt beam="2">  1       21 0.23501367E+00 0.12500000E+03</pdfrwt>
<totfact> 0.13551642E+06</totfact>
</mgrwt>
</event>
<event>
 3    0  0.1705080E+001  0.1250000E+03  0.7546771E-02  0.1235069E+00
         21   -1    0    0  502  501  0.00000000000E+00  0.00000000000E+00  0.97419811719E+02  0.97419811719E+02  0.00000000000E+00 0. -1.
         21   -1    0    0  501  502 -0.00000000000E+00 -0.00000000000E+00 -0.40097080163E+02  0.40097080163E+02  0.00000000000E+00 0. -1.
         25    1    1    2    0    0  0.00000000000E+00  0.00000000000E+00  0.57322731556E+02  0.13751689188E+03  0.12500000000E+03 0.  0.
<mgrwt>
<rscale>  2 0.12500000E+03</rscale>
<asrwt>0</asrwt>
<pdfrwt beam="1">  1       21 0.14987663E-01 0.12500000E+03</pdfrwt>
<pdfrwt beam="2">  1       21 0.61687816E-02 0.12500000E+03</pdfrwt>
<totfact> 0.72364902E+06</totfact>
</mgrwt>
</event>
<event>
 3    0  0.1368989E+001  0.1250000E+03  0.7546771E-02  0.1235069E+00
         21   -1    0    0  502  501  0.00000000000E+00  0.00000000000E+00  0.94694349452E+03  0.94694349452E+03  0.00000000000E+00 0.  1.
         21   -1    0    0  501  502 -0.00000000000E+00 -0.00000000000E+00 -0.41251141410E+01  0.41251141410E+01  0.00000000000E+00 0.  1.
         25    1    1    2    0    0  0.00000000000E+00  0.00000000000E+00  0.94281838038E+03  0.95106860866E+03  0.12500000000E+03 0.  0.
<mgrwt>
<rscale>  2 0.12500000E+03</rscale>
<asrwt>0</asrwt>
<pdfrwt beam="1">  1       21 0.14568344E+00 0.12500000E+03</pdfrwt>
<pdfrwt beam="2">  1       21 0.63463370E-03 0.12500000E+03</pdfrwt>
<totfact> 0.24882845E+06</totfact>
</mgrwt>
</event>
<event>
 3    0  0.1690783E+001  0.1250000E+03  0.7546771E-02  0.1235069E+00
         21   -1    0    0  502  501  0.00000000000E+00  0.00000000000E+00  0.31355924731E+02  0.31355924731E+02  0.00000000000E+00 0. -1.
         21   -1    0    0  501  502 -0.00000000000E+00 -0.00000000000E+00 -0.12457773239E+03  0.12457773239E+03  0.00000000000E+00 0. -1.
         25    1    1    2    0    0  0.00000000000E+00  0.00000000000E+00 -0.93221807662E+02  0.15593365712E+03  0.12500000000E+03 0.  0.
<mgrwt>
<rscale>  2 0.12500000E+03</rscale>
<asrwt>0</asrwt>
<pdfrwt beam="1">  1       21 0.48239884E-02 0.12500000E+03</pdfrwt>
<pdfrwt beam="2">  1       21 0.19165805E-01 0.12500000E+03</pdfrwt>
<totfact> 0.70019803E+06</totfact>
</mgrwt>
</event>
<event>
 3    0  0.1715427E+001  0.1250000E+03  0.7546771E-02  0.1235069E+00
         21   -1    0    0  502  501  0.00000000000E+00  0.00000000000E+00  0.65731082188E+02  0.65731082188E+02  0.00000000000E+00 0. -1.
         21   -1    0    0  501  502 -0.00000000000E+00 -0.00000000000E+00 -0.59427745139E+02  0.59427745139E+02  0.00000000000E+00 0. -1.
         25    1    1    2    0    0  0.00000000000E+00  0.00000000000E+00  0.63033370490E+01  0.12515882733E+03  0.12500000000E+03 0.  0.
<mgrwt>
<rscale>  2 0.12500000E+03</rscale>
<asrwt>0</asrwt>
<pdfrwt beam="1">  1       21 0.10112474E-01 0.12500000E+03</pdfrwt>
<pdfrwt beam="2">  1       21 0.91427300E-02 0.12500000E+03</pdfrwt>
<totfact> 0.74022131E+06</totfact>
</mgrwt>
</event>
<event>
 3    0  0.1621277E+001  0.1250000E+03  0.7546771E-02  0.1235069E+00
         21   -1    0    0  502  501  0.00000000000E+00  0.00000000000E+00  0.26277918296E+03  0.26277918296E+03  0.00000000000E+00 0.  1.
         21   -1    0    0  501  502 -0.00000000000E+00 -0.00000000000E+00 -0.14865142497E+02  0.14865142497E+02  0.00000000000E+00 0.  1.
         25    1    1    2    0    0  0.00000000000E+00  0.00000000000E+00  0.24791404046E+03  0.27764432546E+03  0.12500000000E+03 0.  0.
<mgrwt>
<rscale>  2 0.12500000E+03</rscale>
<asrwt>0</asrwt>
<pdfrwt beam="1">  1       21 0.40427563E-01 0.12500000E+03</pdfrwt>
<pdfrwt beam="2">  1       21 0.22869452E-02 0.12500000E+03</pdfrwt>
<totfact> 0.57366742E+06</totfact>
</mgrwt>
</event>
<event>
 3    0  0.1675848E+001  0.1250000E+03  0.7546771E-02  0.1235069E+00
         21   -1    0    0  502  501  0.00000000000E+00  0.00000000000E+00  0.19818892556E+03  0.19818892556E+03  0.00000000000E+00 0.  1.
         21   -1    0    0  501  502 -0.00000000000E+00 -0.00000000000E+00 -0.19709728932E+02  0.19709728932E+02  0.00000000000E+00 0.  1.
         25    1    1    2    0    0  0.00000000000E+00  0.00000000000E+00  0.17847919662E+03  0.21789865449E+03  0.12500000000E+03 0.  0.
<mgrwt>
<rscale>  2 0.12500000E+03</rscale>
<asrwt>0</asrwt>
<pdfrwt beam="1">  1       21 0.30490603E-01 0.12500000E+03</pdfrwt>
<pdfrwt beam="2">  1       21 0.30322661E-02 0.12500000E+03</pdfrwt>
<totfact> 0.63037969E+06</totfact>
</mgrwt>
</event>
<event>
 3    0  0.1495218E+001  0.1250000E+03  0.7546771E-02  0.1235069E+00
         21   -1    0    0  502  501  0.00000000000E+00  0.00000000000E+00  0.42501965507E+03  0.42501965507E+03  0.00000000000E+00 0. -1.
         21   -1    0    0  501  502 -0.00000000000E+00 -0.00000000000E+00 -0.91907514238E+01  0.91907514238E+01  0.00000000000E+00 0. -1.
         25    1    1    2    0    0  0.00000000000E+00  0.00000000000E+00  0.41582890365E+03  0.43421040650E+03  0.12500000000E+03 0.  0.
<mgrwt>
<rscale>  2 0.12500000E+03</rscale>
<asrwt>0</asrwt>
<pdfrwt beam="1">  1       21 0.65387624E-01 0.12500000E+03</pdfrwt>
<pdfrwt beam="2">  1       21 0.14139621E-02 0.12500000E+03</pdfrwt>
<totfact> 0.45852016E+06</totfact>
</mgrwt>
</event>
<event>
 3    0  0.1442296E+001  0.1250000E+03  0.7546771E-02  0.1235069E+00
         21   -1    0    0  502  501  0.00000000000E+00  0.00000000000E+00  0.53894599233E+03  0.53894599233E+03  0.00000000000E+00 0. -1.
         21   -1    0    0  501  502 -0.00000000000E+00 -0.00000000000E+00 -0.72479433108E+01  0.72479433108E+01  0.00000000000E+00 0. -1.
         25    1    1    2    0    0  0.00000000000E+00  0.00000000000E+00  0.53169804902E+03  0.54619393564E+03  0.12500000000E+03 0.  0.
<mgrwt>
<rscale>  2 0.12500000E+03</rscale>
<asrwt>0</asrwt>
<pdfrwt beam="1">  1       21 0.82914736E-01 0.12500000E+03</pdfrwt>
<pdfrwt beam="2">  1       21 0.11150686E-02 0.12500000E+03</pdfrwt>
<totfact> 0.39644796E+06</totfact>
</mgrwt>
</event>
<event>
 3    0  0.1548413E+001  0.1250000E+03  0.7546771E-02  0.1235069E+00
         21   -1    0    0  502  501  0.00000000000E+00  0.00000000000E+00  0.37246280981E+03  0.37246280981E+03  0.00000000000E+00 0.  1.
         21   -1    0    0  501  502 -0.00000000000E+00 -0.00000000000E+00 -0.10487624260E+02  0.10487624260E+02  0.00000000000E+00 0.  1.
         25    1    1    2    0    0  0.00000000000E+00  0.00000000000E+00  0.36197518555E+03  0.38295043407E+03  0.12500000000E+03 0.  0.
<mgrwt>
<rscale>  2 0.12500000E+03</rscale>
<asrwt>0</asrwt>
<pdfrwt beam="1">  1       21 0.57301961E-01 0.12500000E+03</pdfrwt>
<pdfrwt beam="2">  1       21 0.16134809E-02 0.12500000E+03</pdfrwt>
<totfact> 0.49193181E+06</totfact>
</mgrwt>
</event>
<event>
 3    0  0.1368989E+001  0.1250000E+03  0.7546771E-02  0.1235069E+00
         21   -1    0    0  502  501  0.00000000000E+00  0.00000000000E+00  0.19879006296E+01  0.19879006296E+01  0.00000000000E+00 0.  1.
         21   -1    0    0  501  502 -0.00000000000E+00 -0.00000000000E+00 -0.19650127083E+04  0.19650127083E+04  0.00000000000E+00 0.  1.
         25    1    1    2    0    0  0.00000000000E+00  0.00000000000E+00 -0.19630248077E+04  0.19670006090E+04  0.12500000000E+03 0.  0.
<mgrwt>
<rscale>  2 0.12500000E+03</rscale>
<asrwt>0</asrwt>
<pdfrwt beam="1">  1       21 0.30583152E-03 0.12500000E+03</pdfrwt>
<pdfrwt beam="2">  1       21 0.30230900E+00 0.12500000E+03</pdfrwt>
<totfact> 0.82743939E+05</totfact>
</mgrwt>
</event>
<event>
 3    0  0.1715838E+001  0.1250000E+03  0.7546771E-02  0.1235069E+00
         21   -1    0    0  502  501  0.00000000000E+00  0.00000000000E+00  0.59862239231E+02  0.59862239231E+02  0.00000000000E+00 0. -1.
         21   -1    0    0  501  502 -0.00000000000E+00 -0.00000000000E+00 -0.65253990666E+02  0.65253990666E+02  0.00000000000E+00 0. -1.
         25    1    1    2    0    0  0.00000000000E+00  0.00000000000E+00 -0.53917514355E+01  0.12511622990E+03  0.12500000000E+03 0.  0.
<mgrwt>
<rscale>  2 0.12500000E+03</rscale>
<asrwt>0</asrwt>
<pdfrwt beam="1">  1       21 0.92095752E-02 0.12500000E+03</pdfrwt>
<pdfrwt beam="2">  1       21 0.10039076E-01 0.12500000E+03</pdfrwt>
<totfact> 0.74027884E+06</totfact>
</mgrwt>
</event>
<event>
 3    0  0.1706125E+001  0.1250000E+03  0.7546771E-02  0.1235069E+00
         21   -1    0    0  502  501  0.00000000000E+00  0.00000000000E+00  0.96842528629E+02  0.96842528629E+02  0.00000000000E+00 0. -1.
         21   -1    0    0  501  502 -0.00000000000E+00 -0.00000000000E+00 -0.40336100836E+02  0.40336100836E+02  0.00000000000E+00 0. -1.
         25    1    1    2    0    0  0.00000000000E+00  0.00000000000E+00  0.56506427793E+02  0.13717862947E+03  0.12500000000E+03 0.  0.
<mgrwt>
<rscale>  2 0.12500000E+03</rscale>
<asrwt>0</asrwt>
<pdfrwt beam="1">  1       21 0.14898850E-01 0.12500000E+03</pdfrwt>
<pdfrwt beam="2">  1       21 0.62055540E-02 0.12500000E+03</pdfrwt>
<totfact> 0.72409272E+06</totfact>
</mgrwt>
</event>
<event>
 3    0  0.1711490E+001  0.1250000E+03  0.7546771E-02  0.1235069E+00
         21   -1    0    0  502  501  0.00000000000E+00  0.00000000000E+00  0.29581014440E+02  0.29581014440E+02  0.00000000000E+00 0.  1.
         21   -1    0    0  501  502 -0.00000000000E+00 -0.00000000000E+00 -0.13205260448E+03  0.13205260448E+03  0.00000000000E+00 0.  1.
         25    1    1    2    0    0  0.00000000000E+00  0.00000000000E+00 -0.10247159004E+03  0.16163361892E+03  0.12500000000E+03 0.  0.
<mgrwt>
<rscale>  2 0.12500000E+03</rscale>
<asrwt>0</asrwt>
<pdfrwt beam="1">  1       21 0.45509251E-02 0.12500000E+03</pdfrwt>
<pdfrwt beam="2">  1       21 0.20315786E-01 0.12500000E+03</pdfrwt>
<totfact> 0.69320434E+06</totfact>
</mgrwt>
</event>
<event>
 3    0  0.1621366E+001  0.1250000E+03  0.7546771E-02  0.1235069E+00
         21   -1    0    0  502  501  0.00000000000E+00  0.00000000000E+00  0.24985787436E+03  0.24985787436E+03  0.00000000000E+00 0.  1.
         21   -1    0    0  501  502 -0.00000000000E+00 -0.00000000000E+00 -0.15633887905E+02  0.15633887905E+02  0.00000000000E+00 0.  1.
         25    1    1    2    0    0  0.00000000000E+00  0.00000000000E+00  0.23422398646E+03  0.26549176227E+03  0.12500000000E+03 0.  0.
<mgrwt>
<rscale>  2 0.12500000E+03</rscale>
<asrwt>0</asrwt>
<pdfrwt beam="1">  1       21 0.38439670E-01 0.12500000E+03</pdfrwt>
<pdfrwt beam="2">  1       21 0.24052137E-02 0.12500000E+03</pdfrwt>
<totfact> 0.58449552E+06</totfact>
</mgrwt>
</event>
<event>
 3    0  0.1715700E+001  0.1250000E+03  0.7546771E-02  0.1235069E+00
         21   -1    0    0  502  501  0.00000000000E+00  0.00000000000E+00  0.63904937487E+02  0.63904937487E+02  0.00000000000E+00 0. -1.
         21   -1    0    0  501  502 -0.00000000000E+00 -0.00000000000E+00 -0.61125949787E+02  0.61125949787E+02  0.00000000000E+00 0. -1.
         25    1    1    2    0    0  0.00000000000E+00  0.00000000000E+00  0.27789877001E+01  0.12503088727E+03  0.12500000000E+03 0.  0.
<mgrwt>
<rscale>  2 0.12500000E+03</rscale>
<asrwt>0</asrwt>
<pdfrwt beam="1">  1       21 0.98315289E-02 0.12500000E+03</pdfrwt>
<pdfrwt beam="2">  1       21 0.94039923E-02 0.12500000E+03</pdfrwt>
<totfact> 0.74039410E+06</totfact>
</mgrwt>
</event>
<event>
 3    0  0.1715336E+001  0.1250000E+03  0.7546771E-02  0.1235069E+00
         21   -1    0    0  502  501  0.00000000000E+00  0.00000000000E+00  0.57478391053E+02  0.57478391053E+02  0.00000000000E+00 0. -1.
         21   -1    0    0  501  502 -0.00000000000E+00 -0.00000000000E+00 -0.67960322627E+02  0.67960322627E+02  0.00000000000E+00 0. -1.
         25    1    1    2    0    0  0.00000000000E+00  0.00000000000E+00 -0.10481931574E+02  0.12543871368E+03  0.12500000000E+03 0.  0.
<mgrwt>
<rscale>  2 0.12500000E+03</rscale>
<asrwt>0</asrwt>
<pdfrwt beam="1">  1       21 0.88428295E-02 0.12500000E+03</pdfrwt>
<pdfrwt beam="2">  1       21 0.10455434E-01 0.12500000E+03</pdfrwt>
<totfact> 0.73983978E+06</totfact>
</mgrwt>
</event>
<event>
 3    0  0.1641582E+001  0.1250000E+03  0.7546771E-02  0.1235069E+00
         21   -1    0    0  502  501  0.00000000000E+00  0.00000000000E+00  0.17007170676E+02  0.17007170676E+02  0.00000000000E+00 0.  1.
         21   -1    0    0  501  502 -0.00000000000E+00 -0.00000000000E+00 -0.22968253064E+03  0.22968253064E+03  0.00000000000E+00 0.  1.
         25    1    1    2    0    0  0.00000000000E+00  0.00000000000E+00 -0.21267535996E+03  0.24668970132E+03  0.12500000000E+03 0.  0.
<mgrwt>
<rscale>  2 0.12500000E+03</rscale>
<asrwt>0</asrwt>
<pdfrwt beam="1">  1       21 0.26164879E-02 0.12500000E+03</pdfrwt>
<pdfrwt beam="2">  1       21 0.35335773E-01 0.12500000E+03</pdfrwt>
<totfact> 0.60191257E+06</totfact>
</mgrwt>
</event>
<event>
 3    0  0.1735645E+001  0.1250000E+03  0.7546771E-02  0.1235069E+00
         21   -1    0    0  502  501  0.00000000000E+00  0.00000000000E+00  0.89242716626E+02  0.89242716626E+02  0.00000000000E+00 0.  1.
         21   -1    0    0  501  502 -0.00000000000E+00 -0.00000000000E+00 -0.43771079004E+02  0.43771079004E+02  0.00000000000E+00 0.  1.
         25    1    1    2    0    0  0.00000000000E+00  0.00000000000E+00  0.45471637622E+02  0.13301379563E+03  0.12500000000E+03 0.  0.
<mgrwt>
<rscale>  2 0.12500000E+03</rscale>
<asrwt>0</asrwt>
<pdfrwt beam="1">  1       21 0.13729649E-01 0.12500000E+03</pdfrwt>
<pdfrwt beam="2">  1       21 0.67340122E-02 0.12500000E+03</pdfrwt>
<totfact> 0.72960556E+06</totfact>
</mgrwt>
</event>
<event>
 3    0  0.1645809E+001  0.1250000E+03  0.7546771E-02  0.1235069E+00
         21   -1    0    0  502  501  0.00000000000E+00  0.00000000000E+00  0.17138418034E+02  0.17138418034E+02  0.00000000000E+00 0.  1.
         21   -1    0    0  501  502 -0.00000000000E+00 -0.00000000000E+00 -0.22792360370E+03  0.22792360370E+03  0.00000000000E+00 0.  1.
         25    1    1    2    0    0  0.00000000000E+00  0.00000000000E+00 -0.21078518566E+03  0.24506202173E+03  0.12500000000E+03 0.  0.
<mgrwt>
<rscale>  2 0.12500000E+03</rscale>
<asrwt>0</asrwt>
<pdfrwt beam="1">  1       21 0.26366799E-02 0.12500000E+03</pdfrwt>
<pdfrwt beam="2">  1       21 0.35065167E-01 0.12500000E+03</pdfrwt>
<totfact> 0.60346234E+06</totfact>
</mgrwt>
</event>
<event>
 3    0  0.1699107E+001  0.1250000E+03  0.7546771E-02  0.1235069E+00
         21   -1    0    0  502  501  0.00000000000E+00  0.00000000000E+00  0.33226823330E+02  0.33226823330E+02  0.00000000000E+00 0. -1.
         21   -1    0    0  501  502 -0.00000000000E+00 -0.00000000000E+00 -0.11756314954E+03  0.11756314954E+03  0.00000000000E+00 0. -1.
         25    1    1    2    0    0  0.00000000000E+00  0.00000000000E+00 -0.84336326213E+02  0.15078997287E+03  0.12500000000E+03 0.  0.
<mgrwt>
<rscale>  2 0.12500000E+03</rscale>
<asrwt>0</asrwt>
<pdfrwt beam="1">  1       21 0.51118189E-02 0.12500000E+03</pdfrwt>
<pdfrwt beam="2">  1       21 0.18086639E-01 0.12500000E+03</pdfrwt>
<totfact> 0.70660107E+06</totfact>
</mgrwt>
</event>
<event>
 3    0  0.1552231E+001  0.1250000E+03  0.7546771E-02  0.1235069E+00
         21   -1    0    0  502  501  0.00000000000E+00  0.00000000000E+00  0.32587014002E+03  0.32587014002E+03  0.00000000000E+00 0. -1.
         21   -1    0    0  501  502 -0.00000000000E+00 -0.00000000000E+00 -0.11987136961E+02  0.11987136961E+02  0.00000000000E+00 0. -1.
         25    1    1    2    0    0  0.00000000000E+00  0.00000000000E+00  0.31388300305E+03  0.33785727698E+03  0.12500000000E+03 0.  0.
<mgrwt>
<rscale>  2 0.12500000E+03</rscale>
<asrwt>0</asrwt>
<pdfrwt beam="1">  1       21 0.50133861E-01 0.12500000E+03</pdfrwt>
<pdfrwt beam="2">  1       21 0.18441752E-02 0.12500000E+03</pdfrwt>
<totfact> 0.52447906E+06</totfact>
</mgrwt>
</event>
<event>
 3    0  0.1598142E+001  0.1250000E+03  0.7546771E-02  0.1235069E+00
         21   -1    0    0  502  501  0.00000000000E+00  0.00000000000E+00  0.14848720240E+02  0.14848720240E+02  0.00000000000E+00 0. -1.
         21   -1    0    0  501  502 -0.00000000000E+00 -0.00000000000E+00 -0.26306980917E+03  0.26306980917E+03  0.00000000000E+00 0. -1.
         25    1    1    2    0    0  0.00000000000E+00  0.00000000000E+00 -0.24822108893E+03  0.27791852941E+03  0.12500000000E+03 0.  0.
<mgrwt>
<rscale>  2 0.12500000E+03</rscale>
<asrwt>0</asrwt>
<pdfrwt beam="1">  1       21 0.22844185E-02 0.12500000E+03</pdfrwt>
<pdfrwt beam="2">  1       21 0.40472279E-01 0.12500000E+03</pdfrwt>
<totfact> 0.57342648E+06</totfact>
</mgrwt>
</event>
<event>
 3    0  0.1368989E+001  0.1250000E+03  0.7546771E-02  0.1235069E+00
         21   -1    0    0  502  501  0.00000000000E+00  0.00000000000E+00  0.15890049058E+01  0.15890049058E+01  0.00000000000E+00 0.  1.
         21   -1    0    0  501  502 -0.00000000000E+00 -0.00000000000E+00 -0.24582995217E+04  0.24582995217E+04  0.00000000000E+00 0.  1.
         25    1    1    2    0    0  0.00000000000E+00  0.00000000000E+00 -0.24567105168E+04  0.24598885267E+04  0.12500000000E+03 0.  0.
<mgrwt>
<rscale>  2 0.12500000E+03</rscale>
<asrwt>0</asrwt>
<pdfrwt beam="1">  1       21 0.24446053E-03 0.12500000E+03</pdfrwt>
<pdfrwt beam="2">  1       21 0.37820266E+00 0.12500000E+03</pdfrwt>
<totfact> 0.42715739E+05</totfact>
</mgrwt>
</event>
<event>
 3    0  0.1486971E+001  0.1250000E+03  0.7546771E-02  0.1235069E+00
         21   -1    0    0  502  501  0.00000000000E+00  0.00000000000E+00  0.42922263783E+03  0.42922263783E+03  0.00000000000E+00 0. -1.
         21   -1    0    0  501  502 -0.00000000000E+00 -0.00000000000E+00 -0.91007548431E+01  0.91007548431E+01  0.00000000000E+00 0. -1.
         25    1    1    2    0    0  0.00000000000E+00  0.00000000000E+00  0.42012188299E+03  0.43832339267E+03  0.12500000000E+03 0.  0.
<mgrwt>
<rscale>  2 0.12500000E+03</rscale>
<asrwt>0</asrwt>
<pdfrwt beam="1">  1       21 0.66034236E-01 0.12500000E+03</pdfrwt>
<pdfrwt beam="2">  1       21 0.14001165E-02 0.12500000E+03</pdfrwt>
<totfact> 0.45599114E+06</totfact>
</mgrwt>
</event>
<event>
 3    0  0.1587502E+001  0.1250000E+03  0.7546771E-02  0.1235069E+00
         21   -1    0    0  502  501  0.00000000000E+00  0.00000000000E+00  0.27660681642E+03  0.27660681642E+03  0.00000000000E+00 0. -1.
         21   -1    0    0  501  502 -0.00000000000E+00 -0.00000000000E+00 -0.14122030869E+02  0.14122030869E+02  0.00000000000E+00 0. -1.
         25    1    1    2    0    0  0.00000000000E+00  0.00000000000E+00  0.26248478555E+03  0.29072884729E+03  0.12500000000E+03 0.  0.
<mgrwt>
<rscale>  2 0.12500000E+03</rscale>
<asrwt>0</asrwt>
<pdfrwt beam="1">  1       21 0.42554891E-01 0.12500000E+03</pdfrwt>
<pdfrwt beam="2">  1       21 0.21726203E-02 0.12500000E+03</pdfrwt>
<totfact> 0.56235554E+06</totfact>
</mgrwt>
</event>
<event>
 3    0  0.1368989E+001  0.1250000E+03  0.7546771E-02  0.1235069E+00
         21   -1    0    0  502  501  0.00000000000E+00  0.00000000000E+00  0.13883989809E+04  0.13883989809E+04  0.00000000000E+00 0.  1.
         21   -1    0    0  501  502 -0.00000000000E+00 -0.00000000000E+00 -0.28134924136E+01  0.28134924136E+01  0.00000000000E+00 0.  1.
         25    1    1    2    0    0  0.00000000000E+00  0.00000000000E+00  0.13855854885E+04  0.13912124734E+04  0.12500000000E+03 0.  0.
<mgrwt>
<rscale>  2 0.12500000E+03</rscale>
<asrwt>0</asrwt>
<pdfrwt beam="1">  1       21 0.21359930E+00 0.12500000E+03</pdfrwt>
<pdfrwt beam="2">  1       21 0.43284610E-03 0.12500000E+03</pdfrwt>
<totfact> 0.15688478E+06</totfact>
</mgrwt>
</event>
<event>
 3    0  0.1611519E+001  0.1250000E+03  0.7546771E-02  0.1235069E+00
         21   -1    0    0  502  501  0.00000000000E+00  0.00000000000E+00  0.23200484681E+03  0.23200484681E+03  0.00000000000E+00 0. -1.
         21   -1    0    0  501  502 -0.00000000000E+00 -0.00000000000E+00 -0.16836932736E+02  0.16836932736E+02  0.00000000000E+00 0. -1.
         25    1    1    2    0    0  0.00000000000E+00  0.00000000000E+00  0.21516791407E+03  0.24884177954E+03  0.12500000000E+03 0.  0.
<mgrwt>
<rscale>  2 0.12500000E+03</rscale>
<asrwt>0</asrwt>
<pdfrwt beam="1">  1       21 0.35693051E-01 0.12500000E+03</pdfrwt>
<pdfrwt beam="2">  1       21 0.25902975E-02 0.12500000E+03</pdfrwt>
<totfact> 0.59987407E+06</totfact>
</mgrwt>
</event>
<event>
 3    0  0.1740583E+001  0.1250000E+03  0.7546771E-02  0.1235069E+00
         21   -1    0    0  502  501  0.00000000000E+00  0.00000000000E+00  0.62518635177E+02  0.62518635177E+02  0.00000000000E+00 0.  1.
         21   -1    0    0  501  502 -0.00000000000E+00 -0.00000000000E+00 -0.62481370377E+02  0.62481370377E+02  0.00000000000E+00 0.  1.
         25    1    1    2    0    0  0.00000000000E+00  0.00000000000E+00  0.37264800283E-01  0.12500000555E+03  0.12500000000E+03 0.  0.
<mgrwt>
<rscale>  2 0.12500000E+03</rscale>
<asrwt>0</asrwt>
<pdfrwt beam="1">  1       21 0.96182515E-02 0.12500000E+03</pdfrwt>
<pdfrwt beam="2">  1       21 0.96125186E-02 0.12500000E+03</pdfrwt>
<totfact> 0.74043581E+06</totfact>
</mgrwt>
</event>
<event>
 3    0  0.1721843E+001  0.1250000E+03  0.7546771E-02  0.1235069E+00
         21   -1    0    0  502  501  0.00000000000E+00  0.00000000000E+00  0.37540912656E+02  0.37540912656E+02  0.00000000000E+00 0.  1.
         21   -1    0    0  501  502 -0.00000000000E+00 -0.00000000000E+00 -0.10405314425E+03  0.10405314425E+03  0.00000000000E+00 0.  1.
         25    1    1    2    0    0  0.00000000000E+00  0.00000000000E+00 -0.66512231597E+02  0.14159405691E+03  0.12500000000E+03 0.  0.
<mgrwt>
<rscale>  2 0.12500000E+03</rscale>
<asrwt>0</asrwt>
<pdfrwt beam="1">  1       21 0.57755250E-02 0.12500000E+03</pdfrwt>
<pdfrwt beam="2">  1       21 0.16008176E-01 0.12500000E+03</pdfrwt>
<totfact> 0.71831885E+06</totfact>
</mgrwt>
</event>
<event>
 3    0  0.1668418E+001  0.1250000E+03  0.7546771E-02  0.1235069E+00
         21   -1    0    0  502  501  0.00000000000E+00  0.00000000000E+00  0.24717623762E+02  0.24717623762E+02  0.00000000000E+00 0. -1.
         21   -1    0    0  501  502 -0.00000000000E+00 -0.00000000000E+00 -0.15803501330E+03  0.15803501330E+03  0.00000000000E+00 0. -1.
         25    1    1    2    0    0  0.00000000000E+00  0.00000000000E+00 -0.13331738954E+03  0.18275263706E+03  0.12500000000E+03 0.  0.
<mgrwt>
<rscale>  2 0.12500000E+03</rscale>
<asrwt>0</asrwt>
<pdfrwt beam="1">  1       21 0.38027115E-02 0.12500000E+03</pdfrwt>
<pdfrwt beam="2">  1       21 0.24313078E-01 0.12500000E+03</pdfrwt>
<totfact> 0.66837158E+06</totfact>
</mgrwt>
</event>
<event>
 3    0  0.1578945E+001  0.1250000E+03  0.7546771E-02  0.1235069E+00
         21   -1    0    0  502  501  0.00000000000E+00  0.00000000000E+00  0.12071076061E+02  0.12071076061E+02  0.00000000000E+00 0.  1.
         21   -1    0    0  501  502 -0.00000000000E+00 -0.00000000000E+00 -0.32360412445E+03  0.32360412445E+03  0.00000000000E+00 0.  1.
         25    1    1    2    0    0  0.00000000000E+00  0.00000000000E+00 -0.31153304839E+03  0.33567520051E+03  0.12500000000E+03 0.  0.
<mgrwt>
<rscale>  2 0.12500000E+03</rscale>
<asrwt>0</asrwt>
<pdfrwt beam="1">  1       21 0.18570888E-02 0.12500000E+03</pdfrwt>
<pdfrwt beam="2">  1       21 0.49785245E-01 0.12500000E+03</pdfrwt>
<totfact> 0.52614081E+06</totfact>
</mgrwt>
</event>
<event>
 3    0  0.1704322E+001  0.1250000E+03  0.7546771E-02  0.1235069E+00
         21   -1    0    0  502  501  0.00000000000E+00  0.00000000000E+00  0.40070788091E+02  0.40070788091E+02  0.00000000000E+00 0. -1.
         21   -1    0    0  501  502 -0.00000000000E+00 -0.00000000000E+00 -0.97483732817E+02  0.97483732817E+02  0.00000000000E+00 0. -1.
         25    1    1    2    0    0  0.00000000000E+00  0.00000000000E+00 -0.57412944726E+02  0.13755452091E+03  0.12500000000E+03 0.  0.
<mgrwt>
<rscale>  2 0.12500000E+03</rscale>
<asrwt>0</asrwt>
<pdfrwt beam="1">  1       21 0.61647367E-02 0.12500000E+03</pdfrwt>
<pdfrwt beam="2">  1       21 0.14997497E-01 0.12500000E+03</pdfrwt>
<totfact> 0.72359970E+06</totfact>
</mgrwt>
</event>
<event>
 3    0  0.1576949E+001  0.1250000E+03  0.7546771E-02  0.1235069E+00
         21   -1    0    0  502  501  0.00000000000E+00  0.00000000000E+00  0.12752496596E+02  0.12752496596E+02  0.00000000000E+00 0.  1.
         21   -1    0    0  501  502 -0.00000000000E+00 -0.00000000000E+00 -0.30631256952E+03  0.30631256952E+03  0.00000000000E+00 0.  1.
         25    1    1    2    0    0  0.00000000000E+00  0.00000000000E+00 -0.29356007292E+03  0.31906506612E+03  0.12500000000E+03 0.  0.
<mgrwt>
<rscale>  2 0.12500000E+03</rscale>
<asrwt>0</asrwt>
<pdfrwt beam="1">  1       21 0.19619226E-02 0.12500000E+03</pdfrwt>
<pdfrwt beam="2">  1       21 0.47125009E-01 0.12500000E+03</pdfrwt>
<totfact> 0.53907515E+06</totfact>
</mgrwt>
</event>
<event>
 3    0  0.1368989E+001  0.1250000E+03  0.7546771E-02  0.1235069E+00
         21   -1    0    0  502  501  0.00000000000E+00  0.00000000000E+00  0.89277062967E+03  0.89277062967E+03  0.00000000000E+00 0.  1.
         21   -1    0    0  501  502 -0.00000000000E+00 -0.00000000000E+00 -0.43754239557E+01  0.43754239557E+01  0.00000000000E+00 0.  1.
         25    1    1    2    0    0  0.00000000000E+00  0.00000000000E+00  0.88839520572E+03  0.89714605363E+03  0.12500000000E+03 0.  0.
<mgrwt>
<rscale>  2 0.12500000E+03</rscale>
<asrwt>0</asrwt>
<pdfrwt beam="1">  1       21 0.13734918E+00 0.12500000E+03</pdfrwt>
<pdfrwt beam="2">  1       21 0.67314286E-03 0.12500000E+03</pdfrwt>
<totfact> 0.26381364E+06</totfact>
</mgrwt>
</event>
<event>
 3    0  0.1706391E+001  0.1250000E+03  0.7546771E-02  0.1235069E+00
         21   -1    0    0  502  501  0.00000000000E+00  0.00000000000E+00  0.30412862695E+02  0.30412862695E+02  0.00000000000E+00 0.  1.
         21   -1    0    0  501  502 -0.00000000000E+00 -0.00000000000E+00 -0.12844072060E+03  0.12844072060E+03  0.00000000000E+00 0.  1.
         25    1    1    2    0    0  0.00000000000E+00  0.00000000000E+00 -0.98027857901E+02  0.15885358329E+03  0.12500000000E+03 0.  0.
<mgrwt>
<rscale>  2 0.12500000E+03</rscale>
<asrwt>0</asrwt>
<pdfrwt beam="1">  1       21 0.46789020E-02 0.12500000E+03</pdfrwt>
<pdfrwt beam="2">  1       21 0.19760111E-01 0.12500000E+03</pdfrwt>
<totfact> 0.69659848E+06</totfact>
</mgrwt>
</event>
<event>
 3    0  0.1493650E+001  0.1250000E+03  0.7546771E-02  0.1235069E+00
         21   -1    0    0  502  501  0.00000000000E+00  0.00000000000E+00  0.89398899480E+01  0.89398899480E+01  0.00000000000E+00 0.  1.
         21   -1    0    0  501  502 -0.00000000000E+00 -0.00000000000E+00 -0.43694609472E+03  0.43694609472E+03  0.00000000000E+00 0.  1.
         25    1    1    2    0    0  0.00000000000E+00  0.00000000000E+00 -0.42800620477E+03  0.44588598467E+03  0.12500000000E+03 0.  0.
<mgrwt>
<rscale>  2 0.12500000E+03</rscale>
<asrwt>0</asrwt>
<pdfrwt beam="1">  1       21 0.13753677E-02 0.12500000E+03</pdfrwt>
<pdfrwt beam="2">  1       21 0.67222474E-01 0.12500000E+03</pdfrwt>
<totfact> 0.45139470E+06</totfact>
</mgrwt>
</event>
<event>
 3    0  0.1697225E+001  0.1250000E+03  0.7546771E-02  0.1235069E+00
         21   -1    0    0  502  501  0.00000000000E+00  0.00000000000E+00  0.10726158179E+03  0.10726158179E+03  0.00000000000E+00 0. -1.
         21   -1    0    0  501  502 -0.00000000000E+00 -0.00000000000E+00 -0.36417978690E+02  0.36417978690E+02  0.00000000000E+00 0. -1.
         25    1    1    2    0    0  0.00000000000E+00  0.00000000000E+00  0.70843603103E+02  0.14367956048E+03  0.12500000000E+03 0.  0.
<mgrwt>
<rscale>  2 0.12500000E+03</rscale>
<asrwt>0</asrwt>
<pdfrwt beam="1">  1       21 0.16501782E-01 0.12500000E+03</pdfrwt>
<pdfrwt beam="2">  1       21 0.56027660E-02 0.12500000E+03</pdfrwt>
<totfact> 0.71562514E+06</totfact>
</mgrwt>
</event>
<event>
 3    0  0.1645464E+001  0.1250000E+03  0.7546771E-02  0.1235069E+00
         21   -1    0    0  502  501  0.00000000000E+00  0.00000000000E+00  0.15451029150E+02  0.15451029150E+02  0.00000000000E+00 0.  1.
         21   -1    0    0  501  502 -0.00000000000E+00 -0.00000000000E+00 -0.25281487480E+03  0.25281487480E+03  0.00000000000E+00 0.  1.
         25    1    1    2    0    0  0.00000000000E+00  0.00000000000E+00 -0.23736384565E+03  0.26826590395E+03  0.12500000000E+03 0.  0.
<mgrwt>
<rscale>  2 0.12500000E+03</rscale>
<asrwt>0</asrwt>
<pdfrwt beam="1">  1       21 0.23770815E-02 0.12500000E+03</pdfrwt>
<pdfrwt beam="2">  1       21 0.38894595E-01 0.12500000E+03</pdfrwt>
<totfact> 0.58199842E+06</totfact>
</mgrwt>
</event>
<event>
 3    0  0.1368989E+001  0.1250000E+03  0.7546771E-02  0.1235069E+00
         21   -1    0    0  502  501  0.00000000000E+00  0.00000000000E+00  0.12117224993E+04  0.12117224993E+04  0.00000000000E+00 0. -1.
         21   -1    0    0  501  502 -0.00000000000E+00 -0.00000000000E+00 -0.32237166531E+01  0.32237166531E+01  0.00000000000E+00 0. -1.
         25    1    1    2    0    0  0.00000000000E+00  0.00000000000E+00  0.12084987827E+04  0.12149462160E+04  0.12500000000E+03 0.  0.
<mgrwt>
<rscale>  2 0.12500000E+03</rscale>
<asrwt>0</asrwt>
<pdfrwt beam="1">  1       21 0.18641848E+00 0.12500000E+03</pdfrwt>
<pdfrwt beam="2">  1       21 0.49595737E-03 0.12500000E+03</pdfrwt>
<totfact> 0.18848089E+06</totfact>
</mgrwt>
</event>
<event>
 3    0  0.1644126E+001  0.1250000E+03  0.7546771E-02  0.1235069E+00
         21   -1    0    0  502  501  0.00000000000E+00  0.00000000000E+00  0.21192232567E+02  0.21192232567E+02  0.00000000000E+00 0. -1.
         21   -1    0    0  501  502 -0.00000000000E+00 -0.00000000000E+00 -0.18432460986E+03  0.18432460986E+03  0.00000000000E+00 0. -1.
         25    1    1    2    0    0  0.00000000000E+00  0.00000000000E+00 -0.16313237729E+03  0.20551684243E+03  0.12500000000E+03 0.  0.
<mgrwt>
<rscale>  2 0.12500000E+03</rscale>
<asrwt>0</asrwt>
<pdfrwt beam="1">  1       21 0.32603435E-02 0.12500000E+03</pdfrwt>
<pdfrwt beam="2">  1       21 0.28357632E-01 0.12500000E+03</pdfrwt>
<totfact> 0.64334324E+06</totfact>
</mgrwt>
</event>
<event>
 3    0  0.1681034E+001  0.1250000E+03  0.7546771E-02  0.1235069E+00
         21   -1    0    0  502  501  0.00000000000E+00  0.00000000000E+00  0.27069861223E+02  0.27069861223E+02  0.00000000000E+00 0. -1.
         21   -1    0    0  501  502 -0.00000000000E+00 -0.00000000000E+00 -0.14430254990E+03  0.14430254990E+03  0.00000000000E+00 0. -1.
         25    1    1    2    0    0  0.00000000000E+00  0.00000000000E+00 -0.11723268868E+03  0.17137241113E+03  0.12500000000E+03 0.  0.
<mgrwt>
<rscale>  2 0.12500000E+03</rscale>
<asrwt>0</asrwt>
<pdfrwt beam="1">  1       21 0.41645940E-02 0.12500000E+03</pdfrwt>
<pdfrwt beam="2">  1       21 0.22200392E-01 0.12500000E+03</pdfrwt>
<totfact> 0.68155315E+06</totfact>
</mgrwt>
</event>
<event>
 3    0  0.1524567E+001  0.1250000E+03  0.7546771E-02  0.1235069E+00
         21   -1    0    0  502  501  0.00000000000E+00  0.00000000000E+00  0.11188992300E+02  0.11188992300E+02  0.00000000000E+00 0. -1.
         21   -1    0    0  501  502 -0.00000000000E+00 -0.00000000000E+00 -0.34911544270E+03  0.34911544270E+03  0.00000000000E+00 0. -1.
         25    1    1    2    0    0  0.00000000000E+00  0.00000000000E+00 -0.33792645040E+03  0.36030443500E+03  0.12500000000E+03 0.  0.
<mgrwt>
<rscale>  2 0.12500000E+03</rscale>
<asrwt>0</asrwt>
<pdfrwt beam="1">  1       21 0.17213835E-02 0.12500000E+03</pdfrwt>
<pdfrwt beam="2">  1       21 0.53710067E-01 0.12500000E+03</pdfrwt>
<totfact> 0.50786309E+06</totfact>
</mgrwt>
</event>
<event>
 3    0  0.1707826E+001  0.1250000E+03  0.7546771E-02  0.1235069E+00
         21   -1    0    0  502  501  0.00000000000E+00  0.00000000000E+00  0.12799748885E+03  0.12799748885E+03  0.00000000000E+00 0.  1.
         21   -1    0    0  501  502 -0.00000000000E+00 -0.00000000000E+00 -0.30518176843E+02  0.30518176843E+02  0.00000000000E+00 0.  1.
         25    1    1    2    0    0  0.00000000000E+00  0.00000000000E+00  0.97479312003E+02  0.15851566569E+03  0.12500000000E+03 0.  0.
<mgrwt>
<rscale>  2 0.12500000E+03</rscale>
<asrwt>0</asrwt>
<pdfrwt beam="1">  1       21 0.19691921E-01 0.12500000E+03</pdfrwt>
<pdfrwt beam="2">  1       21 0.46951042E-02 0.12500000E+03</pdfrwt>
<totfact> 0.69701322E+06</totfact>
</mgrwt>
</event>
<event>
 3    0  0.1727354E+001  0.1250000E+03  0.7546771E-02  0.1235069E+00
         21   -1    0    0  502  501  0.00000000000E+00  0.00000000000E+00  0.39722561958E+02  0.39722561958E+02  0.00000000000E+00 0.  1.
         21   -1    0    0  501  502 -0.00000000000E+00 -0.00000000000E+00 -0.98338319773E+02  0.98338319773E+02  0.00000000000E+00 0.  1.
         25    1    1    2    0    0  0.00000000000E+00  0.00000000000E+00 -0.58615757815E+02  0.13806088173E+03  0.12500000000E+03 0.  0.
<mgrwt>
<rscale>  2 0.12500000E+03</rscale>
<asrwt>0</asrwt>
<pdfrwt beam="1">  1       21 0.61111635E-02 0.12500000E+03</pdfrwt>
<pdfrwt beam="2">  1       21 0.15128972E-01 0.12500000E+03</pdfrwt>
<totfact> 0.72293478E+06</totfact>
</mgrwt>
</event>
<event>
 3    0  0.1640113E+001  0.1250000E+03  0.7546771E-02  0.1235069E+00
         21   -1    0    0  502  501  0.00000000000E+00  0.00000000000E+00  0.15314581564E+02  0.15314581564E+02  0.00000000000E+00 0.  1.
         21   -1    0    0  501  502 -0.00000000000E+00 -0.00000000000E+00 -0.25506736724E+03  0.25506736724E+03  0.00000000000E+00 0.  1.
         25    1    1    2    0    0  0.00000000000E+00  0.00000000000E+00 -0.23975278568E+03  0.27038194881E+03  0.12500000000E+03 0.  0.
<mgrwt>
<rscale>  2 0.12500000E+03</rscale>
<asrwt>0</asrwt>
<pdfrwt beam="1">  1       21 0.23560896E-02 0.12500000E+03</pdfrwt>
<pdfrwt beam="2">  1       21 0.39241131E-01 0.12500000E+03</pdfrwt>
<totfact> 0.58010580E+06</totfact>
</mgrwt>
</event>
<event>
 3    0  0.1701775E+001  0.1250000E+03  0.7546771E-02  0.1235069E+00
         21   -1    0    0  502  501  0.00000000000E+00  0.00000000000E+00  0.14521675092E+03  0.14521675092E+03  0.00000000000E+00 0.  1.
         21   -1    0    0  501  502 -0.00000000000E+00 -0.00000000000E+00 -0.26899444969E+02  0.26899444969E+02  0.00000000000E+00 0.  1.
         25    1    1    2    0    0  0.00000000000E+00  0.00000000000E+00  0.11831730595E+03  0.17211619589E+03  0.12500000000E+03 0.  0.
<mgrwt>
<rscale>  2 0.12500000E+03</rscale>
<asrwt>0</asrwt>
<pdfrwt beam="1">  1       21 0.22341038E-01 0.12500000E+03</pdfrwt>
<pdfrwt beam="2">  1       21 0.41383762E-02 0.12500000E+03</pdfrwt>
<totfact> 0.68067654E+06</totfact>
</mgrwt>
</event>
<event>
 3    0  0.1699715E+001  0.1250000E+03  0.7546771E-02  0.1235069E+00
         21   -1    0    0  502  501  0.00000000000E+00  0.00000000000E+00  0.36825332426E+02  0.36825332426E+02  0.00000000000E+00 0. -1.
         21   -1    0    0  501  502 -0.00000000000E+00 -0.00000000000E+00 -0.10607507774E+03  0.10607507774E+03  0.00000000000E+00 0. -1.
         25    1    1    2    0    0  0.00000000000E+00  0.00000000000E+00 -0.69249745318E+02  0.14290041017E+03  0.12500000000E+03 0.  0.
<mgrwt>
<rscale>  2 0.12500000E+03</rscale>
<asrwt>0</asrwt>
<pdfrwt beam="1">  1       21 0.56654359E-02 0.12500000E+03</pdfrwt>
<pdfrwt beam="2">  1       21 0.16319242E-01 0.12500000E+03</pdfrwt>
<totfact> 0.71662891E+06</totfact>
</mgrwt>
</event>
<event>
 3    0  0.1735903E+001  0.1250000E+03  0.7546771E-02  0.1235069E+00
         21   -1    0    0  502  501  0.00000000000E+00  0.00000000000E+00  0.82132828813E+02  0.82132828813E+02  0.00000000000E+00 0.  1.
         21   -1    0    0  501  502 -0.00000000000E+00 -0.00000000000E+00 -0.47560154161E+02  0.47560154161E+02  0.00000000000E+00 0.  1.
         25    1    1    2    0    0  0.00000000000E+00  0.00000000000E+00  0.34572674652E+02  0.12969298297E+03  0.12500000000E+03 0.  0.
<mgrwt>
<rscale>  2 0.12500000E+03</rscale>
<asrwt>0</asrwt>
<pdfrwt beam="1">  1       21 0.12635820E-01 0.12500000E+03</pdfrwt>
<pdfrwt beam="2">  1       21 0.73169468E-02 0.12500000E+03</pdfrwt>
<totfact> 0.73405976E+06</totfact>
</mgrwt>
</event>
<event>
 3    0  0.1633736E+001  0.1250000E+03  0.7546771E-02  0.1235069E+00
         21   -1    0    0  502  501  0.00000000000E+00  0.00000000000E+00  0.23245052444E+03  0.23245052444E+03  0.00000000000E+00 0.  1.
         21   -1    0    0  501  502 -0.00000000000E+00 -0.00000000000E+00 -0.16804651267E+02  0.16804651267E+02  0.00000000000E+00 0.  1.
         25    1    1    2    0    0  0.00000000000E+00  0.00000000000E+00  0.21564587317E+03  0.24925517571E+03  0.12500000000E+03 0.  0.
<mgrwt>
<rscale>  2 0.12500000E+03</rscale>
<asrwt>0</asrwt>
<pdfrwt beam="1">  1       21 0.35761617E-01 0.12500000E+03</pdfrwt>
<pdfrwt beam="2">  1       21 0.25853311E-02 0.12500000E+03</pdfrwt>
<totfact> 0.59948385E+06</totfact>
</mgrwt>
</event>
<event>
 3    0  0.1619367E+001  0.1250000E+03  0.7546771E-02  0.1235069E+00
         21   -1    0    0  502  501  0.00000000000E+00  0.00000000000E+00  0.22046784022E+03  0.22046784022E+03  0.00000000000E+00 0. -1.
         21   -1    0    0  501  502 -0.00000000000E+00 -0.00000000000E+00 -0.17718003661E+02  0.17718003661E+02  0.00000000000E+00 0. -1.
         25    1    1    2    0    0  0.00000000000E+00  0.00000000000E+00  0.20274983655E+03  0.23818584388E+03  0.12500000000E+03 0.  0.
<mgrwt>
<rscale>  2 0.12500000E+03</rscale>
<asrwt>0</asrwt>
<pdfrwt beam="1">  1       21 0.33918127E-01 0.12500000E+03</pdfrwt>
<pdfrwt beam="2">  1       21 0.27258469E-02 0.12500000E+03</pdfrwt>
<totfact> 0.61008659E+06</totfact>
</mgrwt>
</event>
<event>
 3    0  0.1613264E+001  0.1250000E+03  0.7546771E-02  0.1235069E+00
         21   -1    0    0  502  501  0.00000000000E+00  0.00000000000E+00  0.23126351344E+03  0.23126351344E+03  0.00000000000E+00 0. -1.
         21   -1    0    0  501  502 -0.00000000000E+00 -0.00000000000E+00 -0.16890904847E+02  0.16890904847E+02  0.00000000000E+00 0. -1.
         25    1    1    2    0    0  0.00000000000E+00  0.00000000000E+00  0.21437260859E+03  0.24815441828E+03  0.12500000000E+03 0.  0.
<mgrwt>
<rscale>  2 0.12500000E+03</rscale>
<asrwt>0</asrwt>
<pdfrwt beam="1">  1       21 0.35579000E-01 0.12500000E+03</pdfrwt>
<pdfrwt beam="2">  1       21 0.25986009E-02 0.12500000E+03</pdfrwt>
<totfact> 0.60052385E+06</totfact>
</mgrwt>
</event>
<event>
 3    0  0.1368989E+001  0.1250000E+03  0.7546771E-02  0.1235069E+00
         21   -1    0    0  502  501  0.00000000000E+00  0.00000000000E+00  0.19441002743E+04  0.19441002743E+04  0.00000000000E+00 0.  1.
         21   -1    0    0  501  502 -0.00000000000E+00 -0.00000000000E+00 -0.20092842183E+01  0.20092842183E+01  0.00000000000E+00 0.  1.
         25    1    1    2    0    0  0.00000000000E+00  0.00000000000E+00  0.19420909901E+04  0.19461095586E+04  0.12500000000E+03 0.  0.
<mgrwt>
<rscale>  2 0.12500000E+03</rscale>
<asrwt>0</asrwt>
<pdfrwt beam="1">  1       21 0.29909085E+00 0.12500000E+03</pdfrwt>
<pdfrwt beam="2">  1       21 0.30912220E-03 0.12500000E+03</pdfrwt>
<totfact> 0.84856341E+05</totfact>
</mgrwt>
</event>
<event>
 3    0  0.1737111E+001  0.1250000E+03  0.7546771E-02  0.1235069E+00
         21   -1    0    0  502  501  0.00000000000E+00  0.00000000000E+00  0.48232897745E+02  0.48232897745E+02  0.00000000000E+00 0.  1.
         21   -1    0    0  501  502 -0.00000000000E+00 -0.00000000000E+00 -0.80987255227E+02  0.80987255227E+02  0.00000000000E+00 0.  1.
         25    1    1    2    0    0  0.00000000000E+00  0.00000000000E+00 -0.32754357482E+02  0.12922015297E+03  0.12500000000E+03 0.  0.
<mgrwt>
<rscale>  2 0.12500000E+03</rscale>
<asrwt>0</asrwt>
<pdfrwt beam="1">  1       21 0.74204459E-02 0.12500000E+03</pdfrwt>
<pdfrwt beam="2">  1       21 0.12459578E-01 0.12500000E+03</pdfrwt>
<totfact> 0.73469331E+06</totfact>
</mgrwt>
</event>
<event>
 3    0  0.1561744E+001  0.1250000E+03  0.7546771E-02  0.1235069E+00
         21   -1    0    0  502  501  0.00000000000E+00  0.00000000000E+00  0.10185629960E+02  0.10185629960E+02  0.00000000000E+00 0.  1.
         21   -1    0    0  501  502 -0.00000000000E+00 -0.00000000000E+00 -0.38350598003E+03  0.38350598003E+03  0.00000000000E+00 0.  1.
         25    1    1    2    0    0  0.00000000000E+00  0.00000000000E+00 -0.37332035007E+03  0.39369160999E+03  0.12500000000E+03 0.  0.
<mgrwt>
<rscale>  2 0.12500000E+03</rscale>
<asrwt>0</asrwt>
<pdfrwt beam="1">  1       21 0.15670201E-02 0.12500000E+03</pdfrwt>
<pdfrwt beam="2">  1       21 0.59000917E-01 0.12500000E+03</pdfrwt>
<totfact> 0.48462614E+06</totfact>
</mgrwt>
</event>
<event>
 3    0  0.1683676E+001  0.1250000E+03  0.7546771E-02  0.1235069E+00
         21   -1    0    0  502  501  0.00000000000E+00  0.00000000000E+00  0.16176750585E+03  0.16176750585E+03  0.00000000000E+00 0.  1.
         21   -1    0    0  501  502 -0.00000000000E+00 -0.00000000000E+00 -0.24147309309E+02  0.24147309309E+02  0.00000000000E+00 0.  1.
         25    1    1    2    0    0  0.00000000000E+00  0.00000000000E+00  0.13762019654E+03  0.18591481516E+03  0.12500000000E+03 0.  0.
<mgrwt>
<rscale>  2 0.12500000E+03</rscale>
<asrwt>0</asrwt>
<pdfrwt beam="1">  1       21 0.24887308E-01 0.12500000E+03</pdfrwt>
<pdfrwt beam="2">  1       21 0.37149708E-02 0.12500000E+03</pdfrwt>
<totfact> 0.66479400E+06</totfact>
</mgrwt>
</event>
<event>
 3    0  0.1368989E+001  0.1250000E+03  0.7546771E-02  0.1235069E+00
         21   -1    0    0  502  501  0.00000000000E+00  0.00000000000E+00  0.70768857165E+03  0.70768857165E+03  0.00000000000E+00 0.  1.
         21   -1    0    0  501  502 -0.00000000000E+00 -0.00000000000E+00 -0.55197302266E+01  0.55197302266E+01  0.00000000000E+00 0.  1.
         25    1    1    2    0    0  0.00000000000E+00  0.00000000000E+00  0.70216884143E+03  0.71320830188E+03  0.12500000000E+03 0.  0.
<mgrwt>
<rscale>  2 0.12500000E+03</rscale>
<asrwt>0</asrwt>
<pdfrwt beam="1">  1       21 0.10887509E+00 0.12500000E+03</pdfrwt>
<pdfrwt beam="2">  1       21 0.84918983E-03 0.12500000E+03</pdfrwt>
<totfact> 0.32407116E+06</totfact>
</mgrwt>
</event>
<event>
 3    0  0.1714361E+001  0.1250000E+03  0.7546771E-02  0.1235069E+00
         21   -1    0    0  502  501  0.00000000000E+00  0.00000000000E+00  0.72801182353E+02  0.72801182353E+02  0.00000000000E+00 0. -1.
         21   -1    0    0  501  502 -0.00000000000E+00 -0.00000000000E+00 -0.53656408780E+02  0.53656408780E+02  0.00000000000E+00 0. -1.
         25    1    1    2    0    0  0.00000000000E+00  0.00000000000E+00  0.19144773574E+02  0.12645759113E+03  0.12500000000E+03 0.  0.
<mgrwt>
<rscale>  2 0.12500000E+03</rscale>
<asrwt>0</asrwt>
<pdfrwt beam="1">  1       21 0.11200182E-01 0.12500000E+03</pdfrwt>
<pdfrwt beam="2">  1       21 0.82548321E-02 0.12500000E+03</pdfrwt>
<totfact> 0.73843178E+06</totfact>
</mgrwt>
</event>
<event>
 3    0  0.1666663E+001  0.1250000E+03  0.7546771E-02  0.1235069E+00
         21   -1    0    0  502  501  0.00000000000E+00  0.00000000000E+00  0.19210176984E+03  0.19210176984E+03  0.00000000000E+00 0.  1.
         21   -1    0    0  501  502 -0.00000000000E+00 -0.00000000000E+00 -0.20334273876E+02  0.20334273876E+02  0.00000000000E+00 0.  1.
         25    1    1    2    0    0  0.00000000000E+00  0.00000000000E+00  0.17176749596E+03  0.21243604371E+03  0.12500000000E+03 0.  0.
<mgrwt>
<rscale>  2 0.12500000E+03</rscale>
<asrwt>0</asrwt>
<pdfrwt beam="1">  1       21 0.29554117E-01 0.12500000E+03</pdfrwt>
<pdfrwt beam="2">  1       21 0.31283500E-02 0.12500000E+03</pdfrwt>
<totfact> 0.63604145E+06</totfact>
</mgrwt>
</event>
<event>
 3    0  0.1446680E+001  0.1250000E+03  0.7546771E-02  0.1235069E+00
         21   -1    0    0  502  501  0.00000000000E+00  0.00000000000E+00  0.76659141149E+01  0.76659141149E+01  0.00000000000E+00 0.  1.
         21   -1    0    0  501  502 -0.00000000000E+00 -0.00000000000E+00 -0.50956088751E+03  0.50956088751E+03  0.00000000000E+00 0.  1.
         25    1    1    2    0    0  0.00000000000E+00  0.00000000000E+00 -0.50189497340E+03  0.51722680163E+03  0.12500000000E+03 0.  0.
<mgrwt>
<rscale>  2 0.12500000E+03</rscale>
<asrwt>0</asrwt>
<pdfrwt beam="1">  1       21 0.11793712E-02 0.12500000E+03</pdfrwt>
<pdfrwt beam="2">  1       21 0.78393993E-01 0.12500000E+03</pdfrwt>
<totfact> 0.41124968E+06</totfact>
</mgrwt>
</event>
<event>
 3    0  0.1696640E+001  0.1250000E+03  0.7546771E-02  0.1235069E+00
         21   -1    0    0  502  501  0.00000000000E+00  0.00000000000E+00  0.11437996640E+03  0.11437996640E+03  0.00000000000E+00 0. -1.
         21   -1    0    0  501  502 -0.00000000000E+00 -0.00000000000E+00 -0.34151522535E+02  0.34151522535E+02  0.00000000000E+00 0. -1.
         25    1    1    2    0    0  0.00000000000E+00  0.00000000000E+00  0.80228443865E+02  0.14853148893E+03  0.12500000000E+03 0.  0.
<mgrwt>
<rscale>  2 0.12500000E+03</rscale>
<asrwt>0</asrwt>
<pdfrwt beam="1">  1       21 0.17596918E-01 0.12500000E+03</pdfrwt>
<pdfrwt beam="2">  1       21 0.52540804E-02 0.12500000E+03</pdfrwt>
<totfact> 0.70944163E+06</totfact>
</mgrwt>
</event>
<event>
 3    0  0.1739481E+001  0.1250000E+03  0.7546771E-02  0.1235069E+00
         21   -1    0    0  502  501  0.00000000000E+00  0.00000000000E+00  0.72377423058E+02  0.72377423058E+02  0.00000000000E+00 0.  1.
         21   -1    0    0  501  502 -0.00000000000E+00 -0.00000000000E+00 -0.53970559257E+02  0.53970559257E+02  0.00000000000E+00 0.  1.
         25    1    1    2    0    0  0.00000000000E+00  0.00000000000E+00  0.18406863801E+02  0.12634798231E+03  0.12500000000E+03 0.  0.
<mgrwt>
<rscale>  2 0.12500000E+03</rscale>
<asrwt>0</asrwt>
<pdfrwt beam="1">  1       21 0.11134988E-01 0.12500000E+03</pdfrwt>
<pdfrwt beam="2">  1       21 0.83031629E-02 0.12500000E+03</pdfrwt>
<totfact> 0.73858197E+06</totfact>
</mgrwt>
</event>
<event>
 3    0  0.1713354E+001  0.1250000E+03  0.7546771E-02  0.1235069E+00
         21   -1    0    0  502  501  0.00000000000E+00  0.00000000000E+00  0.54891256712E+02  0.54891256712E+02  0.00000000000E+00 0. -1.
         21   -1    0    0  501  502 -0.00000000000E+00 -0.00000000000E+00 -0.71163428093E+02  0.71163428093E+02  0.00000000000E+00 0. -1.
         25    1    1    2    0    0  0.00000000000E+00  0.00000000000E+00 -0.16272171381E+02  0.12605468481E+03  0.12500000000E+03 0.  0.
<mgrwt>
<rscale>  2 0.12500000E+03</rscale>
<asrwt>0</asrwt>
<pdfrwt beam="1">  1       21 0.84448087E-02 0.12500000E+03</pdfrwt>
<pdfrwt beam="2">  1       21 0.10948220E-01 0.12500000E+03</pdfrwt>
<totfact> 0.73898502E+06</totfact>
</mgrwt>
</event>
<event>
 3    0  0.1490815E+001  0.1250000E+03  0.7546771E-02  0.1235069E+00
         21   -1    0    0  502  501  0.00000000000E+00  0.00000000000E+00  0.83897277952E+01  0.83897277952E+01  0.00000000000E+00 0.  1.
         21   -1    0    0  501  502 -0.00000000000E+00 -0.00000000000E+00 -0.46559913448E+03  0.46559913448E+03  0.00000000000E+00 0.  1.
         25    1    1    2    0    0  0.00000000000E+00  0.00000000000E+00 -0.45720940669E+03  0.47398886228E+03  0.12500000000E+03 0.  0.
<mgrwt>
<rscale>  2 0.12500000E+03</rscale>
<asrwt>0</asrwt>
<pdfrwt beam="1">  1       21 0.12907274E-02 0.12500000E+03</pdfrwt>
<pdfrwt beam="2">  1       21 0.71630635E-01 0.12500000E+03</pdfrwt>
<totfact> 0.43490776E+06</totfact>
</mgrwt>
</event>
<event>
 3    0  0.1368989E+001  0.1250000E+03  0.7546771E-02  0.1235069E+00
         21   -1    0    0  502  501  0.00000000000E+00  0.00000000000E+00  0.82280753029E+03  0.82280753029E+03  0.00000000000E+00 0. -1.
         21   -1    0    0  501  502 -0.00000000000E+00 -0.00000000000E+00 -0.47474650586E+01  0.47474650586E+01  0.00000000000E+00 0. -1.
         25    1    1    2    0    0  0.00000000000E+00  0.00000000000E+00  0.81806006524E+03  0.82755499535E+03  0.12500000000E+03 0.  0.
<mgrwt>
<rscale>  2 0.12500000E+03</rscale>
<asrwt>0</asrwt>
<pdfrwt beam="1">  1       21 0.12658566E+00 0.12500000E+03</pdfrwt>
<pdfrwt beam="2">  1       21 0.73037989E-03 0.12500000E+03</pdfrwt>
<totfact> 0.28470003E+06</totfact>
</mgrwt>
</event>
<event>
 3    0  0.1653365E+001  0.1250000E+03  0.7546771E-02  0.1235069E+00
         21   -1    0    0  502  501  0.00000000000E+00  0.00000000000E+00  0.19748267981E+02  0.19748267981E+02  0.00000000000E+00 0. -1.
         21   -1    0    0  501  502 -0.00000000000E+00 -0.00000000000E+00 -0.19780215681E+03  0.19780215681E+03  0.00000000000E+00 0. -1.
         25    1    1    2    0    0  0.00000000000E+00  0.00000000000E+00 -0.17805388883E+03  0.21755042479E+03  0.12500000000E+03 0.  0.
<mgrwt>
<rscale>  2 0.12500000E+03</rscale>
<asrwt>0</asrwt>
<pdfrwt beam="1">  1       21 0.30381952E-02 0.12500000E+03</pdfrwt>
<pdfrwt beam="2">  1       21 0.30431100E-01 0.12500000E+03</pdfrwt>
<totfact> 0.63073796E+06</totfact>
</mgrwt>
</event>
<event>
 3    0  0.1710357E+001  0.1250000E+03  0.7546771E-02  0.1235069E+00
         21   -1    0    0  502  501  0.00000000000E+00  0.00000000000E+00  0.46040154887E+02  0.46040154887E+02  0.00000000000E+00 0. -1.
         21   -1    0    0  501  502 -0.00000000000E+00 -0.00000000000E+00 -0.84844414829E+02  0.84844414829E+02  0.00000000000E+00 0. -1.
         25    1    1    2    0    0  0.00000000000E+00  0.00000000000E+00 -0.38804259943E+02  0.13088456972E+03  0.12500000000E+03 0.  0.
<mgrwt>
<rscale>  2 0.12500000E+03</rscale>
<asrwt>0</asrwt>
<pdfrwt beam="1">  1       21 0.70831008E-02 0.12500000E+03</pdfrwt>
<pdfrwt beam="2">  1       21 0.13052987E-01 0.12500000E+03</pdfrwt>
<totfact> 0.73246231E+06</totfact>
</mgrwt>
</event>
<event>
 3    0  0.1692054E+001  0.1250000E+03  0.7546771E-02  0.1235069E+00
         21   -1    0    0  502  501  0.00000000000E+00  0.00000000000E+00  0.13905607271E+03  0.13905607271E+03  0.00000000000E+00 0. -1.
         21   -1    0    0  501  502 -0.00000000000E+00 -0.00000000000E+00 -0.28091185978E+02  0.28091185978E+02  0.00000000000E+00 0. -1.
         25    1    1    2    0    0  0.00000000000E+00  0.00000000000E+00  0.11096488674E+03  0.16714725869E+03  0.12500000000E+03 0.  0.
<mgrwt>
<rscale>  2 0.12500000E+03</rscale>
<asrwt>0</asrwt>
<pdfrwt beam="1">  1       21 0.21393242E-01 0.12500000E+03</pdfrwt>
<pdfrwt beam="2">  1       21 0.43217210E-02 0.12500000E+03</pdfrwt>
<totfact> 0.68656553E+06</totfact>
</mgrwt>
</event>
<event>
 3    0  0.1708087E+001  0.1250000E+03  0.7546771E-02  0.1235069E+00
         21   -1    0    0  502  501  0.00000000000E+00  0.00000000000E+00  0.43134199496E+02  0.43134199496E+02  0.00000000000E+00 0. -1.
         21   -1    0    0  501  502 -0.00000000000E+00 -0.00000000000E+00 -0.90560391654E+02  0.90560391654E+02  0.00000000000E+00 0. -1.
         25    1    1    2    0    0  0.00000000000E+00  0.00000000000E+00 -0.47426192158E+02  0.13369459115E+03  0.12500000000E+03 0.  0.
<mgrwt>
<rscale>  2 0.12500000E+03</rscale>
<asrwt>0</asrwt>
<pdfrwt beam="1">  1       21 0.66360308E-02 0.12500000E+03</pdfrwt>
<pdfrwt beam="2">  1       21 0.13932368E-01 0.12500000E+03</pdfrwt>
<totfact> 0.72869787E+06</totfact>
</mgrwt>
</event>
<event>
 3    0  0.1671527E+001  0.1250000E+03  0.7546771E-02  0.1235069E+00
         21   -1    0    0  502  501  0.00000000000E+00  0.00000000000E+00  0.20537894644E+02  0.20537894644E+02  0.00000000000E+00 0.  1.
         21   -1    0    0  501  502 -0.00000000000E+00 -0.00000000000E+00 -0.19019719731E+03  0.19019719731E+03  0.00000000000E+00 0.  1.
         25    1    1    2    0    0  0.00000000000E+00  0.00000000000E+00 -0.16965930267E+03  0.21073509196E+03  0.12500000000E+03 0.  0.
<mgrwt>
<rscale>  2 0.12500000E+03</rscale>
<asrwt>0</asrwt>
<pdfrwt beam="1">  1       21 0.31596762E-02 0.12500000E+03</pdfrwt>
<pdfrwt beam="2">  1       21 0.29261106E-01 0.12500000E+03</pdfrwt>
<totfact> 0.63782279E+06</totfact>
</mgrwt>
</event>
<event>
 3    0  0.1368989E+001  0.1250000E+03  0.7546771E-02  0.1235069E+00
         21   -1    0    0  502  501  0.00000000000E+00  0.00000000000E+00  0.36869391824E+01  0.36869391824E+01  0.00000000000E+00 0.  1.
         21   -1    0    0  501  502 -0.00000000000E+00 -0.00000000000E+00 -0.10594831666E+04  0.10594831666E+04  0.00000000000E+00 0.  1.
         25    1    1    2    0    0  0.00000000000E+00  0.00000000000E+00 -0.10557962274E+04  0.10631701058E+04  0.12500000000E+03 0.  0.
<mgrwt>
<rscale>  2 0.12500000E+03</rscale>
<asrwt>0</asrwt>
<pdfrwt beam="1">  1       21 0.56722153E-03 0.12500000E+03</pdfrwt>
<pdfrwt beam="2">  1       21 0.16299738E+00 0.12500000E+03</pdfrwt>
<totfact> 0.22089651E+06</totfact>
</mgrwt>
</event>
<event>
 3    0  0.1368989E+001  0.1250000E+03  0.7546771E-02  0.1235069E+00
         21   -1    0    0  502  501  0.00000000000E+00  0.00000000000E+00  0.10685880065E+04  0.10685880065E+04  0.00000000000E+00 0. -1.
         21   -1    0    0  501  502 -0.00000000000E+00 -0.00000000000E+00 -0.36555248387E+01  0.36555248387E+01  0.00000000000E+00 0. -1.
         25    1    1    2    0    0  0.00000000000E+00  0.00000000000E+00  0.10649324816E+04  0.10722435313E+04  0.12500000000E+03 0.  0.
<mgrwt>
<rscale>  2 0.12500000E+03</rscale>
<asrwt>0</asrwt>
<pdfrwt beam="1">  1       21 0.16439791E+00 0.12500000E+03</pdfrwt>
<pdfrwt beam="2">  1       21 0.56238929E-03 0.12500000E+03</pdfrwt>
<totfact> 0.21879543E+06</totfact>
</mgrwt>
</event>
<event>
 3    0  0.1368989E+001  0.1250000E+03  0.7546771E-02  0.1235069E+00
         21   -1    0    0  502  501  0.00000000000E+00  0.00000000000E+00  0.25722012285E+04  0.25722012285E+04  0.00000000000E+00 0.  1.
         21   -1    0    0  501  502 -0.00000000000E+00 -0.00000000000E+00 -0.15186409044E+01  0.15186409044E+01  0.00000000000E+00 0.  1.
         25    1    1    2    0    0  0.00000000000E+00  0.00000000000E+00  0.25706825876E+04  0.25737198694E+04  0.12500000000E+03 0.  0.
<mgrwt>
<rscale>  2 0.12500000E+03</rscale>
<asrwt>0</asrwt>
<pdfrwt beam="1">  1       21 0.39571978E+00 0.12500000E+03</pdfrwt>
<pdfrwt beam="2">  1       21 0.23363912E-03 0.12500000E+03</pdfrwt>
<totfact> 0.35914485E+05</totfact>
</mgrwt>
</event>
<event>
 3    0  0.1706150E+001  0.1250000E+03  0.7546771E-02  0.1235069E+00
         21   -1    0    0  502  501  0.00000000000E+00  0.00000000000E+00  0.12872834727E+03  0.12872834727E+03  0.00000000000E+00 0.  1.
         21   -1    0    0  501  502 -0.00000000000E+00 -0.00000000000E+00 -0.30344909128E+02  0.30344909128E+02  0.00000000000E+00 0.  1.
         25    1    1    2    0    0  0.00000000000E+00  0.00000000000E+00  0.98383438138E+02  0.15907325639E+03  0.12500000000E+03 0.  0.
<mgrwt>
<rscale>  2 0.12500000E+03</rscale>
<asrwt>0</asrwt>
<pdfrwt beam="1">  1       21 0.19804361E-01 0.12500000E+03</pdfrwt>
<pdfrwt beam="2">  1       21 0.46684476E-02 0.12500000E+03</pdfrwt>
<totfact> 0.69632912E+06</totfact>
</mgrwt>
</event>
<event>
 3    0  0.1368989E+001  0.1250000E+03  0.7546771E-02  0.1235069E+00
         21   -1    0    0  502  501  0.00000000000E+00  0.00000000000E+00  0.30142417552E+01  0.30142417552E+01  0.00000000000E+00 0.  1.
         21   -1    0    0  501  502 -0.00000000000E+00 -0.00000000000E+00 -0.12959312216E+04  0.12959312216E+04  0.00000000000E+00 0.  1.
         25    1    1    2    0    0  0.00000000000E+00  0.00000000000E+00 -0.12929169798E+04  0.12989454633E+04  0.12500000000E+03 0.  0.
<mgrwt>
<rscale>  2 0.12500000E+03</rscale>
<asrwt>0</asrwt>
<pdfrwt beam="1">  1       21 0.46372925E-03 0.12500000E+03</pdfrwt>
<pdfrwt beam="2">  1       21 0.19937414E+00 0.12500000E+03</pdfrwt>
<totfact> 0.17271271E+06</totfact>
</mgrwt>
</event>
<event>
 3    0  0.1546297E+001  0.1250000E+03  0.7546771E-02  0.1235069E+00
         21   -1    0    0  502  501  0.00000000000E+00  0.00000000000E+00  0.99934061286E+01  0.99934061286E+01  0.00000000000E+00 0.  1.
         21   -1    0    0  501  502 -0.00000000000E+00 -0.00000000000E+00 -0.39088274305E+03  0.39088274305E+03  0.00000000000E+00 0.  1.
         25    1    1    2    0    0  0.00000000000E+00  0.00000000000E+00 -0.38088933692E+03  0.40087614918E+03  0.12500000000E+03 0.  0.
<mgrwt>
<rscale>  2 0.12500000E+03</rscale>
<asrwt>0</asrwt>
<pdfrwt beam="1">  1       21 0.15374474E-02 0.12500000E+03</pdfrwt>
<pdfrwt beam="2">  1       21 0.60135796E-01 0.12500000E+03</pdfrwt>
<totfact> 0.47983296E+06</totfact>
</mgrwt>
</event>
<event>
 3    0  0.1712834E+001  0.1250000E+03  0.7546771E-02  0.1235069E+00
         21   -1    0    0  502  501  0.00000000000E+00  0.00000000000E+00  0.74521539252E+02  0.74521539252E+02  0.00000000000E+00 0. -1.
         21   -1    0    0  501  502 -0.00000000000E+00 -0.00000000000E+00 -0.52417731024E+02  0.52417731024E+02  0.00000000000E+00 0. -1.
         25    1    1    2    0    0  0.00000000000E+00  0.00000000000E+00  0.22103808228E+02  0.12693927028E+03  0.12500000000E+03 0.  0.
<mgrwt>
<rscale>  2 0.12500000E+03</rscale>
<asrwt>0</asrwt>
<pdfrwt beam="1">  1       21 0.11464852E-01 0.12500000E+03</pdfrwt>
<pdfrwt beam="2">  1       21 0.80642663E-02 0.12500000E+03</pdfrwt>
<totfact> 0.73777406E+06</totfact>
</mgrwt>
</event>
<event>
 3    0  0.1696216E+001  0.1250000E+03  0.7546771E-02  0.1235069E+00
         21   -1    0    0  502  501  0.00000000000E+00  0.00000000000E+00  0.25879620161E+02  0.25879620161E+02  0.00000000000E+00 0.  1.
         21   -1    0    0  501  502 -0.00000000000E+00 -0.00000000000E+00 -0.15093923232E+03  0.15093923232E+03  0.00000000000E+00 0.  1.
         25    1    1    2    0    0  0.00000000000E+00  0.00000000000E+00 -0.12505961216E+03  0.17681885249E+03  0.12500000000E+03 0.  0.
<mgrwt>
<rscale>  2 0.12500000E+03</rscale>
<asrwt>0</asrwt>
<pdfrwt beam="1">  1       21 0.39814801E-02 0.12500000E+03</pdfrwt>
<pdfrwt beam="2">  1       21 0.23221420E-01 0.12500000E+03</pdfrwt>
<totfact> 0.67518354E+06</totfact>
</mgrwt>
</event>
<event>
 3    0  0.1737085E+001  0.1250000E+03  0.7546771E-02  0.1235069E+00
         21   -1    0    0  502  501  0.00000000000E+00  0.00000000000E+00  0.81232805378E+02  0.81232805378E+02  0.00000000000E+00 0.  1.
         21   -1    0    0  501  502 -0.00000000000E+00 -0.00000000000E+00 -0.48087099563E+02  0.48087099563E+02  0.00000000000E+00 0.  1.
         25    1    1    2    0    0  0.00000000000E+00  0.00000000000E+00  0.33145705815E+02  0.12931990494E+03  0.12500000000E+03 0.  0.
<mgrwt>
<rscale>  2 0.12500000E+03</rscale>
<asrwt>0</asrwt>
<pdfrwt beam="1">  1       21 0.12497355E-01 0.12500000E+03</pdfrwt>
<pdfrwt beam="2">  1       21 0.73980153E-02 0.12500000E+03</pdfrwt>
<totfact> 0.73455953E+06</totfact>
</mgrwt>
</event>
<event>
 3    0  0.1655371E+001  0.1250000E+03  0.7546771E-02  0.1235069E+00
         21   -1    0    0  502  501  0.00000000000E+00  0.00000000000E+00  0.16357886818E+03  0.16357886818E+03  0.00000000000E+00 0. -1.
         21   -1    0    0  501  502 -0.00000000000E+00 -0.00000000000E+00 -0.23879918253E+02  0.23879918253E+02  0.00000000000E+00 0. -1.
         25    1    1    2    0    0  0.00000000000E+00  0.00000000000E+00  0.13969894992E+03  0.18745878643E+03  0.12500000000E+03 0.  0.
<mgrwt>
<rscale>  2 0.12500000E+03</rscale>
<asrwt>0</asrwt>
<pdfrwt beam="1">  1       21 0.25165979E-01 0.12500000E+03</pdfrwt>
<pdfrwt beam="2">  1       21 0.36738337E-02 0.12500000E+03</pdfrwt>
<totfact> 0.66306016E+06</totfact>
</mgrwt>
</event>
<event>
 3    0  0.1368989E+001  0.1250000E+03  0.7546771E-02  0.1235069E+00
         21   -1    0    0  502  501  0.00000000000E+00  0.00000000000E+00  0.20520401377E+04  0.20520401377E+04  0.00000000000E+00 0. -1.
         21   -1    0    0  501  502 -0.00000000000E+00 -0.00000000000E+00 -0.19035933694E+01  0.19035933694E+01  0.00000000000E+00 0. -1.
         25    1    1    2    0    0  0.00000000000E+00  0.00000000000E+00  0.20501365444E+04  0.20539437311E+04  0.12500000000E+03 0.  0.
<mgrwt>
<rscale>  2 0.12500000E+03</rscale>
<asrwt>0</asrwt>
<pdfrwt beam="1">  1       21 0.31569671E+00 0.12500000E+03</pdfrwt>
<pdfrwt beam="2">  1       21 0.29286216E-03 0.12500000E+03</pdfrwt>
<totfact> 0.74339825E+05</totfact>
</mgrwt>
</event>
<event>
 3    0  0.1506549E+001  0.1250000E+03  0.7546771E-02  0.1235069E+00
         21   -1    0    0  502  501  0.00000000000E+00  0.00000000000E+00  0.45824373658E+03  0.45824373658E+03  0.00000000000E+00 0.  1.
         21   -1    0    0  501  502 -0.00000000000E+00 -0.00000000000E+00 -0.85243936539E+01  0.85243936539E+01  0.00000000000E+00 0.  1.
         25    1    1    2    0    0  0.00000000000E+00  0.00000000000E+00  0.44971934292E+03  0.46676813023E+03  0.12500000000E+03 0.  0.
<mgrwt>
<rscale>  2 0.12500000E+03</rscale>
<asrwt>0</asrwt>
<pdfrwt beam="1">  1       21 0.70499017E-01 0.12500000E+03</pdfrwt>
<pdfrwt beam="2">  1       21 0.13114455E-02 0.12500000E+03</pdfrwt>
<totfact> 0.43905617E+06</totfact>
</mgrwt>
</event>
<event>
 3    0  0.1618481E+001  0.1250000E+03  0.7546771E-02  0.1235069E+00
         21   -1    0    0  502  501  0.00000000000E+00  0.00000000000E+00  0.14782729002E+02  0.14782729002E+02  0.00000000000E+00 0.  1.
         21   -1    0    0  501  502 -0.00000000000E+00 -0.00000000000E+00 -0.26424417302E+03  0.26424417302E+03  0.00000000000E+00 0.  1.
         25    1    1    2    0    0  0.00000000000E+00  0.00000000000E+00 -0.24946144402E+03  0.27902690202E+03  0.12500000000E+03 0.  0.
<mgrwt>
<rscale>  2 0.12500000E+03</rscale>
<asrwt>0</asrwt>
<pdfrwt beam="1">  1       21 0.22742660E-02 0.12500000E+03</pdfrwt>
<pdfrwt beam="2">  1       21 0.40652949E-01 0.12500000E+03</pdfrwt>
<totfact> 0.57245437E+06</totfact>
</mgrwt>
</event>
<event>
 3    0  0.1740518E+001  0.1250000E+03  0.7546771E-02  0.1235069E+00
         21   -1    0    0  502  501  0.00000000000E+00  0.00000000000E+00  0.64488691362E+02  0.64488691362E+02  0.00000000000E+00 0.  1.
         21   -1    0    0  501  502 -0.00000000000E+00 -0.00000000000E+00 -0.60572635566E+02  0.60572635566E+02  0.00000000000E+00 0.  1.
         25    1    1    2    0    0  0.00000000000E+00  0.00000000000E+00  0.39160557968E+01  0.12506132693E+03  0.12500000000E+03 0.  0.
<mgrwt>
<rscale>  2 0.12500000E+03</rscale>
<asrwt>0</asrwt>
<pdfrwt beam="1">  1       21 0.99213371E-02 0.12500000E+03</pdfrwt>
<pdfrwt beam="2">  1       21 0.93188670E-02 0.12500000E+03</pdfrwt>
<totfact> 0.74035298E+06</totfact>
</mgrwt>
</event>
<event>
 3    0  0.1548081E+001  0.1250000E+03  0.7546771E-02  0.1235069E+00
         21   -1    0    0  502  501  0.00000000000E+00  0.00000000000E+00  0.33843187407E+03  0.33843187407E+03  0.00000000000E+00 0. -1.
         21   -1    0    0  501  502 -0.00000000000E+00 -0.00000000000E+00 -0.11542204796E+02  0.11542204796E+02  0.00000000000E+00 0. -1.
         25    1    1    2    0    0  0.00000000000E+00  0.00000000000E+00  0.32688966927E+03  0.34997407886E+03  0.12500000000E+03 0.  0.
<mgrwt>
<rscale>  2 0.12500000E+03</rscale>
<asrwt>0</asrwt>
<pdfrwt beam="1">  1       21 0.52066435E-01 0.12500000E+03</pdfrwt>
<pdfrwt beam="2">  1       21 0.17757241E-02 0.12500000E+03</pdfrwt>
<totfact> 0.51540349E+06</totfact>
</mgrwt>
</event>
<event>
 3    0  0.1368989E+001  0.1250000E+03  0.7546771E-02  0.1235069E+00
         21   -1    0    0  502  501  0.00000000000E+00  0.00000000000E+00  0.12751833627E+04  0.12751833627E+04  0.00000000000E+00 0. -1.
         21   -1    0    0  501  502 -0.00000000000E+00 -0.00000000000E+00 -0.30632849473E+01  0.30632849473E+01  0.00000000000E+00 0. -1.
         25    1    1    2    0    0  0.00000000000E+00  0.00000000000E+00  0.12721200778E+04  0.12782466477E+04  0.12500000000E+03 0.  0.
<mgrwt>
<rscale>  2 0.12500000E+03</rscale>
<asrwt>0</asrwt>
<pdfrwt beam="1">  1       21 0.19618163E+00 0.12500000E+03</pdfrwt>
<pdfrwt beam="2">  1       21 0.47127563E-03 0.12500000E+03</pdfrwt>
<totfact> 0.17647563E+06</totfact>
</mgrwt>
</event>
<event>
 3    0  0.1490511E+001  0.1250000E+03  0.7546771E-02  0.1235069E+00
         21   -1    0    0  502  501  0.00000000000E+00  0.00000000000E+00  0.42741448796E+03  0.42741448796E+03  0.00000000000E+00 0. -1.
         21   -1    0    0  501  502 -0.00000000000E+00 -0.00000000000E+00 -0.91392550090E+01  0.91392550090E+01  0.00000000000E+00 0. -1.
         25    1    1    2    0    0  0.00000000000E+00  0.00000000000E+00  0.41827523295E+03  0.43655374297E+03  0.12500000000E+03 0.  0.
<mgrwt>
<rscale>  2 0.12500000E+03</rscale>
<asrwt>0</asrwt>
<pdfrwt beam="1">  1       21 0.65756060E-01 0.12500000E+03</pdfrwt>
<pdfrwt beam="2">  1       21 0.14060396E-02 0.12500000E+03</pdfrwt>
<totfact> 0.45707667E+06</totfact>
</mgrwt>
</event>
<event>
 3    0  0.1368989E+001  0.1250000E+03  0.7546771E-02  0.1235069E+00
         21   -1    0    0  502  501  0.00000000000E+00  0.00000000000E+00  0.10738006021E+04  0.10738006021E+04  0.00000000000E+00 0.  1.
         21   -1    0    0  501  502 -0.00000000000E+00 -0.00000000000E+00 -0.36377796699E+01  0.36377796699E+01  0.00000000000E+00 0.  1.
         25    1    1    2    0    0  0.00000000000E+00  0.00000000000E+00  0.10701628225E+04  0.10774383818E+04  0.12500000000E+03 0.  0.
<mgrwt>
<rscale>  2 0.12500000E+03</rscale>
<asrwt>0</asrwt>
<pdfrwt beam="1">  1       21 0.16519984E+00 0.12500000E+03</pdfrwt>
<pdfrwt beam="2">  1       21 0.55965927E-03 0.12500000E+03</pdfrwt>
<totfact> 0.21760316E+06</totfact>
</mgrwt>
</event>
<event>
 3    0  0.1740519E+001  0.1250000E+03  0.7546771E-02  0.1235069E+00
         21   -1    0    0  502  501  0.00000000000E+00  0.00000000000E+00  0.63635141454E+02  0.63635141454E+02  0.00000000000E+00 0.  1.
         21   -1    0    0  501  502 -0.00000000000E+00 -0.00000000000E+00 -0.61385107517E+02  0.61385107517E+02  0.00000000000E+00 0.  1.
         25    1    1    2    0    0  0.00000000000E+00  0.00000000000E+00  0.22500339367E+01  0.12502024897E+03  0.12500000000E+03 0.  0.
<mgrwt>
<rscale>  2 0.12500000E+03</rscale>
<asrwt>0</asrwt>
<pdfrwt beam="1">  1       21 0.97900218E-02 0.12500000E+03</pdfrwt>
<pdfrwt beam="2">  1       21 0.94438627E-02 0.12500000E+03</pdfrwt>
<totfact> 0.74040846E+06</totfact>
</mgrwt>
</event>
<event>
 3    0  0.1566778E+001  0.1250000E+03  0.7546771E-02  0.1235069E+00
         21   -1    0    0  502  501  0.00000000000E+00  0.00000000000E+00  0.32978201869E+03  0.32978201869E+03  0.00000000000E+00 0. -1.
         21   -1    0    0  501  502 -0.00000000000E+00 -0.00000000000E+00 -0.11844945384E+02  0.11844945384E+02  0.00000000000E+00 0. -1.
         25    1    1    2    0    0  0.00000000000E+00  0.00000000000E+00  0.31793707330E+03  0.34162696407E+03  0.12500000000E+03 0.  0.
<mgrwt>
<rscale>  2 0.12500000E+03</rscale>
<asrwt>0</asrwt>
<pdfrwt beam="1">  1       21 0.50735688E-01 0.12500000E+03</pdfrwt>
<pdfrwt beam="2">  1       21 0.18222995E-02 0.12500000E+03</pdfrwt>
<totfact> 0.52162815E+06</totfact>
</mgrwt>
</event>
<event>
 3    0  0.1509808E+001  0.1250000E+03  0.7546771E-02  0.1235069E+00
         21   -1    0    0  502  501  0.00000000000E+00  0.00000000000E+00  0.87828736863E+01  0.87828736863E+01  0.00000000000E+00 0. -1.
         21   -1    0    0  501  502 -0.00000000000E+00 -0.00000000000E+00 -0.44475762029E+03  0.44475762029E+03  0.00000000000E+00 0. -1.
         25    1    1    2    0    0  0.00000000000E+00  0.00000000000E+00 -0.43597474660E+03  0.45354049397E+03  0.12500000000E+03 0.  0.
<mgrwt>
<rscale>  2 0.12500000E+03</rscale>
<asrwt>0</asrwt>
<pdfrwt beam="1">  1       21 0.13512112E-02 0.12500000E+03</pdfrwt>
<pdfrwt beam="2">  1       21 0.68424257E-01 0.12500000E+03</pdfrwt>
<totfact> 0.44681166E+06</totfact>
</mgrwt>
</event>
<event>
 3    0  0.1412380E+001  0.1250000E+03  0.7546771E-02  0.1235069E+00
         21   -1    0    0  502  501  0.00000000000E+00  0.00000000000E+00  0.61342358561E+01  0.61342358561E+01  0.00000000000E+00 0.  1.
         21   -1    0    0  501  502 -0.00000000000E+00 -0.00000000000E+00 -0.63679488230E+03  0.63679488230E+03  0.00000000000E+00 0.  1.
         25    1    1    2    0    0  0.00000000000E+00  0.00000000000E+00 -0.63066064644E+03  0.64292911816E+03  0.12500000000E+03 0.  0.
<mgrwt>
<rscale>  2 0.12500000E+03</rscale>
<asrwt>0</asrwt>
<pdfrwt beam="1">  1       21 0.94372857E-03 0.12500000E+03</pdfrwt>
<pdfrwt beam="2">  1       21 0.97968446E-01 0.12500000E+03</pdfrwt>
<totfact> 0.35220325E+06</totfact>
</mgrwt>
</event>
<event>
 3    0  0.1675778E+001  0.1250000E+03  0.7546771E-02  0.1235069E+00
         21   -1    0    0  502  501  0.00000000000E+00  0.00000000000E+00  0.19688760757E+02  0.19688760757E+02  0.00000000000E+00 0.  1.
         21   -1    0    0  501  502 -0.00000000000E+00 -0.00000000000E+00 -0.19839999319E+03  0.19839999319E+03  0.00000000000E+00 0.  1.
         25    1    1    2    0    0  0.00000000000E+00  0.00000000000E+00 -0.17871123243E+03  0.21808875394E+03  0.12500000000E+03 0.  0.
<mgrwt>
<rscale>  2 0.12500000E+03</rscale>
<asrwt>0</asrwt>
<pdfrwt beam="1">  1       21 0.30290401E-02 0.12500000E+03</pdfrwt>
<pdfrwt beam="2">  1       21 0.30523077E-01 0.12500000E+03</pdfrwt>
<totfact> 0.63018425E+06</totfact>
</mgrwt>
</event>
<event>
 3    0  0.1732627E+001  0.1250000E+03  0.7546771E-02  0.1235069E+00
         21   -1    0    0  502  501  0.00000000000E+00  0.00000000000E+00  0.43095419872E+02  0.43095419872E+02  0.00000000000E+00 0.  1.
         21   -1    0    0  501  502 -0.00000000000E+00 -0.00000000000E+00 -0.90641882865E+02  0.90641882865E+02  0.00000000000E+00 0.  1.
         25    1    1    2    0    0  0.00000000000E+00  0.00000000000E+00 -0.47546462993E+02  0.13373730274E+03  0.12500000000E+03 0.  0.
<mgrwt>
<rscale>  2 0.12500000E+03</rscale>
<asrwt>0</asrwt>
<pdfrwt beam="1">  1       21 0.66300647E-02 0.12500000E+03</pdfrwt>
<pdfrwt beam="2">  1       21 0.13944905E-01 0.12500000E+03</pdfrwt>
<totfact> 0.72864101E+06</totfact>
</mgrwt>
</event>
<event>
 3    0  0.1426147E+001  0.1250000E+03  0.7546771E-02  0.1235069E+00
         21   -1    0    0  502  501  0.00000000000E+00  0.00000000000E+00  0.61692287212E+03  0.61692287212E+03  0.00000000000E+00 0. -1.
         21   -1    0    0  501  502 -0.00000000000E+00 -0.00000000000E+00 -0.63318287853E+01  0.63318287853E+01  0.00000000000E+00 0. -1.
         25    1    1    2    0    0  0.00000000000E+00  0.00000000000E+00  0.61059104334E+03  0.62325470091E+03  0.12500000000E+03 0.  0.
<mgrwt>
<rscale>  2 0.12500000E+03</rscale>
<asrwt>0</asrwt>
<pdfrwt beam="1">  1       21 0.94911164E-01 0.12500000E+03</pdfrwt>
<pdfrwt beam="2">  1       21 0.97412799E-03 0.12500000E+03</pdfrwt>
<totfact> 0.36061658E+06</totfact>
</mgrwt>
</event>
<event>
 3    0  0.1420721E+001  0.1250000E+03  0.7546771E-02  0.1235069E+00
         21   -1    0    0  502  501  0.00000000000E+00  0.00000000000E+00  0.76211008356E+01  0.76211008356E+01  0.00000000000E+00 0. -1.
         21   -1    0    0  501  502 -0.00000000000E+00 -0.00000000000E+00 -0.51255718619E+03  0.51255718619E+03  0.00000000000E+00 0. -1.
         25    1    1    2    0    0  0.00000000000E+00  0.00000000000E+00 -0.50493608536E+03  0.52017828703E+03  0.12500000000E+03 0.  0.
<mgrwt>
<rscale>  2 0.12500000E+03</rscale>
<asrwt>0</asrwt>
<pdfrwt beam="1">  1       21 0.11724769E-02 0.12500000E+03</pdfrwt>
<pdfrwt beam="2">  1       21 0.78854964E-01 0.12500000E+03</pdfrwt>
<totfact> 0.40970477E+06</totfact>
</mgrwt>
</event>
<event>
 3    0  0.1640603E+001  0.1250000E+03  0.7546771E-02  0.1235069E+00
         21   -1    0    0  502  501  0.00000000000E+00  0.00000000000E+00  0.17615018987E+02  0.17615018987E+02  0.00000000000E+00 0.  1.
         21   -1    0    0  501  502 -0.00000000000E+00 -0.00000000000E+00 -0.22175678623E+03  0.22175678623E+03  0.00000000000E+00 0.  1.
         25    1    1    2    0    0  0.00000000000E+00  0.00000000000E+00 -0.20414176725E+03  0.23937180522E+03  0.12500000000E+03 0.  0.
<mgrwt>
<rscale>  2 0.12500000E+03</rscale>
<asrwt>0</asrwt>
<pdfrwt beam="1">  1       21 0.27100033E-02 0.12500000E+03</pdfrwt>
<pdfrwt beam="2">  1       21 0.34116424E-01 0.12500000E+03</pdfrwt>
<totfact> 0.60893507E+06</totfact>
</mgrwt>
</event>
<event>
 3    0  0.1578465E+001  0.1250000E+03  0.7546771E-02  0.1235069E+00
         21   -1    0    0  502  501  0.00000000000E+00  0.00000000000E+00  0.13908005864E+02  0.13908005864E+02  0.00000000000E+00 0. -1.
         21   -1    0    0  501  502 -0.00000000000E+00 -0.00000000000E+00 -0.28086341336E+03  0.28086341336E+03  0.00000000000E+00 0. -1.
         25    1    1    2    0    0  0.00000000000E+00  0.00000000000E+00 -0.26695540749E+03  0.29477141922E+03  0.12500000000E+03 0.  0.
<mgrwt>
<rscale>  2 0.12500000E+03</rscale>
<asrwt>0</asrwt>
<pdfrwt beam="1">  1       21 0.21396934E-02 0.12500000E+03</pdfrwt>
<pdfrwt beam="2">  1       21 0.43209752E-01 0.12500000E+03</pdfrwt>
<totfact> 0.55893509E+06</totfact>
</mgrwt>
</event>
<event>
 3    0  0.1736294E+001  0.1250000E+03  0.7546771E-02  0.1235069E+00
         21   -1    0    0  502  501  0.00000000000E+00  0.00000000000E+00  0.81838432044E+02  0.81838432044E+02  0.00000000000E+00 0.  1.
         21   -1    0    0  501  502 -0.00000000000E+00 -0.00000000000E+00 -0.47731241941E+02  0.47731241941E+02  0.00000000000E+00 0.  1.
         25    1    1    2    0    0  0.00000000000E+00  0.00000000000E+00  0.34107190103E+02  0.12956967399E+03  0.12500000000E+03 0.  0.
<mgrwt>
<rscale>  2 0.12500000E+03</rscale>
<asrwt>0</asrwt>
<pdfrwt beam="1">  1       21 0.12590528E-01 0.12500000E+03</pdfrwt>
<pdfrwt beam="2">  1       21 0.73432680E-02 0.12500000E+03</pdfrwt>
<totfact> 0.73422484E+06</totfact>
</mgrwt>
</event>
<event>
 3    0  0.1613092E+001  0.1250000E+03  0.7546771E-02  0.1235069E+00
         21   -1    0    0  502  501  0.00000000000E+00  0.00000000000E+00  0.13454467628E+02  0.13454467628E+02  0.00000000000E+00 0.  1.
         21   -1    0    0  501  502 -0.00000000000E+00 -0.00000000000E+00 -0.29033107129E+03  0.29033107129E+03  0.00000000000E+00 0.  1.
         25    1    1    2    0    0  0.00000000000E+00  0.00000000000E+00 -0.27687660366E+03  0.30378553892E+03  0.12500000000E+03 0.  0.
<mgrwt>
<rscale>  2 0.12500000E+03</rscale>
<asrwt>0</asrwt>
<pdfrwt beam="1">  1       21 0.20699184E-02 0.12500000E+03</pdfrwt>
<pdfrwt beam="2">  1       21 0.44666311E-01 0.12500000E+03</pdfrwt>
<totfact> 0.55143044E+06</totfact>
</mgrwt>
</event>
<event>
 3    0  0.1562147E+001  0.1250000E+03  0.7546771E-02  0.1235069E+00
         21   -1    0    0  502  501  0.00000000000E+00  0.00000000000E+00  0.35545368944E+03  0.35545368944E+03  0.00000000000E+00 0. -1.
         21   -1    0    0  501  502 -0.00000000000E+00 -0.00000000000E+00 -0.10989476593E+02  0.10989476593E+02  0.00000000000E+00 0. -1.
         25    1    1    2    0    0  0.00000000000E+00  0.00000000000E+00  0.34446421284E+03  0.36644316603E+03  0.12500000000E+03 0.  0.
<mgrwt>
<rscale>  2 0.12500000E+03</rscale>
<asrwt>0</asrwt>
<pdfrwt beam="1">  1       21 0.54685174E-01 0.12500000E+03</pdfrwt>
<pdfrwt beam="2">  1       21 0.16906890E-02 0.12500000E+03</pdfrwt>
<totfact> 0.50346518E+06</totfact>
</mgrwt>
</event>
<event>
 3    0  0.1479518E+001  0.1250000E+03  0.7546771E-02  0.1235069E+00
         21   -1    0    0  502  501  0.00000000000E+00  0.00000000000E+00  0.79428964817E+01  0.79428964817E+01  0.00000000000E+00 0.  1.
         21   -1    0    0  501  502 -0.00000000000E+00 -0.00000000000E+00 -0.49179162904E+03  0.49179162904E+03  0.00000000000E+00 0.  1.
         25    1    1    2    0    0  0.00000000000E+00  0.00000000000E+00 -0.48384873255E+03  0.49973452552E+03  0.12500000000E+03 0.  0.
<mgrwt>
<rscale>  2 0.12500000E+03</rscale>
<asrwt>0</asrwt>
<pdfrwt beam="1">  1       21 0.12219840E-02 0.12500000E+03</pdfrwt>
<pdfrwt beam="2">  1       21 0.75660257E-01 0.12500000E+03</pdfrwt>
<totfact> 0.42058469E+06</totfact>
</mgrwt>
</event>
<event>
 3    0  0.1368989E+001  0.1250000E+03  0.7546771E-02  0.1235069E+00
         21   -1    0    0  502  501  0.00000000000E+00  0.00000000000E+00  0.21882235935E+01  0.21882235935E+01  0.00000000000E+00 0.  1.
         21   -1    0    0  501  502 -0.00000000000E+00 -0.00000000000E+00 -0.17851237925E+04  0.17851237925E+04  0.00000000000E+00 0.  1.
         25    1    1    2    0    0  0.00000000000E+00  0.00000000000E+00 -0.17829355689E+04  0.17873120161E+04  0.12500000000E+03 0.  0.
<mgrwt>
<rscale>  2 0.12500000E+03</rscale>
<asrwt>0</asrwt>
<pdfrwt beam="1">  1       21 0.33665080E-03 0.12500000E+03</pdfrwt>
<pdfrwt beam="2">  1       21 0.27463360E+00 0.12500000E+03</pdfrwt>
<totfact> 0.10216753E+06</totfact>
</mgrwt>
</event>
<event>
 3    0  0.1654082E+001  0.1250000E+03  0.7546771E-02  0.1235069E+00
         21   -1    0    0  502  501  0.00000000000E+00  0.00000000000E+00  0.17400037114E+02  0.17400037114E+02  0.00000000000E+00 0.  1.
         21   -1    0    0  501  502 -0.00000000000E+00 -0.00000000000E+00 -0.22449664759E+03  0.22449664759E+03  0.00000000000E+00 0.  1.
         25    1    1    2    0    0  0.00000000000E+00  0.00000000000E+00 -0.20709661047E+03  0.24189668470E+03  0.12500000000E+03 0.  0.
<mgrwt>
<rscale>  2 0.12500000E+03</rscale>
<asrwt>0</asrwt>
<pdfrwt beam="1">  1       21 0.26769287E-02 0.12500000E+03</pdfrwt>
<pdfrwt beam="2">  1       21 0.34537947E-01 0.12500000E+03</pdfrwt>
<totfact> 0.60649605E+06</totfact>
</mgrwt>
</event>
<event>
 3    0  0.1368989E+001  0.1250000E+03  0.7546771E-02  0.1235069E+00
         21   -1    0    0  502  501  0.00000000000E+00  0.00000000000E+00  0.31760507550E+01  0.31760507550E+01  0.00000000000E+00 0.  1.
         21   -1    0    0  501  502 -0.00000000000E+00 -0.00000000000E+00 -0.12299079270E+04  0.12299079270E+04  0.00000000000E+00 0.  1.
         25    1    1    2    0    0  0.00000000000E+00  0.00000000000E+00 -0.12267318762E+04  0.12330839777E+04  0.12500000000E+03 0.  0.
<mgrwt>
<rscale>  2 0.12500000E+03</rscale>
<asrwt>0</asrwt>
<pdfrwt beam="1">  1       21 0.48862312E-03 0.12500000E+03</pdfrwt>
<pdfrwt beam="2">  1       21 0.18921663E+00 0.12500000E+03</pdfrwt>
<totfact> 0.18496306E+06</totfact>
</mgrwt>
</event>
<event>
 3    0  0.1368989E+001  0.1250000E+03  0.7546771E-02  0.1235069E+00
         21   -1    0    0  502  501  0.00000000000E+00  0.00000000000E+00  0.16778180693E+04  0.16778180693E+04  0.00000000000E+00 0.  1.
         21   -1    0    0  501  502 -0.00000000000E+00 -0.00000000000E+00 -0.23281725662E+01  0.23281725662E+01  0.00000000000E+00 0.  1.
         25    1    1    2    0    0  0.00000000000E+00  0.00000000000E+00  0.16754898967E+04  0.16801462419E+04  0.12500000000E+03 0.  0.
<mgrwt>
<rscale>  2 0.12500000E+03</rscale>
<asrwt>0</asrwt>
<pdfrwt beam="1">  1       21 0.25812489E+00 0.12500000E+03</pdfrwt>
<pdfrwt beam="2">  1       21 0.35818174E-03 0.12500000E+03</pdfrwt>
<totfact> 0.11519938E+06</totfact>
</mgrwt>
</event>
<event>
 3    0  0.1663814E+001  0.1250000E+03  0.7546771E-02  0.1235069E+00
         21   -1    0    0  502  501  0.00000000000E+00  0.00000000000E+00  0.16004717969E+03  0.16004717969E+03  0.00000000000E+00 0. -1.
         21   -1    0    0  501  502 -0.00000000000E+00 -0.00000000000E+00 -0.24406865573E+02  0.24406865573E+02  0.00000000000E+00 0. -1.
         25    1    1    2    0    0  0.00000000000E+00  0.00000000000E+00  0.13564031412E+03  0.18445404526E+03  0.12500000000E+03 0.  0.
<mgrwt>
<rscale>  2 0.12500000E+03</rscale>
<asrwt>0</asrwt>
<pdfrwt beam="1">  1       21 0.24622642E-01 0.12500000E+03</pdfrwt>
<pdfrwt beam="2">  1       21 0.37549025E-02 0.12500000E+03</pdfrwt>
<totfact> 0.66644220E+06</totfact>
</mgrwt>
</event>
<event>
 3    0  0.1686435E+001  0.1250000E+03  0.7546771E-02  0.1235069E+00
         21   -1    0    0  502  501  0.00000000000E+00  0.00000000000E+00  0.22863530720E+02  0.22863530720E+02  0.00000000000E+00 0.  1.
         21   -1    0    0  501  502 -0.00000000000E+00 -0.00000000000E+00 -0.17085069003E+03  0.17085069003E+03  0.00000000000E+00 0.  1.
         25    1    1    2    0    0  0.00000000000E+00  0.00000000000E+00 -0.14798715931E+03  0.19371422075E+03  0.12500000000E+03 0.  0.
<mgrwt>
<rscale>  2 0.12500000E+03</rscale>
<asrwt>0</asrwt>
<pdfrwt beam="1">  1       21 0.35174663E-02 0.12500000E+03</pdfrwt>
<pdfrwt beam="2">  1       21 0.26284721E-01 0.12500000E+03</pdfrwt>
<totfact> 0.65612022E+06</totfact>
</mgrwt>
</event>
<event>
 3    0  0.1368989E+001  0.1250000E+03  0.7546771E-02  0.1235069E+00
         21   -1    0    0  502  501  0.00000000000E+00  0.00000000000E+00  0.11400711170E+04  0.11400711170E+04  0.00000000000E+00 0.  1.
         21   -1    0    0  501  502 -0.00000000000E+00 -0.00000000000E+00 -0.34263213423E+01  0.34263213423E+01  0.00000000000E+00 0.  1.
         25    1    1    2    0    0  0.00000000000E+00  0.00000000000E+00  0.11366447957E+04  0.11434974384E+04  0.12500000000E+03 0.  0.
<mgrwt>
<rscale>  2 0.12500000E+03</rscale>
<asrwt>0</asrwt>
<pdfrwt beam="1">  1       21 0.17539525E+00 0.12500000E+03</pdfrwt>
<pdfrwt beam="2">  1       21 0.52712727E-03 0.12500000E+03</pdfrwt>
<totfact> 0.20307028E+06</totfact>
</mgrwt>
</event>
<event>
 3    0  0.1657039E+001  0.1250000E+03  0.7546771E-02  0.1235069E+00
         21   -1    0    0  502  501  0.00000000000E+00  0.00000000000E+00  0.21456956833E+03  0.21456956833E+03  0.00000000000E+00 0.  1.
         21   -1    0    0  501  502 -0.00000000000E+00 -0.00000000000E+00 -0.18205051305E+02  0.18205051305E+02  0.00000000000E+00 0.  1.
         25    1    1    2    0    0  0.00000000000E+00  0.00000000000E+00  0.19636451702E+03  0.23277461963E+03  0.12500000000E+03 0.  0.
<mgrwt>
<rscale>  2 0.12500000E+03</rscale>
<asrwt>0</asrwt>
<pdfrwt beam="1">  1       21 0.33010701E-01 0.12500000E+03</pdfrwt>
<pdfrwt beam="2">  1       21 0.28007773E-02 0.12500000E+03</pdfrwt>
<totfact> 0.61538936E+06</totfact>
</mgrwt>
</event>
<event>
 3    0  0.1624067E+001  0.1250000E+03  0.7546771E-02  0.1235069E+00
         21   -1    0    0  502  501  0.00000000000E+00  0.00000000000E+00  0.17192282210E+02  0.17192282210E+02  0.00000000000E+00 0. -1.
         21   -1    0    0  501  502 -0.00000000000E+00 -0.00000000000E+00 -0.22720950903E+03  0.22720950903E+03  0.00000000000E+00 0. -1.
         25    1    1    2    0    0  0.00000000000E+00  0.00000000000E+00 -0.21001722682E+03  0.24440179124E+03  0.12500000000E+03 0.  0.
<mgrwt>
<rscale>  2 0.12500000E+03</rscale>
<asrwt>0</asrwt>
<pdfrwt beam="1">  1       21 0.26449665E-02 0.12500000E+03</pdfrwt>
<pdfrwt beam="2">  1       21 0.34955309E-01 0.12500000E+03</pdfrwt>
<totfact> 0.60409293E+06</totfact>
</mgrwt>
</event>
<event>
 3    0  0.1702510E+001  0.1250000E+03  0.7546771E-02  0.1235069E+00
         21   -1    0    0  502  501  0.00000000000E+00  0.00000000000E+00  0.35085306306E+02  0.35085306306E+02  0.00000000000E+00 0. -1.
         21   -1    0    0  501  502 -0.00000000000E+00 -0.00000000000E+00 -0.11133578159E+03  0.11133578159E+03  0.00000000000E+00 0. -1.
         25    1    1    2    0    0  0.00000000000E+00  0.00000000000E+00 -0.76250475288E+02  0.14642108790E+03  0.12500000000E+03 0.  0.
<mgrwt>
<rscale>  2 0.12500000E+03</rscale>
<asrwt>0</asrwt>
<pdfrwt beam="1">  1       21 0.53977396E-02 0.12500000E+03</pdfrwt>
<pdfrwt beam="2">  1       21 0.17128581E-01 0.12500000E+03</pdfrwt>
<totfact> 0.71211728E+06</totfact>
</mgrwt>
</event>
<event>
 3    0  0.1368989E+001  0.1250000E+03  0.7546771E-02  0.1235069E+00
         21   -1    0    0  502  501  0.00000000000E+00  0.00000000000E+00  0.37409721994E+01  0.37409721994E+01  0.00000000000E+00 0. -1.
         21   -1    0    0  501  502 -0.00000000000E+00 -0.00000000000E+00 -0.10441804408E+04  0.10441804408E+04  0.00000000000E+00 0. -1.
         25    1    1    2    0    0  0.00000000000E+00  0.00000000000E+00 -0.10404394686E+04  0.10479214130E+04  0.12500000000E+03 0.  0.
<mgrwt>
<rscale>  2 0.12500000E+03</rscale>
<asrwt>0</asrwt>
<pdfrwt beam="1">  1       21 0.57553404E-03 0.12500000E+03</pdfrwt>
<pdfrwt beam="2">  1       21 0.16064318E+00 0.12500000E+03</pdfrwt>
<totfact> 0.22448315E+06</totfact>
</mgrwt>
</event>
<event>
 3    0  0.1655137E+001  0.1250000E+03  0.7546771E-02  0.1235069E+00
         21   -1    0    0  502  501  0.00000000000E+00  0.00000000000E+00  0.17954219884E+03  0.17954219884E+03  0.00000000000E+00 0. -1.
         21   -1    0    0  501  502 -0.00000000000E+00 -0.00000000000E+00 -0.21756723630E+02  0.21756723630E+02  0.00000000000E+00 0. -1.
         25    1    1    2    0    0  0.00000000000E+00  0.00000000000E+00  0.15778547521E+03  0.20129892247E+03  0.12500000000E+03 0.  0.
<mgrwt>
<rscale>  2 0.12500000E+03</rscale>
<asrwt>0</asrwt>
<pdfrwt beam="1">  1       21 0.27621876E-01 0.12500000E+03</pdfrwt>
<pdfrwt beam="2">  1       21 0.33471884E-02 0.12500000E+03</pdfrwt>
<totfact> 0.64786777E+06</totfact>
</mgrwt>
</event>
<event>
 3    0  0.1718866E+001  0.1250000E+03  0.7546771E-02  0.1235069E+00
         21   -1    0    0  502  501  0.00000000000E+00  0.00000000000E+00  0.11544011760E+03  0.11544011760E+03  0.00000000000E+00 0.  1.
         21   -1    0    0  501  502 -0.00000000000E+00 -0.00000000000E+00 -0.33837889992E+02  0.33837889992E+02  0.00000000000E+00 0.  1.
         25    1    1    2    0    0  0.00000000000E+00  0.00000000000E+00  0.81602227606E+02  0.14927800759E+03  0.12500000000E+03 0.  0.
<mgrwt>
<rscale>  2 0.12500000E+03</rscale>
<asrwt>0</asrwt>
<pdfrwt beam="1">  1       21 0.17760018E-01 0.12500000E+03</pdfrwt>
<pdfrwt beam="2">  1       21 0.52058293E-02 0.12500000E+03</pdfrwt>
<totfact> 0.70850014E+06</totfact>
</mgrwt>
</event>
<event>
 3    0  0.1607276E+001  0.1250000E+03  0.7546771E-02  0.1235069E+00
         21   -1    0    0  502  501  0.00000000000E+00  0.00000000000E+00  0.15856017190E+02  0.15856017190E+02  0.00000000000E+00 0. -1.
         21   -1    0    0  501  502 -0.00000000000E+00 -0.00000000000E+00 -0.24635757852E+03  0.24635757852E+03  0.00000000000E+00 0. -1.
         25    1    1    2    0    0  0.00000000000E+00  0.00000000000E+00 -0.23050156133E+03  0.26221359571E+03  0.12500000000E+03 0.  0.
<mgrwt>
<rscale>  2 0.12500000E+03</rscale>
<asrwt>0</asrwt>
<pdfrwt beam="1">  1       21 0.24393874E-02 0.12500000E+03</pdfrwt>
<pdfrwt beam="2">  1       21 0.37901164E-01 0.12500000E+03</pdfrwt>
<totfact> 0.58746976E+06</totfact>
</mgrwt>
</event>
<event>
 3    0  0.1714745E+001  0.1250000E+03  0.7546771E-02  0.1235069E+00
         21   -1    0    0  502  501  0.00000000000E+00  0.00000000000E+00  0.31304639877E+02  0.31304639877E+02  0.00000000000E+00 0.  1.
         21   -1    0    0  501  502 -0.00000000000E+00 -0.00000000000E+00 -0.12478182197E+03  0.12478182197E+03  0.00000000000E+00 0.  1.
         25    1    1    2    0    0  0.00000000000E+00  0.00000000000E+00 -0.93477182092E+02  0.15608646185E+03  0.12500000000E+03 0.  0.
<mgrwt>
<rscale>  2 0.12500000E+03</rscale>
<asrwt>0</asrwt>
<pdfrwt beam="1">  1       21 0.48160985E-02 0.12500000E+03</pdfrwt>
<pdfrwt beam="2">  1       21 0.19197203E-01 0.12500000E+03</pdfrwt>
<totfact> 0.70000877E+06</totfact>
</mgrwt>
</event>
<event>
 3    0  0.1701416E+001  0.1250000E+03  0.7546771E-02  0.1235069E+00
         21   -1    0    0  502  501  0.00000000000E+00  0.00000000000E+00  0.37124252918E+02  0.37124252918E+02  0.00000000000E+00 0. -1.
         21   -1    0    0  501  502 -0.00000000000E+00 -0.00000000000E+00 -0.10522097263E+03  0.10522097263E+03  0.00000000000E+00 0. -1.
         25    1    1    2    0    0  0.00000000000E+00  0.00000000000E+00 -0.68096719707E+02  0.14234522554E+03  0.12500000000E+03 0.  0.
<mgrwt>
<rscale>  2 0.12500000E+03</rscale>
<asrwt>0</asrwt>
<pdfrwt beam="1">  1       21 0.57114236E-02 0.12500000E+03</pdfrwt>
<pdfrwt beam="2">  1       21 0.16187842E-01 0.12500000E+03</pdfrwt>
<totfact> 0.71734604E+06</totfact>
</mgrwt>
</event>
<event>
 3    0  0.1479566E+001  0.1250000E+03  0.7546771E-02  0.1235069E+00
         21   -1    0    0  502  501  0.00000000000E+00  0.00000000000E+00  0.79433080539E+01  0.79433080539E+01  0.00000000000E+00 0.  1.
         21   -1    0    0  501  502 -0.00000000000E+00 -0.00000000000E+00 -0.49176614749E+03  0.49176614749E+03  0.00000000000E+00 0.  1.
         25    1    1    2    0    0  0.00000000000E+00  0.00000000000E+00 -0.48382283943E+03  0.49970945554E+03  0.12500000000E+03 0.  0.
<mgrwt>
<rscale>  2 0.12500000E+03</rscale>
<asrwt>0</asrwt>
<pdfrwt beam="1">  1       21 0.12220474E-02 0.12500000E+03</pdfrwt>
<pdfrwt beam="2">  1       21 0.75656329E-01 0.12500000E+03</pdfrwt>
<totfact> 0.42059832E+06</totfact>
</mgrwt>
</event>
<event>
 3    0  0.1706054E+001  0.1250000E+03  0.7546771E-02  0.1235069E+00
         21   -1    0    0  502  501  0.00000000000E+00  0.00000000000E+00  0.26598374362E+02  0.26598374362E+02  0.00000000000E+00 0.  1.
         21   -1    0    0  501  502 -0.00000000000E+00 -0.00000000000E+00 -0.14686047902E+03  0.14686047902E+03  0.00000000000E+00 0.  1.
         25    1    1    2    0    0  0.00000000000E+00  0.00000000000E+00 -0.12026210466E+03  0.17345885338E+03  0.12500000000E+03 0.  0.
<mgrwt>
<rscale>  2 0.12500000E+03</rscale>
<asrwt>0</asrwt>
<pdfrwt beam="1">  1       21 0.40920577E-02 0.12500000E+03</pdfrwt>
<pdfrwt beam="2">  1       21 0.22593919E-01 0.12500000E+03</pdfrwt>
<totfact> 0.67909955E+06</totfact>
</mgrwt>
</event>
<event>
 3    0  0.1740468E+001  0.1250000E+03  0.7546771E-02  0.1235069E+00
         21   -1    0    0  502  501  0.00000000000E+00  0.00000000000E+00  0.59361127104E+02  0.59361127104E+02  0.00000000000E+00 0.  1.
         21   -1    0    0  501  502 -0.00000000000E+00 -0.00000000000E+00 -0.65804848906E+02  0.65804848906E+02  0.00000000000E+00 0.  1.
         25    1    1    2    0    0  0.00000000000E+00  0.00000000000E+00 -0.64437218016E+01  0.12516597601E+03  0.12500000000E+03 0.  0.
<mgrwt>
<rscale>  2 0.12500000E+03</rscale>
<asrwt>0</asrwt>
<pdfrwt beam="1">  1       21 0.91324811E-02 0.12500000E+03</pdfrwt>
<pdfrwt beam="2">  1       21 0.10123823E-01 0.12500000E+03</pdfrwt>
<totfact> 0.74021166E+06</totfact>
</mgrwt>
</event>
<event>
 3    0  0.1698701E+001  0.1250000E+03  0.7546771E-02  0.1235069E+00
         21   -1    0    0  502  501  0.00000000000E+00  0.00000000000E+00  0.16571405530E+03  0.16571405530E+03  0.00000000000E+00 0.  1.
         21   -1    0    0  501  502 -0.00000000000E+00 -0.00000000000E+00 -0.23572231051E+02  0.23572231051E+02  0.00000000000E+00 0.  1.
         25    1    1    2    0    0  0.00000000000E+00  0.00000000000E+00  0.14214182425E+03  0.18928628635E+03  0.12500000000E+03 0.  0.
<mgrwt>
<rscale>  2 0.12500000E+03</rscale>
<asrwt>0</asrwt>
<pdfrwt beam="1">  1       21 0.25494469E-01 0.12500000E+03</pdfrwt>
<pdfrwt beam="2">  1       21 0.36264972E-02 0.12500000E+03</pdfrwt>
<totfact> 0.66101875E+06</totfact>
</mgrwt>
</event>
<event>
 3    0  0.1659308E+001  0.1250000E+03  0.7546771E-02  0.1235069E+00
         21   -1    0    0  502  501  0.00000000000E+00  0.00000000000E+00  0.20494156557E+03  0.20494156557E+03  0.00000000000E+00 0.  1.
         21   -1    0    0  501  502 -0.00000000000E+00 -0.00000000000E+00 -0.19060311114E+02  0.19060311114E+02  0.00000000000E+00 0.  1.
         25    1    1    2    0    0  0.00000000000E+00  0.00000000000E+00  0.18588125446E+03  0.22400187669E+03  0.12500000000E+03 0.  0.
<mgrwt>
<rscale>  2 0.12500000E+03</rscale>
<asrwt>0</asrwt>
<pdfrwt beam="1">  1       21 0.31529470E-01 0.12500000E+03</pdfrwt>
<pdfrwt beam="2">  1       21 0.29323557E-02 0.12500000E+03</pdfrwt>
<totfact> 0.62415817E+06</totfact>
</mgrwt>
</event>
<event>
 3    0  0.1390861E+001  0.1250000E+03  0.7546771E-02  0.1235069E+00
         21   -1    0    0  502  501  0.00000000000E+00  0.00000000000E+00  0.69231077168E+03  0.69231077168E+03  0.00000000000E+00 0.  1.
         21   -1    0    0  501  502 -0.00000000000E+00 -0.00000000000E+00 -0.56423360141E+01  0.56423360141E+01  0.00000000000E+00 0.  1.
         25    1    1    2    0    0  0.00000000000E+00  0.00000000000E+00  0.68666843567E+03  0.69795310770E+03  0.12500000000E+03 0.  0.
<mgrwt>
<rscale>  2 0.12500000E+03</rscale>
<asrwt>0</asrwt>
<pdfrwt beam="1">  1       21 0.10650928E+00 0.12500000E+03</pdfrwt>
<pdfrwt beam="2">  1       21 0.86805224E-03 0.12500000E+03</pdfrwt>
<totfact> 0.32989220E+06</totfact>
</mgrwt>
</event>
<event>
 3    0  0.1625078E+001  0.1250000E+03  0.7546771E-02  0.1235069E+00
         21   -1    0    0  502  501  0.00000000000E+00  0.00000000000E+00  0.23609270896E+03  0.23609270896E+03  0.00000000000E+00 0.  1.
         21   -1    0    0  501  502 -0.00000000000E+00 -0.00000000000E+00 -0.16545407171E+02  0.16545407171E+02  0.00000000000E+00 0.  1.
         25    1    1    2    0    0  0.00000000000E+00  0.00000000000E+00  0.21954730179E+03  0.25263811613E+03  0.12500000000E+03 0.  0.
<mgrwt>
<rscale>  2 0.12500000E+03</rscale>
<asrwt>0</asrwt>
<pdfrwt beam="1">  1       21 0.36321953E-01 0.12500000E+03</pdfrwt>
<pdfrwt beam="2">  1       21 0.25454474E-02 0.12500000E+03</pdfrwt>
<totfact> 0.59630701E+06</totfact>
</mgrwt>
</event>
<event>
 3    0  0.1537306E+001  0.1250000E+03  0.7546771E-02  0.1235069E+00
         21   -1    0    0  502  501  0.00000000000E+00  0.00000000000E+00  0.38365160408E+03  0.38365160408E+03  0.00000000000E+00 0. -1.
         21   -1    0    0  501  502 -0.00000000000E+00 -0.00000000000E+00 -0.10181763763E+02  0.10181763763E+02  0.00000000000E+00 0. -1.
         25    1    1    2    0    0  0.00000000000E+00  0.00000000000E+00  0.37346984032E+03  0.39383336784E+03  0.12500000000E+03 0.  0.
<mgrwt>
<rscale>  2 0.12500000E+03</rscale>
<asrwt>0</asrwt>
<pdfrwt beam="1">  1       21 0.59023313E-01 0.12500000E+03</pdfrwt>
<pdfrwt beam="2">  1       21 0.15664255E-02 0.12500000E+03</pdfrwt>
<totfact> 0.48453089E+06</totfact>
</mgrwt>
</event>
<event>
 3    0  0.1511993E+001  0.1250000E+03  0.7546771E-02  0.1235069E+00
         21   -1    0    0  502  501  0.00000000000E+00  0.00000000000E+00  0.39599249745E+03  0.39599249745E+03  0.00000000000E+00 0. -1.
         21   -1    0    0  501  502 -0.00000000000E+00 -0.00000000000E+00 -0.98644545672E+01  0.98644545672E+01  0.00000000000E+00 0. -1.
         25    1    1    2    0    0  0.00000000000E+00  0.00000000000E+00  0.38612804288E+03  0.40585695201E+03  0.12500000000E+03 0.  0.
<mgrwt>
<rscale>  2 0.12500000E+03</rscale>
<asrwt>0</asrwt>
<pdfrwt beam="1">  1       21 0.60921910E-01 0.12500000E+03</pdfrwt>
<pdfrwt beam="2">  1       21 0.15176087E-02 0.12500000E+03</pdfrwt>
<totfact> 0.47655282E+06</totfact>
</mgrwt>
</event>
<event>
 3    0  0.1442958E+001  0.1250000E+03  0.7546771E-02  0.1235069E+00
         21   -1    0    0  502  501  0.00000000000E+00  0.00000000000E+00  0.55019134971E+03  0.55019134971E+03  0.00000000000E+00 0.  1.
         21   -1    0    0  501  502 -0.00000000000E+00 -0.00000000000E+00 -0.70998026452E+01  0.70998026452E+01  0.00000000000E+00 0.  1.
         25    1    1    2    0    0  0.00000000000E+00  0.00000000000E+00  0.54309154706E+03  0.55729115235E+03  0.12500000000E+03 0.  0.
<mgrwt>
<rscale>  2 0.12500000E+03</rscale>
<asrwt>0</asrwt>
<pdfrwt beam="1">  1       21 0.84644789E-01 0.12500000E+03</pdfrwt>
<pdfrwt beam="2">  1       21 0.10922778E-02 0.12500000E+03</pdfrwt>
<totfact> 0.39098189E+06</totfact>
</mgrwt>
</event>
<event>
 3    0  0.1368989E+001  0.1250000E+03  0.7546771E-02  0.1235069E+00
         21   -1    0    0  502  501  0.00000000000E+00  0.00000000000E+00  0.25636609791E+01  0.25636609791E+01  0.00000000000E+00 0.  1.
         21   -1    0    0  501  502 -0.00000000000E+00 -0.00000000000E+00 -0.15236999088E+04  0.15236999088E+04  0.00000000000E+00 0.  1.
         25    1    1    2    0    0  0.00000000000E+00  0.00000000000E+00 -0.15211362478E+04  0.15262635697E+04  0.12500000000E+03 0.  0.
<mgrwt>
<rscale>  2 0.12500000E+03</rscale>
<asrwt>0</asrwt>
<pdfrwt beam="1">  1       21 0.39440994E-03 0.12500000E+03</pdfrwt>
<pdfrwt beam="2">  1       21 0.23441504E+00 0.12500000E+03</pdfrwt>
<totfact> 0.13607847E+06</totfact>
</mgrwt>
</event>
<event>
 3    0  0.1701534E+001  0.1250000E+03  0.7546771E-02  0.1235069E+00
         21   -1    0    0  502  501  0.00000000000E+00  0.00000000000E+00  0.38340441942E+02  0.38340441942E+02  0.00000000000E+00 0. -1.
         21   -1    0    0  501  502 -0.00000000000E+00 -0.00000000000E+00 -0.10188328048E+03  0.10188328048E+03  0.00000000000E+00 0. -1.
         25    1    1    2    0    0  0.00000000000E+00  0.00000000000E+00 -0.63542838535E+02  0.14022372242E+03  0.12500000000E+03 0.  0.
<mgrwt>
<rscale>  2 0.12500000E+03</rscale>
<asrwt>0</asrwt>
<pdfrwt beam="1">  1       21 0.58985295E-02 0.12500000E+03</pdfrwt>
<pdfrwt beam="2">  1       21 0.15674351E-01 0.12500000E+03</pdfrwt>
<totfact> 0.72010115E+06</totfact>
</mgrwt>
</event>
<event>
 3    0  0.1528592E+001  0.1250000E+03  0.7546771E-02  0.1235069E+00
         21   -1    0    0  502  501  0.00000000000E+00  0.00000000000E+00  0.38786629436E+03  0.38786629436E+03  0.00000000000E+00 0. -1.
         21   -1    0    0  501  502 -0.00000000000E+00 -0.00000000000E+00 -0.10071125171E+02  0.10071125171E+02  0.00000000000E+00 0. -1.
         25    1    1    2    0    0  0.00000000000E+00  0.00000000000E+00  0.37779516919E+03  0.39793741953E+03  0.12500000000E+03 0.  0.
<mgrwt>
<rscale>  2 0.12500000E+03</rscale>
<asrwt>0</asrwt>
<pdfrwt beam="1">  1       21 0.59671726E-01 0.12500000E+03</pdfrwt>
<pdfrwt beam="2">  1       21 0.15494042E-02 0.12500000E+03</pdfrwt>
<totfact> 0.48178466E+06</totfact>
</mgrwt>
</event>
<event>
 3    0  0.1739558E+001  0.1250000E+03  0.7546771E-02  0.1235069E+00
         21   -1    0    0  502  501  0.00000000000E+00  0.00000000000E+00  0.67454990239E+02  0.67454990239E+02  0.00000000000E+00 0.  1.
         21   -1    0    0  501  502 -0.00000000000E+00 -0.00000000000E+00 -0.57908984735E+02  0.57908984735E+02  0.00000000000E+00 0.  1.
         25    1    1    2    0    0  0.00000000000E+00  0.00000000000E+00  0.95460055041E+01  0.12536397497E+03  0.12500000000E+03 0.  0.
<mgrwt>
<rscale>  2 0.12500000E+03</rscale>
<asrwt>0</asrwt>
<pdfrwt beam="1">  1       21 0.10377691E-01 0.12500000E+03</pdfrwt>
<pdfrwt beam="2">  1       21 0.89090746E-02 0.12500000E+03</pdfrwt>
<totfact> 0.73994436E+06</totfact>
</mgrwt>
</event>
<event>
 3    0  0.1368989E+001  0.1250000E+03  0.7546771E-02  0.1235069E+00
         21   -1    0    0  502  501  0.00000000000E+00  0.00000000000E+00  0.15757539751E+04  0.15757539751E+04  0.00000000000E+00 0. -1.
         21   -1    0    0  501  502 -0.00000000000E+00 -0.00000000000E+00 -0.24789720107E+01  0.24789720107E+01  0.00000000000E+00 0. -1.
         25    1    1    2    0    0  0.00000000000E+00  0.00000000000E+00  0.15732750031E+04  0.15782329471E+04  0.12500000000E+03 0.  0.
<mgrwt>
<rscale>  2 0.12500000E+03</rscale>
<asrwt>0</asrwt>
<pdfrwt beam="1">  1       21 0.24242289E+00 0.12500000E+03</pdfrwt>
<pdfrwt beam="2">  1       21 0.38138157E-03 0.12500000E+03</pdfrwt>
<totfact> 0.12872028E+06</totfact>
</mgrwt>
</event>
<event>
 3    0  0.1368989E+001  0.1250000E+03  0.7546771E-02  0.1235069E+00
         21   -1    0    0  502  501  0.00000000000E+00  0.00000000000E+00  0.36638452664E+01  0.36638452664E+01  0.00000000000E+00 0.  1.
         21   -1    0    0  501  502 -0.00000000000E+00 -0.00000000000E+00 -0.10661612912E+04  0.10661612912E+04  0.00000000000E+00 0.  1.
         25    1    1    2    0    0  0.00000000000E+00  0.00000000000E+00 -0.10624974459E+04  0.10698251365E+04  0.12500000000E+03 0.  0.
<mgrwt>
<rscale>  2 0.12500000E+03</rscale>
<asrwt>0</asrwt>
<pdfrwt beam="1">  1       21 0.56366840E-03 0.12500000E+03</pdfrwt>
<pdfrwt beam="2">  1       21 0.16402484E+00 0.12500000E+03</pdfrwt>
<totfact> 0.21935275E+06</totfact>
</mgrwt>
</event>
<event>
 3    0  0.1582806E+001  0.1250000E+03  0.7546771E-02  0.1235069E+00
         21   -1    0    0  502  501  0.00000000000E+00  0.00000000000E+00  0.32217333074E+03  0.32217333074E+03  0.00000000000E+00 0.  1.
         21   -1    0    0  501  502 -0.00000000000E+00 -0.00000000000E+00 -0.12124684533E+02  0.12124684533E+02  0.00000000000E+00 0.  1.
         25    1    1    2    0    0  0.00000000000E+00  0.00000000000E+00  0.31004864621E+03  0.33429801527E+03  0.12500000000E+03 0.  0.
<mgrwt>
<rscale>  2 0.12500000E+03</rscale>
<asrwt>0</asrwt>
<pdfrwt beam="1">  1       21 0.49565121E-01 0.12500000E+03</pdfrwt>
<pdfrwt beam="2">  1       21 0.18653363E-02 0.12500000E+03</pdfrwt>
<totfact> 0.52719400E+06</totfact>
</mgrwt>
</event>
<event>
 3    0  0.1368989E+001  0.1250000E+03  0.7546771E-02  0.1235069E+00
         21   -1    0    0  502  501  0.00000000000E+00  0.00000000000E+00  0.11872974667E+04  0.11872974667E+04  0.00000000000E+00 0. -1.
         21   -1    0    0  501  502 -0.00000000000E+00 -0.00000000000E+00 -0.32900348139E+01  0.32900348139E+01  0.00000000000E+00 0. -1.
         25    1    1    2    0    0  0.00000000000E+00  0.00000000000E+00  0.11840074319E+04  0.11905875015E+04  0.12500000000E+03 0.  0.
<mgrwt>
<rscale>  2 0.12500000E+03</rscale>
<asrwt>0</asrwt>
<pdfrwt beam="1">  1       21 0.18266081E+00 0.12500000E+03</pdfrwt>
<pdfrwt beam="2">  1       21 0.50616015E-03 0.12500000E+03</pdfrwt>
<totfact> 0.19332002E+06</totfact>
</mgrwt>
</event>
<event>
 3    0  0.1484290E+001  0.1250000E+03  0.7546771E-02  0.1235069E+00
         21   -1    0    0  502  501  0.00000000000E+00  0.00000000000E+00  0.90673996257E+01  0.90673996257E+01  0.00000000000E+00 0. -1.
         21   -1    0    0  501  502 -0.00000000000E+00 -0.00000000000E+00 -0.43080157060E+03  0.43080157060E+03  0.00000000000E+00 0. -1.
         25    1    1    2    0    0  0.00000000000E+00  0.00000000000E+00 -0.42173417097E+03  0.43986897022E+03  0.12500000000E+03 0.  0.
<mgrwt>
<rscale>  2 0.12500000E+03</rscale>
<asrwt>0</asrwt>
<pdfrwt beam="1">  1       21 0.13949849E-02 0.12500000E+03</pdfrwt>
<pdfrwt beam="2">  1       21 0.66277149E-01 0.12500000E+03</pdfrwt>
<totfact> 0.45504627E+06</totfact>
</mgrwt>
</event>
<event>
 3    0  0.1464687E+001  0.1250000E+03  0.7546771E-02  0.1235069E+00
         21   -1    0    0  502  501  0.00000000000E+00  0.00000000000E+00  0.72804056257E+01  0.72804056257E+01  0.00000000000E+00 0.  1.
         21   -1    0    0  501  502 -0.00000000000E+00 -0.00000000000E+00 -0.53654290720E+03  0.53654290720E+03  0.00000000000E+00 0.  1.
         25    1    1    2    0    0  0.00000000000E+00  0.00000000000E+00 -0.52926250157E+03  0.54382331282E+03  0.12500000000E+03 0.  0.
<mgrwt>
<rscale>  2 0.12500000E+03</rscale>
<asrwt>0</asrwt>
<pdfrwt beam="1">  1       21 0.11200623E-02 0.12500000E+03</pdfrwt>
<pdfrwt beam="2">  1       21 0.82545069E-01 0.12500000E+03</pdfrwt>
<totfact> 0.39762973E+06</totfact>
</mgrwt>
</event>
<event>
 3    0  0.1571187E+001  0.1250000E+03  0.7546771E-02  0.1235069E+00
         21   -1    0    0  502  501  0.00000000000E+00  0.00000000000E+00  0.31719280289E+03  0.31719280289E+03  0.00000000000E+00 0. -1.
         21   -1    0    0  501  502 -0.00000000000E+00 -0.00000000000E+00 -0.12315065047E+02  0.12315065047E+02  0.00000000000E+00 0. -1.
         25    1    1    2    0    0  0.00000000000E+00  0.00000000000E+00  0.30487773784E+03  0.32950786794E+03  0.12500000000E+03 0.  0.
<mgrwt>
<rscale>  2 0.12500000E+03</rscale>
<asrwt>0</asrwt>
<pdfrwt beam="1">  1       21 0.48798887E-01 0.12500000E+03</pdfrwt>
<pdfrwt beam="2">  1       21 0.18946256E-02 0.12500000E+03</pdfrwt>
<totfact> 0.53088393E+06</totfact>
</mgrwt>
</event>
<event>
 3    0  0.1715772E+001  0.1250000E+03  0.7546771E-02  0.1235069E+00
         21   -1    0    0  502  501  0.00000000000E+00  0.00000000000E+00  0.61803768337E+02  0.61803768337E+02  0.00000000000E+00 0. -1.
         21   -1    0    0  501  502 -0.00000000000E+00 -0.00000000000E+00 -0.63204074850E+02  0.63204074850E+02  0.00000000000E+00 0. -1.
         25    1    1    2    0    0  0.00000000000E+00  0.00000000000E+00 -0.14003065130E+01  0.12500784319E+03  0.12500000000E+03 0.  0.
<mgrwt>
<rscale>  2 0.12500000E+03</rscale>
<asrwt>0</asrwt>
<pdfrwt beam="1">  1       21 0.95082720E-02 0.12500000E+03</pdfrwt>
<pdfrwt beam="2">  1       21 0.97237039E-02 0.12500000E+03</pdfrwt>
<totfact> 0.74042522E+06</totfact>
</mgrwt>
</event>
<event>
 3    0  0.1583012E+001  0.1250000E+03  0.7546771E-02  0.1235069E+00
         21   -1    0    0  502  501  0.00000000000E+00  0.00000000000E+00  0.12538490572E+02  0.12538490572E+02  0.00000000000E+00 0. -1.
         21   -1    0    0  501  502 -0.00000000000E+00 -0.00000000000E+00 -0.31154068965E+03  0.31154068965E+03  0.00000000000E+00 0. -1.
         25    1    1    2    0    0  0.00000000000E+00  0.00000000000E+00 -0.29900219908E+03  0.32407918022E+03  0.12500000000E+03 0.  0.
<mgrwt>
<rscale>  2 0.12500000E+03</rscale>
<asrwt>0</asrwt>
<pdfrwt beam="1">  1       21 0.19289988E-02 0.12500000E+03</pdfrwt>
<pdfrwt beam="2">  1       21 0.47929332E-01 0.12500000E+03</pdfrwt>
<totfact> 0.53511666E+06</totfact>
</mgrwt>
</event>
<event>
 3    0  0.1679669E+001  0.1250000E+03  0.7546771E-02  0.1235069E+00
         21   -1    0    0  502  501  0.00000000000E+00  0.00000000000E+00  0.30161551966E+02  0.30161551966E+02  0.00000000000E+00 0. -1.
         21   -1    0    0  501  502 -0.00000000000E+00 -0.00000000000E+00 -0.12951090860E+03  0.12951090860E+03  0.00000000000E+00 0. -1.
         25    1    1    2    0    0  0.00000000000E+00  0.00000000000E+00 -0.99349356639E+02  0.15967246057E+03  0.12500000000E+03 0.  0.
<mgrwt>
<rscale>  2 0.12500000E+03</rscale>
<asrwt>0</asrwt>
<pdfrwt beam="1">  1       21 0.46402389E-02 0.12500000E+03</pdfrwt>
<pdfrwt beam="2">  1       21 0.19924755E-01 0.12500000E+03</pdfrwt>
<totfact> 0.69559540E+06</totfact>
</mgrwt>
</event>
<event>
 3    0  0.1737900E+001  0.1250000E+03  0.7546771E-02  0.1235069E+00
         21   -1    0    0  502  501  0.00000000000E+00  0.00000000000E+00  0.71011451065E+02  0.71011451065E+02  0.00000000000E+00 0.  1.
         21   -1    0    0  501  502 -0.00000000000E+00 -0.00000000000E+00 -0.55008733682E+02  0.55008733682E+02  0.00000000000E+00 0.  1.
         25    1    1    2    0    0  0.00000000000E+00  0.00000000000E+00  0.16002717382E+02  0.12602018475E+03  0.12500000000E+03 0.  0.
<mgrwt>
<rscale>  2 0.12500000E+03</rscale>
<asrwt>0</asrwt>
<pdfrwt beam="1">  1       21 0.10924839E-01 0.12500000E+03</pdfrwt>
<pdfrwt beam="2">  1       21 0.84628821E-02 0.12500000E+03</pdfrwt>
<totfact> 0.73903256E+06</totfact>
</mgrwt>
</event>
<event>
 3    0  0.1706623E+001  0.1250000E+03  0.7546771E-02  0.1235069E+00
         21   -1    0    0  502  501  0.00000000000E+00  0.00000000000E+00  0.91876229917E+02  0.91876229917E+02  0.00000000000E+00 0. -1.
         21   -1    0    0  501  502 -0.00000000000E+00 -0.00000000000E+00 -0.42516437642E+02  0.42516437642E+02  0.00000000000E+00 0. -1.
         25    1    1    2    0    0  0.00000000000E+00  0.00000000000E+00  0.49359792275E+02  0.13439266756E+03  0.12500000000E+03 0.  0.
<mgrwt>
<rscale>  2 0.12500000E+03</rscale>
<asrwt>0</asrwt>
<pdfrwt beam="1">  1       21 0.14134805E-01 0.12500000E+03</pdfrwt>
<pdfrwt beam="2">  1       21 0.65409904E-02 0.12500000E+03</pdfrwt>
<totfact> 0.72776987E+06</totfact>
</mgrwt>
</event>
<event>
 3    0  0.1713356E+001  0.1250000E+03  0.7546771E-02  0.1235069E+00
         21   -1    0    0  502  501  0.00000000000E+00  0.00000000000E+00  0.54893696506E+02  0.54893696506E+02  0.00000000000E+00 0. -1.
         21   -1    0    0  501  502 -0.00000000000E+00 -0.00000000000E+00 -0.71160265179E+02  0.71160265179E+02  0.00000000000E+00 0. -1.
         25    1    1    2    0    0  0.00000000000E+00  0.00000000000E+00 -0.16266568674E+02  0.12605396168E+03  0.12500000000E+03 0.  0.
<mgrwt>
<rscale>  2 0.12500000E+03</rscale>
<asrwt>0</asrwt>
<pdfrwt beam="1">  1       21 0.84451841E-02 0.12500000E+03</pdfrwt>
<pdfrwt beam="2">  1       21 0.10947733E-01 0.12500000E+03</pdfrwt>
<totfact> 0.73898602E+06</totfact>
</mgrwt>
</event>
<event>
 3    0  0.1630632E+001  0.1250000E+03  0.7546771E-02  0.1235069E+00
         21   -1    0    0  502  501  0.00000000000E+00  0.00000000000E+00  0.15077831499E+02  0.15077831499E+02  0.00000000000E+00 0.  1.
         21   -1    0    0  501  502 -0.00000000000E+00 -0.00000000000E+00 -0.25907240044E+03  0.25907240044E+03  0.00000000000E+00 0.  1.
         25    1    1    2    0    0  0.00000000000E+00  0.00000000000E+00 -0.24399456895E+03  0.27415023194E+03  0.12500000000E+03 0.  0.
<mgrwt>
<rscale>  2 0.12500000E+03</rscale>
<asrwt>0</asrwt>
<pdfrwt beam="1">  1       21 0.23196665E-02 0.12500000E+03</pdfrwt>
<pdfrwt beam="2">  1       21 0.39857290E-01 0.12500000E+03</pdfrwt>
<totfact> 0.57675215E+06</totfact>
</mgrwt>
</event>
<event>
 3    0  0.1654440E+001  0.1250000E+03  0.7546771E-02  0.1235069E+00
         21   -1    0    0  502  501  0.00000000000E+00  0.00000000000E+00  0.19792532183E+02  0.19792532183E+02  0.00000000000E+00 0. -1.
         21   -1    0    0  501  502 -0.00000000000E+00 -0.00000000000E+00 -0.19735979024E+03  0.19735979024E+03  0.00000000000E+00 0. -1.
         25    1    1    2    0    0  0.00000000000E+00  0.00000000000E+00 -0.17756725806E+03  0.21715232243E+03  0.12500000000E+03 0.  0.
<mgrwt>
<rscale>  2 0.12500000E+03</rscale>
<asrwt>0</asrwt>
<pdfrwt beam="1">  1       21 0.30450050E-02 0.12500000E+03</pdfrwt>
<pdfrwt beam="2">  1       21 0.30363044E-01 0.12500000E+03</pdfrwt>
<totfact> 0.63114797E+06</totfact>
</mgrwt>
</event>
<event>
 3    0  0.1660905E+001  0.1250000E+03  0.7546771E-02  0.1235069E+00
         21   -1    0    0  502  501  0.00000000000E+00  0.00000000000E+00  0.19104334673E+02  0.19104334673E+02  0.00000000000E+00 0.  1.
         21   -1    0    0  501  502 -0.00000000000E+00 -0.00000000000E+00 -0.20446930326E+03  0.20446930326E+03  0.00000000000E+00 0.  1.
         25    1    1    2    0    0  0.00000000000E+00  0.00000000000E+00 -0.18536496859E+03  0.22357363794E+03  0.12500000000E+03 0.  0.
<mgrwt>
<rscale>  2 0.12500000E+03</rscale>
<asrwt>0</asrwt>
<pdfrwt beam="1">  1       21 0.29391282E-02 0.12500000E+03</pdfrwt>
<pdfrwt beam="2">  1       21 0.31456819E-01 0.12500000E+03</pdfrwt>
<totfact> 0.62459117E+06</totfact>
</mgrwt>
</event>
<event>
 3    0  0.1738047E+001  0.1250000E+03  0.7546771E-02  0.1235069E+00
         21   -1    0    0  502  501  0.00000000000E+00  0.00000000000E+00  0.50384263772E+02  0.50384263772E+02  0.00000000000E+00 0.  1.
         21   -1    0    0  501  502 -0.00000000000E+00 -0.00000000000E+00 -0.77529166997E+02  0.77529166997E+02  0.00000000000E+00 0.  1.
         25    1    1    2    0    0  0.00000000000E+00  0.00000000000E+00 -0.27144903225E+02  0.12791343077E+03  0.12500000000E+03 0.  0.
<mgrwt>
<rscale>  2 0.12500000E+03</rscale>
<asrwt>0</asrwt>
<pdfrwt beam="1">  1       21 0.77514252E-02 0.12500000E+03</pdfrwt>
<pdfrwt beam="2">  1       21 0.11927564E-01 0.12500000E+03</pdfrwt>
<totfact> 0.73645257E+06</totfact>
</mgrwt>
</event>
<event>
 3    0  0.1713588E+001  0.1250000E+03  0.7546771E-02  0.1235069E+00
         21   -1    0    0  502  501  0.00000000000E+00  0.00000000000E+00  0.48822227158E+02  0.48822227158E+02  0.00000000000E+00 0. -1.
         21   -1    0    0  501  502 -0.00000000000E+00 -0.00000000000E+00 -0.80009664191E+02  0.80009664191E+02  0.00000000000E+00 0. -1.
         25    1    1    2    0    0  0.00000000000E+00  0.00000000000E+00 -0.31187437033E+02  0.12883189135E+03  0.12500000000E+03 0.  0.
<mgrwt>
<rscale>  2 0.12500000E+03</rscale>
<asrwt>0</asrwt>
<pdfrwt beam="1">  1       21 0.75111119E-02 0.12500000E+03</pdfrwt>
<pdfrwt beam="2">  1       21 0.12309179E-01 0.12500000E+03</pdfrwt>
<totfact> 0.73521468E+06</totfact>
</mgrwt>
</event>
<event>
 3    0  0.1515638E+001  0.1250000E+03  0.7546771E-02  0.1235069E+00
         21   -1    0    0  502  501  0.00000000000E+00  0.00000000000E+00  0.98863489767E+01  0.98863489767E+01  0.00000000000E+00 0. -1.
         21   -1    0    0  501  502 -0.00000000000E+00 -0.00000000000E+00 -0.39511552841E+03  0.39511552841E+03  0.00000000000E+00 0. -1.
         25    1    1    2    0    0  0.00000000000E+00  0.00000000000E+00 -0.38522917944E+03  0.40500187739E+03  0.12500000000E+03 0.  0.
<mgrwt>
<rscale>  2 0.12500000E+03</rscale>
<asrwt>0</asrwt>
<pdfrwt beam="1">  1       21 0.15209768E-02 0.12500000E+03</pdfrwt>
<pdfrwt beam="2">  1       21 0.60787004E-01 0.12500000E+03</pdfrwt>
<totfact> 0.47711342E+06</totfact>
</mgrwt>
</event>
<event>
 3    0  0.1589472E+001  0.1250000E+03  0.7546771E-02  0.1235069E+00
         21   -1    0    0  502  501  0.00000000000E+00  0.00000000000E+00  0.12655921928E+02  0.12655921928E+02  0.00000000000E+00 0. -1.
         21   -1    0    0  501  502 -0.00000000000E+00 -0.00000000000E+00 -0.30864997605E+03  0.30864997605E+03  0.00000000000E+00 0. -1.
         25    1    1    2    0    0  0.00000000000E+00  0.00000000000E+00 -0.29599405413E+03  0.32130589798E+03  0.12500000000E+03 0.  0.
<mgrwt>
<rscale>  2 0.12500000E+03</rscale>
<asrwt>0</asrwt>
<pdfrwt beam="1">  1       21 0.19470649E-02 0.12500000E+03</pdfrwt>
<pdfrwt beam="2">  1       21 0.47484613E-01 0.12500000E+03</pdfrwt>
<totfact> 0.53730018E+06</totfact>
</mgrwt>
</event>
<event>
 3    0  0.1717028E+001  0.1250000E+03  0.7546771E-02  0.1235069E+00
         21   -1    0    0  502  501  0.00000000000E+00  0.00000000000E+00  0.12396165244E+03  0.12396165244E+03  0.00000000000E+00 0.  1.
         21   -1    0    0  501  502 -0.00000000000E+00 -0.00000000000E+00 -0.31511761284E+02  0.31511761284E+02  0.00000000000E+00 0.  1.
         25    1    1    2    0    0  0.00000000000E+00  0.00000000000E+00  0.92449891154E+02  0.15547341372E+03  0.12500000000E+03 0.  0.
<mgrwt>
<rscale>  2 0.12500000E+03</rscale>
<asrwt>0</asrwt>
<pdfrwt beam="1">  1       21 0.19071023E-01 0.12500000E+03</pdfrwt>
<pdfrwt beam="2">  1       21 0.48479633E-02 0.12500000E+03</pdfrwt>
<totfact> 0.70076868E+06</totfact>
</mgrwt>
</event>
<event>
 3    0  0.1368989E+001  0.1250000E+03  0.7546771E-02  0.1235069E+00
         21   -1    0    0  502  501  0.00000000000E+00  0.00000000000E+00  0.19262404419E+04  0.19262404419E+04  0.00000000000E+00 0. -1.
         21   -1    0    0  501  502 -0.00000000000E+00 -0.00000000000E+00 -0.20279140210E+01  0.20279140210E+01  0.00000000000E+00 0. -1.
         25    1    1    2    0    0  0.00000000000E+00  0.00000000000E+00  0.19242125279E+04  0.19282683559E+04  0.12500000000E+03 0.  0.
<mgrwt>
<rscale>  2 0.12500000E+03</rscale>
<asrwt>0</asrwt>
<pdfrwt beam="1">  1       21 0.29634322E+00 0.12500000E+03</pdfrwt>
<pdfrwt beam="2">  1       21 0.31198831E-03 0.12500000E+03</pdfrwt>
<totfact> 0.86689483E+05</totfact>
</mgrwt>
</event>
<event>
 3    0  0.1714538E+001  0.1250000E+03  0.7546771E-02  0.1235069E+00
         21   -1    0    0  502  501  0.00000000000E+00  0.00000000000E+00  0.53656622570E+02  0.53656622570E+02  0.00000000000E+00 0. -1.
         21   -1    0    0  501  502 -0.00000000000E+00 -0.00000000000E+00 -0.72800892283E+02  0.72800892283E+02  0.00000000000E+00 0. -1.
         25    1    1    2    0    0  0.00000000000E+00  0.00000000000E+00 -0.19144269713E+02  0.12645751485E+03  0.12500000000E+03 0.  0.
<mgrwt>
<rscale>  2 0.12500000E+03</rscale>
<asrwt>0</asrwt>
<pdfrwt beam="1">  1       21 0.82548651E-02 0.12500000E+03</pdfrwt>
<pdfrwt beam="2">  1       21 0.11200137E-01 0.12500000E+03</pdfrwt>
<totfact> 0.73843189E+06</totfact>
</mgrwt>
</event>
<event>
 3    0  0.1599769E+001  0.1250000E+03  0.7546771E-02  0.1235069E+00
         21   -1    0    0  502  501  0.00000000000E+00  0.00000000000E+00  0.29627172978E+03  0.29627172978E+03  0.00000000000E+00 0.  1.
         21   -1    0    0  501  502 -0.00000000000E+00 -0.00000000000E+00 -0.13184686919E+02  0.13184686919E+02  0.00000000000E+00 0.  1.
         25    1    1    2    0    0  0.00000000000E+00  0.00000000000E+00  0.28308704286E+03  0.30945641670E+03  0.12500000000E+03 0.  0.
<mgrwt>
<rscale>  2 0.12500000E+03</rscale>
<asrwt>0</asrwt>
<pdfrwt beam="1">  1       21 0.45580261E-01 0.12500000E+03</pdfrwt>
<pdfrwt beam="2">  1       21 0.20284136E-02 0.12500000E+03</pdfrwt>
<totfact> 0.54679353E+06</totfact>
</mgrwt>
</event>
<event>
 3    0  0.1715814E+001  0.1250000E+03  0.7546771E-02  0.1235069E+00
         21   -1    0    0  502  501  0.00000000000E+00  0.00000000000E+00  0.59777972749E+02  0.59777972749E+02  0.00000000000E+00 0. -1.
         21   -1    0    0  501  502 -0.00000000000E+00 -0.00000000000E+00 -0.65345976459E+02  0.65345976459E+02  0.00000000000E+00 0. -1.
         25    1    1    2    0    0  0.00000000000E+00  0.00000000000E+00 -0.55680037103E+01  0.12512394921E+03  0.12500000000E+03 0.  0.
<mgrwt>
<rscale>  2 0.12500000E+03</rscale>
<asrwt>0</asrwt>
<pdfrwt beam="1">  1       21 0.91966112E-02 0.12500000E+03</pdfrwt>
<pdfrwt beam="2">  1       21 0.10053227E-01 0.12500000E+03</pdfrwt>
<totfact> 0.74026841E+06</totfact>
</mgrwt>
</event>
<event>
 3    0  0.1692252E+001  0.1250000E+03  0.7546771E-02  0.1235069E+00
         21   -1    0    0  502  501  0.00000000000E+00  0.00000000000E+00  0.11644092310E+03  0.11644092310E+03  0.00000000000E+00 0. -1.
         21   -1    0    0  501  502 -0.00000000000E+00 -0.00000000000E+00 -0.33547054557E+02  0.33547054557E+02  0.00000000000E+00 0. -1.
         25    1    1    2    0    0  0.00000000000E+00  0.00000000000E+00  0.82893868545E+02  0.14998797766E+03  0.12500000000E+03 0.  0.
<mgrwt>
<rscale>  2 0.12500000E+03</rscale>
<asrwt>0</asrwt>
<pdfrwt beam="1">  1       21 0.17913988E-01 0.12500000E+03</pdfrwt>
<pdfrwt beam="2">  1       21 0.51610854E-02 0.12500000E+03</pdfrwt>
<totfact> 0.70760711E+06</totfact>
</mgrwt>
</event>
<event>
 3    0  0.1710474E+001  0.1250000E+03  0.7546771E-02  0.1235069E+00
         21   -1    0    0  502  501  0.00000000000E+00  0.00000000000E+00  0.82667995568E+02  0.82667995568E+02  0.00000000000E+00 0. -1.
         21   -1    0    0  501  502 -0.00000000000E+00 -0.00000000000E+00 -0.47252264593E+02  0.47252264593E+02  0.00000000000E+00 0. -1.
         25    1    1    2    0    0  0.00000000000E+00  0.00000000000E+00  0.35415730975E+02  0.12992026016E+03  0.12500000000E+03 0.  0.
<mgrwt>
<rscale>  2 0.12500000E+03</rscale>
<asrwt>0</asrwt>
<pdfrwt beam="1">  1       21 0.12718153E-01 0.12500000E+03</pdfrwt>
<pdfrwt beam="2">  1       21 0.72695792E-02 0.12500000E+03</pdfrwt>
<totfact> 0.73375574E+06</totfact>
</mgrwt>
</event>
<event>
 3    0  0.1636599E+001  0.1250000E+03  0.7546771E-02  0.1235069E+00
         21   -1    0    0  502  501  0.00000000000E+00  0.00000000000E+00  0.24341332098E+03  0.24341332098E+03  0.00000000000E+00 0.  1.
         21   -1    0    0  501  502 -0.00000000000E+00 -0.00000000000E+00 -0.16047807015E+02  0.16047807015E+02  0.00000000000E+00 0.  1.
         25    1    1    2    0    0  0.00000000000E+00  0.00000000000E+00  0.22736551397E+03  0.25946112800E+03  0.12500000000E+03 0.  0.
<mgrwt>
<rscale>  2 0.12500000E+03</rscale>
<asrwt>0</asrwt>
<pdfrwt beam="1">  1       21 0.37448201E-01 0.12500000E+03</pdfrwt>
<pdfrwt beam="2">  1       21 0.24688936E-02 0.12500000E+03</pdfrwt>
<totfact> 0.58998698E+06</totfact>
</mgrwt>
</event>
<event>
 3    0  0.1391354E+001  0.1250000E+03  0.7546771E-02  0.1235069E+00
         21   -1    0    0  502  501  0.00000000000E+00  0.00000000000E+00  0.64078947618E+01  0.64078947618E+01  0.00000000000E+00 0.  1.
         21   -1    0    0  501  502 -0.00000000000E+00 -0.00000000000E+00 -0.60959958695E+03  0.60959958695E+03  0.00000000000E+00 0.  1.
         25    1    1    2    0    0  0.00000000000E+00  0.00000000000E+00 -0.60319169218E+03  0.61600748171E+03  0.12500000000E+03 0.  0.
<mgrwt>
<rscale>  2 0.12500000E+03</rscale>
<asrwt>0</asrwt>
<pdfrwt beam="1">  1       21 0.98583003E-03 0.12500000E+03</pdfrwt>
<pdfrwt beam="2">  1       21 0.93784546E-01 0.12500000E+03</pdfrwt>
<totfact> 0.36378577E+06</totfact>
</mgrwt>
</event>
<event>
 3    0  0.1631226E+001  0.1250000E+03  0.7546771E-02  0.1235069E+00
         21   -1    0    0  502  501  0.00000000000E+00  0.00000000000E+00  0.15875929224E+02  0.15875929224E+02  0.00000000000E+00 0.  1.
         21   -1    0    0  501  502 -0.00000000000E+00 -0.00000000000E+00 -0.24604858997E+03  0.24604858997E+03  0.00000000000E+00 0.  1.
         25    1    1    2    0    0  0.00000000000E+00  0.00000000000E+00 -0.23017266075E+03  0.26192451920E+03  0.12500000000E+03 0.  0.
<mgrwt>
<rscale>  2 0.12500000E+03</rscale>
<asrwt>0</asrwt>
<pdfrwt beam="1">  1       21 0.24424507E-02 0.12500000E+03</pdfrwt>
<pdfrwt beam="2">  1       21 0.37853629E-01 0.12500000E+03</pdfrwt>
<totfact> 0.58773326E+06</totfact>
</mgrwt>
</event>
<event>
 3    0  0.1700236E+001  0.1250000E+03  0.7546771E-02  0.1235069E+00
         21   -1    0    0  502  501  0.00000000000E+00  0.00000000000E+00  0.11267513731E+03  0.11267513731E+03  0.00000000000E+00 0. -1.
         21   -1    0    0  501  502 -0.00000000000E+00 -0.00000000000E+00 -0.34668251517E+02  0.34668251517E+02  0.00000000000E+00 0. -1.
         25    1    1    2    0    0  0.00000000000E+00  0.00000000000E+00  0.78006885794E+02  0.14734338883E+03  0.12500000000E+03 0.  0.
<mgrwt>
<rscale>  2 0.12500000E+03</rscale>
<asrwt>0</asrwt>
<pdfrwt beam="1">  1       21 0.17334636E-01 0.12500000E+03</pdfrwt>
<pdfrwt beam="2">  1       21 0.53335772E-02 0.12500000E+03</pdfrwt>
<totfact> 0.71094537E+06</totfact>
</mgrwt>
</event>
<event>
 3    0  0.1738723E+001  0.1250000E+03  0.7546771E-02  0.1235069E+00
         21   -1    0    0  502  501  0.00000000000E+00  0.00000000000E+00  0.55568776289E+02  0.55568776289E+02  0.00000000000E+00 0.  1.
         21   -1    0    0  501  502 -0.00000000000E+00 -0.00000000000E+00 -0.70295771491E+02  0.70295771491E+02  0.00000000000E+00 0.  1.
         25    1    1    2    0    0  0.00000000000E+00  0.00000000000E+00 -0.14726995202E+02  0.12586454778E+03  0.12500000000E+03 0.  0.
<mgrwt>
<rscale>  2 0.12500000E+03</rscale>
<asrwt>0</asrwt>
<pdfrwt beam="1">  1       21 0.85490425E-02 0.12500000E+03</pdfrwt>
<pdfrwt beam="2">  1       21 0.10814734E-01 0.12500000E+03</pdfrwt>
<totfact> 0.73924740E+06</totfact>
</mgrwt>
</event>
<event>
 3    0  0.1713381E+001  0.1250000E+03  0.7546771E-02  0.1235069E+00
         21   -1    0    0  502  501  0.00000000000E+00  0.00000000000E+00  0.52700217601E+02  0.52700217601E+02  0.00000000000E+00 0. -1.
         21   -1    0    0  501  502 -0.00000000000E+00 -0.00000000000E+00 -0.74122084838E+02  0.74122084838E+02  0.00000000000E+00 0. -1.
         25    1    1    2    0    0  0.00000000000E+00  0.00000000000E+00 -0.21421867237E+02  0.12682230244E+03  0.12500000000E+03 0.  0.
<mgrwt>
<rscale>  2 0.12500000E+03</rscale>
<asrwt>0</asrwt>
<pdfrwt beam="1">  1       21 0.81077258E-02 0.12500000E+03</pdfrwt>
<pdfrwt beam="2">  1       21 0.11403398E-01 0.12500000E+03</pdfrwt>
<totfact> 0.73793347E+06</totfact>
</mgrwt>
</event>
<event>
 3    0  0.1700578E+001  0.1250000E+03  0.7546771E-02  0.1235069E+00
         21   -1    0    0  502  501  0.00000000000E+00  0.00000000000E+00  0.26704250720E+02  0.26704250720E+02  0.00000000000E+00 0.  1.
         21   -1    0    0  501  502 -0.00000000000E+00 -0.00000000000E+00 -0.14627821020E+03  0.14627821020E+03  0.00000000000E+00 0.  1.
         25    1    1    2    0    0  0.00000000000E+00  0.00000000000E+00 -0.11957395948E+03  0.17298246092E+03  0.12500000000E+03 0.  0.
<mgrwt>
<rscale>  2 0.12500000E+03</rscale>
<asrwt>0</asrwt>
<pdfrwt beam="1">  1       21 0.41083462E-02 0.12500000E+03</pdfrwt>
<pdfrwt beam="2">  1       21 0.22504340E-01 0.12500000E+03</pdfrwt>
<totfact> 0.67965828E+06</totfact>
</mgrwt>
</event>
<event>
 3    0  0.1738116E+001  0.1250000E+03  0.7546771E-02  0.1235069E+00
         21   -1    0    0  502  501  0.00000000000E+00  0.00000000000E+00  0.50424716622E+02  0.50424716622E+02  0.00000000000E+00 0.  1.
         21   -1    0    0  501  502 -0.00000000000E+00 -0.00000000000E+00 -0.77466969806E+02  0.77466969806E+02  0.00000000000E+00 0.  1.
         25    1    1    2    0    0  0.00000000000E+00  0.00000000000E+00 -0.27042253184E+02  0.12789168643E+03  0.12500000000E+03 0.  0.
<mgrwt>
<rscale>  2 0.12500000E+03</rscale>
<asrwt>0</asrwt>
<pdfrwt beam="1">  1       21 0.77576487E-02 0.12500000E+03</pdfrwt>
<pdfrwt beam="2">  1       21 0.11917995E-01 0.12500000E+03</pdfrwt>
<totfact> 0.73648196E+06</totfact>
</mgrwt>
</event>
<event>
 3    0  0.1598363E+001  0.1250000E+03  0.7546771E-02  0.1235069E+00
         21   -1    0    0  502  501  0.00000000000E+00  0.00000000000E+00  0.14854117093E+02  0.14854117093E+02  0.00000000000E+00 0. -1.
         21   -1    0    0  501  502 -0.00000000000E+00 -0.00000000000E+00 -0.26297422967E+03  0.26297422967E+03  0.00000000000E+00 0. -1.
         25    1    1    2    0    0  0.00000000000E+00  0.00000000000E+00 -0.24812011258E+03  0.27782834676E+03  0.12500000000E+03 0.  0.
<mgrwt>
<rscale>  2 0.12500000E+03</rscale>
<asrwt>0</asrwt>
<pdfrwt beam="1">  1       21 0.22852488E-02 0.12500000E+03</pdfrwt>
<pdfrwt beam="2">  1       21 0.40457573E-01 0.12500000E+03</pdfrwt>
<totfact> 0.57350570E+06</totfact>
</mgrwt>
</event>
<event>
 3    0  0.1368989E+001  0.1250000E+03  0.7546771E-02  0.1235069E+00
         21   -1    0    0  502  501  0.00000000000E+00  0.00000000000E+00  0.14072195630E+04  0.14072195630E+04  0.00000000000E+00 0. -1.
         21   -1    0    0  501  502 -0.00000000000E+00 -0.00000000000E+00 -0.27758639112E+01  0.27758639112E+01  0.00000000000E+00 0. -1.
         25    1    1    2    0    0  0.00000000000E+00  0.00000000000E+00  0.14044436990E+04  0.14099954269E+04  0.12500000000E+03 0.  0.
<mgrwt>
<rscale>  2 0.12500000E+03</rscale>
<asrwt>0</asrwt>
<pdfrwt beam="1">  1       21 0.21649475E+00 0.12500000E+03</pdfrwt>
<pdfrwt beam="2">  1       21 0.42705711E-03 0.12500000E+03</pdfrwt>
<totfact> 0.15382956E+06</totfact>
</mgrwt>
</event>
<event>
 3    0  0.1405600E+001  0.1250000E+03  0.7546771E-02  0.1235069E+00
         21   -1    0    0  502  501  0.00000000000E+00  0.00000000000E+00  0.62126942627E+01  0.62126942627E+01  0.00000000000E+00 0. -1.
         21   -1    0    0  501  502 -0.00000000000E+00 -0.00000000000E+00 -0.62875297493E+03  0.62875297493E+03  0.00000000000E+00 0. -1.
         25    1    1    2    0    0  0.00000000000E+00  0.00000000000E+00 -0.62254028066E+03  0.63496566919E+03  0.12500000000E+03 0.  0.
<mgrwt>
<rscale>  2 0.12500000E+03</rscale>
<asrwt>0</asrwt>
<pdfrwt beam="1">  1       21 0.95579937E-03 0.12500000E+03</pdfrwt>
<pdfrwt beam="2">  1       21 0.96731202E-01 0.12500000E+03</pdfrwt>
<totfact> 0.35557625E+06</totfact>
</mgrwt>
</event>
<event>
 3    0  0.1674787E+001  0.1250000E+03  0.7546771E-02  0.1235069E+00
         21   -1    0    0  502  501  0.00000000000E+00  0.00000000000E+00  0.14941663564E+03  0.14941663564E+03  0.00000000000E+00 0. -1.
         21   -1    0    0  501  502 -0.00000000000E+00 -0.00000000000E+00 -0.26143340622E+02  0.26143340622E+02  0.00000000000E+00 0. -1.
         25    1    1    2    0    0  0.00000000000E+00  0.00000000000E+00  0.12327329501E+03  0.17555997626E+03  0.12500000000E+03 0.  0.
<mgrwt>
<rscale>  2 0.12500000E+03</rscale>
<asrwt>0</asrwt>
<pdfrwt beam="1">  1       21 0.22987174E-01 0.12500000E+03</pdfrwt>
<pdfrwt beam="2">  1       21 0.40220525E-02 0.12500000E+03</pdfrwt>
<totfact> 0.67664569E+06</totfact>
</mgrwt>
</event>
<event>
 3    0  0.1700151E+001  0.1250000E+03  0.7546771E-02  0.1235069E+00
         21   -1    0    0  502  501  0.00000000000E+00  0.00000000000E+00  0.10276309452E+03  0.10276309452E+03  0.00000000000E+00 0. -1.
         21   -1    0    0  501  502 -0.00000000000E+00 -0.00000000000E+00 -0.38012187335E+02  0.38012187335E+02  0.00000000000E+00 0. -1.
         25    1    1    2    0    0  0.00000000000E+00  0.00000000000E+00  0.64750907186E+02  0.14077528186E+03  0.12500000000E+03 0.  0.
<mgrwt>
<rscale>  2 0.12500000E+03</rscale>
<asrwt>0</asrwt>
<pdfrwt beam="1">  1       21 0.15809707E-01 0.12500000E+03</pdfrwt>
<pdfrwt beam="2">  1       21 0.58480289E-02 0.12500000E+03</pdfrwt>
<totfact> 0.71938258E+06</totfact>
</mgrwt>
</event>
<event>
 3    0  0.1496098E+001  0.1250000E+03  0.7546771E-02  0.1235069E+00
         21   -1    0    0  502  501  0.00000000000E+00  0.00000000000E+00  0.40389565115E+03  0.40389565115E+03  0.00000000000E+00 0. -1.
         21   -1    0    0  501  502 -0.00000000000E+00 -0.00000000000E+00 -0.96714336707E+01  0.96714336707E+01  0.00000000000E+00 0. -1.
         25    1    1    2    0    0  0.00000000000E+00  0.00000000000E+00  0.39422421748E+03  0.41356708482E+03  0.12500000000E+03 0.  0.
<mgrwt>
<rscale>  2 0.12500000E+03</rscale>
<asrwt>0</asrwt>
<pdfrwt beam="1">  1       21 0.62137780E-01 0.12500000E+03</pdfrwt>
<pdfrwt beam="2">  1       21 0.14879132E-02 0.12500000E+03</pdfrwt>
<totfact> 0.47154296E+06</totfact>
</mgrwt>
</event>
<event>
 3    0  0.1695317E+001  0.1250000E+03  0.7546771E-02  0.1235069E+00
         21   -1    0    0  502  501  0.00000000000E+00  0.00000000000E+00  0.11500335431E+03  0.11500335431E+03  0.00000000000E+00 0. -1.
         21   -1    0    0  501  502 -0.00000000000E+00 -0.00000000000E+00 -0.33966400574E+02  0.33966400574E+02  0.00000000000E+00 0. -1.
         25    1    1    2    0    0  0.00000000000E+00  0.00000000000E+00  0.81036953741E+02  0.14896975489E+03  0.12500000000E+03 0.  0.
<mgrwt>
<rscale>  2 0.12500000E+03</rscale>
<asrwt>0</asrwt>
<pdfrwt beam="1">  1       21 0.17692824E-01 0.12500000E+03</pdfrwt>
<pdfrwt beam="2">  1       21 0.52256002E-02 0.12500000E+03</pdfrwt>
<totfact> 0.70888859E+06</totfact>
</mgrwt>
</event>
<event>
 3    0  0.1670688E+001  0.1250000E+03  0.7546771E-02  0.1235069E+00
         21   -1    0    0  502  501  0.00000000000E+00  0.00000000000E+00  0.23331163586E+02  0.23331163586E+02  0.00000000000E+00 0. -1.
         21   -1    0    0  501  502 -0.00000000000E+00 -0.00000000000E+00 -0.16742628312E+03  0.16742628312E+03  0.00000000000E+00 0. -1.
         25    1    1    2    0    0  0.00000000000E+00  0.00000000000E+00 -0.14409511953E+03  0.19075744670E+03  0.12500000000E+03 0.  0.
<mgrwt>
<rscale>  2 0.12500000E+03</rscale>
<asrwt>0</asrwt>
<pdfrwt beam="1">  1       21 0.35894097E-02 0.12500000E+03</pdfrwt>
<pdfrwt beam="2">  1       21 0.25757890E-01 0.12500000E+03</pdfrwt>
<totfact> 0.65938380E+06</totfact>
</mgrwt>
</event>
<event>
 3    0  0.1724529E+001  0.1250000E+03  0.7546771E-02  0.1235069E+00
         21   -1    0    0  502  501  0.00000000000E+00  0.00000000000E+00  0.11280139479E+03  0.11280139479E+03  0.00000000000E+00 0.  1.
         21   -1    0    0  501  502 -0.00000000000E+00 -0.00000000000E+00 -0.34629447688E+02  0.34629447688E+02  0.00000000000E+00 0.  1.
         25    1    1    2    0    0  0.00000000000E+00  0.00000000000E+00  0.78171947100E+02  0.14743084248E+03  0.12500000000E+03 0.  0.
<mgrwt>
<rscale>  2 0.12500000E+03</rscale>
<asrwt>0</asrwt>
<pdfrwt beam="1">  1       21 0.17354061E-01 0.12500000E+03</pdfrwt>
<pdfrwt beam="2">  1       21 0.53276074E-02 0.12500000E+03</pdfrwt>
<totfact> 0.71083445E+06</totfact>
</mgrwt>
</event>
<event>
 3    0  0.1521553E+001  0.1250000E+03  0.7546771E-02  0.1235069E+00
         21   -1    0    0  502  501  0.00000000000E+00  0.00000000000E+00  0.39129672353E+03  0.39129672353E+03  0.00000000000E+00 0. -1.
         21   -1    0    0  501  502 -0.00000000000E+00 -0.00000000000E+00 -0.99828333976E+01  0.99828333976E+01  0.00000000000E+00 0. -1.
         25    1    1    2    0    0  0.00000000000E+00  0.00000000000E+00  0.38131389013E+03  0.40127955692E+03  0.12500000000E+03 0.  0.
<mgrwt>
<rscale>  2 0.12500000E+03</rscale>
<asrwt>0</asrwt>
<pdfrwt beam="1">  1       21 0.60199484E-01 0.12500000E+03</pdfrwt>
<pdfrwt beam="2">  1       21 0.15358208E-02 0.12500000E+03</pdfrwt>
<totfact> 0.47956600E+06</totfact>
</mgrwt>
</event>
<event>
 3    0  0.1648451E+001  0.1250000E+03  0.7546771E-02  0.1235069E+00
         21   -1    0    0  502  501  0.00000000000E+00  0.00000000000E+00  0.19964592749E+03  0.19964592749E+03  0.00000000000E+00 0. -1.
         21   -1    0    0  501  502 -0.00000000000E+00 -0.00000000000E+00 -0.19565888717E+02  0.19565888717E+02  0.00000000000E+00 0. -1.
         25    1    1    2    0    0  0.00000000000E+00  0.00000000000E+00  0.18008003877E+03  0.21921181621E+03  0.12500000000E+03 0.  0.
<mgrwt>
<rscale>  2 0.12500000E+03</rscale>
<asrwt>0</asrwt>
<pdfrwt beam="1">  1       21 0.30714757E-01 0.12500000E+03</pdfrwt>
<pdfrwt beam="2">  1       21 0.30101369E-02 0.12500000E+03</pdfrwt>
<totfact> 0.62903190E+06</totfact>
</mgrwt>
</event>
<event>
 3    0  0.1674369E+001  0.1250000E+03  0.7546771E-02  0.1235069E+00
         21   -1    0    0  502  501  0.00000000000E+00  0.00000000000E+00  0.25112375458E+02  0.25112375458E+02  0.00000000000E+00 0. -1.
         21   -1    0    0  501  502 -0.00000000000E+00 -0.00000000000E+00 -0.15555079632E+03  0.15555079632E+03  0.00000000000E+00 0. -1.
         25    1    1    2    0    0  0.00000000000E+00  0.00000000000E+00 -0.13043842086E+03  0.18066317178E+03  0.12500000000E+03 0.  0.
<mgrwt>
<rscale>  2 0.12500000E+03</rscale>
<asrwt>0</asrwt>
<pdfrwt beam="1">  1       21 0.38634425E-02 0.12500000E+03</pdfrwt>
<pdfrwt beam="2">  1       21 0.23930891E-01 0.12500000E+03</pdfrwt>
<totfact> 0.67075541E+06</totfact>
</mgrwt>
</event>
<event>
 3    0  0.1613730E+001  0.1250000E+03  0.7546771E-02  0.1235069E+00
         21   -1    0    0  502  501  0.00000000000E+00  0.00000000000E+00  0.16867968513E+02  0.16867968513E+02  0.00000000000E+00 0. -1.
         21   -1    0    0  501  502 -0.00000000000E+00 -0.00000000000E+00 -0.23157797555E+03  0.23157797555E+03  0.00000000000E+00 0. -1.
         25    1    1    2    0    0  0.00000000000E+00  0.00000000000E+00 -0.21471000704E+03  0.24844594407E+03  0.12500000000E+03 0.  0.
<mgrwt>
<rscale>  2 0.12500000E+03</rscale>
<asrwt>0</asrwt>
<pdfrwt beam="1">  1       21 0.25950722E-02 0.12500000E+03</pdfrwt>
<pdfrwt beam="2">  1       21 0.35627379E-01 0.12500000E+03</pdfrwt>
<totfact> 0.60024811E+06</totfact>
</mgrwt>
</event>
<event>
 3    0  0.1722111E+001  0.1250000E+03  0.7546771E-02  0.1235069E+00
         21   -1    0    0  502  501  0.00000000000E+00  0.00000000000E+00  0.10407845429E+03  0.10407845429E+03  0.00000000000E+00 0.  1.
         21   -1    0    0  501  502 -0.00000000000E+00 -0.00000000000E+00 -0.37531783370E+02  0.37531783370E+02  0.00000000000E+00 0.  1.
         25    1    1    2    0    0  0.00000000000E+00  0.00000000000E+00  0.66546670923E+02  0.14161023766E+03  0.12500000000E+03 0.  0.
<mgrwt>
<rscale>  2 0.12500000E+03</rscale>
<asrwt>0</asrwt>
<pdfrwt beam="1">  1       21 0.16012070E-01 0.12500000E+03</pdfrwt>
<pdfrwt beam="2">  1       21 0.57741206E-02 0.12500000E+03</pdfrwt>
<totfact> 0.71829786E+06</totfact>
</mgrwt>
</event>
<event>
 3    0  0.1514553E+001  0.1250000E+03  0.7546771E-02  0.1235069E+00
         21   -1    0    0  502  501  0.00000000000E+00  0.00000000000E+00  0.88306328886E+01  0.88306328886E+01  0.00000000000E+00 0. -1.
         21   -1    0    0  501  502 -0.00000000000E+00 -0.00000000000E+00 -0.44235221295E+03  0.44235221295E+03  0.00000000000E+00 0. -1.
         25    1    1    2    0    0  0.00000000000E+00  0.00000000000E+00 -0.43352158006E+03  0.45118284584E+03  0.12500000000E+03 0.  0.
<mgrwt>
<rscale>  2 0.12500000E+03</rscale>
<asrwt>0</asrwt>
<pdfrwt beam="1">  1       21 0.13585586E-02 0.12500000E+03</pdfrwt>
<pdfrwt beam="2">  1       21 0.68054200E-01 0.12500000E+03</pdfrwt>
<totfact> 0.44821570E+06</totfact>
</mgrwt>
</event>
<event>
 3    0  0.1653598E+001  0.1250000E+03  0.7546771E-02  0.1235069E+00
         21   -1    0    0  502  501  0.00000000000E+00  0.00000000000E+00  0.17438303760E+03  0.17438303760E+03  0.00000000000E+00 0. -1.
         21   -1    0    0  501  502 -0.00000000000E+00 -0.00000000000E+00 -0.22400401174E+02  0.22400401174E+02  0.00000000000E+00 0. -1.
         25    1    1    2    0    0  0.00000000000E+00  0.00000000000E+00  0.15198263642E+03  0.19678343877E+03  0.12500000000E+03 0.  0.
<mgrwt>
<rscale>  2 0.12500000E+03</rscale>
<asrwt>0</asrwt>
<pdfrwt beam="1">  1       21 0.26828159E-01 0.12500000E+03</pdfrwt>
<pdfrwt beam="2">  1       21 0.34462157E-02 0.12500000E+03</pdfrwt>
<totfact> 0.65276358E+06</totfact>
</mgrwt>
</event>
<event>
 3    0  0.1715394E+001  0.1250000E+03  0.7546771E-02  0.1235069E+00
         21   -1    0    0  502  501  0.00000000000E+00  0.00000000000E+00  0.51717647456E+02  0.51717647456E+02  0.00000000000E+00 0. -1.
         21   -1    0    0  501  502 -0.00000000000E+00 -0.00000000000E+00 -0.75530311067E+02  0.75530311067E+02  0.00000000000E+00 0. -1.
         25    1    1    2    0    0  0.00000000000E+00  0.00000000000E+00 -0.23812663611E+02  0.12724795852E+03  0.12500000000E+03 0.  0.
<mgrwt>
<rscale>  2 0.12500000E+03</rscale>
<asrwt>0</asrwt>
<pdfrwt beam="1">  1       21 0.79565612E-02 0.12500000E+03</pdfrwt>
<pdfrwt beam="2">  1       21 0.11620048E-01 0.12500000E+03</pdfrwt>
<totfact> 0.73735419E+06</totfact>
</mgrwt>
</event>
<event>
 3    0  0.1523631E+001  0.1250000E+03  0.7546771E-02  0.1235069E+00
         21   -1    0    0  502  501  0.00000000000E+00  0.00000000000E+00  0.11174698656E+02  0.11174698656E+02  0.00000000000E+00 0. -1.
         21   -1    0    0  501  502 -0.00000000000E+00 -0.00000000000E+00 -0.34956199896E+03  0.34956199896E+03  0.00000000000E+00 0. -1.
         25    1    1    2    0    0  0.00000000000E+00  0.00000000000E+00 -0.33838730030E+03  0.36073669762E+03  0.12500000000E+03 0.  0.
<mgrwt>
<rscale>  2 0.12500000E+03</rscale>
<asrwt>0</asrwt>
<pdfrwt beam="1">  1       21 0.17191842E-02 0.12500000E+03</pdfrwt>
<pdfrwt beam="2">  1       21 0.53778776E-01 0.12500000E+03</pdfrwt>
<totfact> 0.50755138E+06</totfact>
</mgrwt>
</event>
<event>
 3    0  0.1697850E+001  0.1250000E+03  0.7546771E-02  0.1235069E+00
         21   -1    0    0  502  501  0.00000000000E+00  0.00000000000E+00  0.34398615278E+02  0.34398615278E+02  0.00000000000E+00 0. -1.
         21   -1    0    0  501  502 -0.00000000000E+00 -0.00000000000E+00 -0.11355835020E+03  0.11355835020E+03  0.00000000000E+00 0. -1.
         25    1    1    2    0    0  0.00000000000E+00  0.00000000000E+00 -0.79159734918E+02  0.14795696547E+03  0.12500000000E+03 0.  0.
<mgrwt>
<rscale>  2 0.12500000E+03</rscale>
<asrwt>0</asrwt>
<pdfrwt beam="1">  1       21 0.52920947E-02 0.12500000E+03</pdfrwt>
<pdfrwt beam="2">  1       21 0.17470515E-01 0.12500000E+03</pdfrwt>
<totfact> 0.71016796E+06</totfact>
</mgrwt>
</event>
<event>
 3    0  0.1663534E+001  0.1250000E+03  0.7546771E-02  0.1235069E+00
         21   -1    0    0  502  501  0.00000000000E+00  0.00000000000E+00  0.22155636565E+02  0.22155636565E+02  0.00000000000E+00 0. -1.
         21   -1    0    0  501  502 -0.00000000000E+00 -0.00000000000E+00 -0.17630953589E+03  0.17630953589E+03  0.00000000000E+00 0. -1.
         25    1    1    2    0    0  0.00000000000E+00  0.00000000000E+00 -0.15415389932E+03  0.19846517245E+03  0.12500000000E+03 0.  0.
<mgrwt>
<rscale>  2 0.12500000E+03</rscale>
<asrwt>0</asrwt>
<pdfrwt beam="1">  1       21 0.34085596E-02 0.12500000E+03</pdfrwt>
<pdfrwt beam="2">  1       21 0.27124543E-01 0.12500000E+03</pdfrwt>
<totfact> 0.65093751E+06</totfact>
</mgrwt>
</event>
<event>
 3    0  0.1428652E+001  0.1250000E+03  0.7546771E-02  0.1235069E+00
         21   -1    0    0  502  501  0.00000000000E+00  0.00000000000E+00  0.54663804230E+03  0.54663804230E+03  0.00000000000E+00 0. -1.
         21   -1    0    0  501  502 -0.00000000000E+00 -0.00000000000E+00 -0.71459534422E+01  0.71459534422E+01  0.00000000000E+00 0. -1.
         25    1    1    2    0    0  0.00000000000E+00  0.00000000000E+00  0.53949208886E+03  0.55378399574E+03  0.12500000000E+03 0.  0.
<mgrwt>
<rscale>  2 0.12500000E+03</rscale>
<asrwt>0</asrwt>
<pdfrwt beam="1">  1       21 0.84098128E-01 0.12500000E+03</pdfrwt>
<pdfrwt beam="2">  1       21 0.10993779E-02 0.12500000E+03</pdfrwt>
<totfact> 0.39269753E+06</totfact>
</mgrwt>
</event>
<event>
 3    0  0.1726456E+001  0.1250000E+03  0.7546771E-02  0.1235069E+00
         21   -1    0    0  502  501  0.00000000000E+00  0.00000000000E+00  0.39530317734E+02  0.39530317734E+02  0.00000000000E+00 0.  1.
         21   -1    0    0  501  502 -0.00000000000E+00 -0.00000000000E+00 -0.98816559641E+02  0.98816559641E+02  0.00000000000E+00 0.  1.
         25    1    1    2    0    0  0.00000000000E+00  0.00000000000E+00 -0.59286241906E+02  0.13834687737E+03  0.12500000000E+03 0.  0.
<mgrwt>
<rscale>  2 0.12500000E+03</rscale>
<asrwt>0</asrwt>
<pdfrwt beam="1">  1       21 0.60815873E-02 0.12500000E+03</pdfrwt>
<pdfrwt beam="2">  1       21 0.15202548E-01 0.12500000E+03</pdfrwt>
<totfact> 0.72255861E+06</totfact>
</mgrwt>
</event>
<event>
 3    0  0.1651188E+001  0.1250000E+03  0.7546771E-02  0.1235069E+00
         21   -1    0    0  502  501  0.00000000000E+00  0.00000000000E+00  0.18117331085E+03  0.18117331085E+03  0.00000000000E+00 0. -1.
         21   -1    0    0  501  502 -0.00000000000E+00 -0.00000000000E+00 -0.21560846803E+02  0.21560846803E+02  0.00000000000E+00 0. -1.
         25    1    1    2    0    0  0.00000000000E+00  0.00000000000E+00  0.15961246405E+03  0.20273415765E+03  0.12500000000E+03 0.  0.
<mgrwt>
<rscale>  2 0.12500000E+03</rscale>
<asrwt>0</asrwt>
<pdfrwt beam="1">  1       21 0.27872816E-01 0.12500000E+03</pdfrwt>
<pdfrwt beam="2">  1       21 0.33170535E-02 0.12500000E+03</pdfrwt>
<totfact> 0.64632187E+06</totfact>
</mgrwt>
</event>
<event>
 3    0  0.1652896E+001  0.1250000E+03  0.7546771E-02  0.1235069E+00
         21   -1    0    0  502  501  0.00000000000E+00  0.00000000000E+00  0.23660508201E+03  0.23660508201E+03  0.00000000000E+00 0.  1.
         21   -1    0    0  501  502 -0.00000000000E+00 -0.00000000000E+00 -0.16509577760E+02  0.16509577760E+02  0.00000000000E+00 0.  1.
         25    1    1    2    0    0  0.00000000000E+00  0.00000000000E+00  0.22009550425E+03  0.25311465977E+03  0.12500000000E+03 0.  0.
<mgrwt>
<rscale>  2 0.12500000E+03</rscale>
<asrwt>0</asrwt>
<pdfrwt beam="1">  1       21 0.36400779E-01 0.12500000E+03</pdfrwt>
<pdfrwt beam="2">  1       21 0.25399352E-02 0.12500000E+03</pdfrwt>
<totfact> 0.59586183E+06</totfact>
</mgrwt>
</event>
<event>
 3    0  0.1740452E+001  0.1250000E+03  0.7546771E-02  0.1235069E+00
         21   -1    0    0  502  501  0.00000000000E+00  0.00000000000E+00  0.59317363498E+02  0.59317363498E+02  0.00000000000E+00 0.  1.
         21   -1    0    0  501  502 -0.00000000000E+00 -0.00000000000E+00 -0.65853398897E+02  0.65853398897E+02  0.00000000000E+00 0.  1.
         25    1    1    2    0    0  0.00000000000E+00  0.00000000000E+00 -0.65360353988E+01  0.12517076240E+03  0.12500000000E+03 0.  0.
<mgrwt>
<rscale>  2 0.12500000E+03</rscale>
<asrwt>0</asrwt>
<pdfrwt beam="1">  1       21 0.91257483E-02 0.12500000E+03</pdfrwt>
<pdfrwt beam="2">  1       21 0.10131292E-01 0.12500000E+03</pdfrwt>
<totfact> 0.74020520E+06</totfact>
</mgrwt>
</event>
<event>
 3    0  0.1368989E+001  0.1250000E+03  0.7546771E-02  0.1235069E+00
         21   -1    0    0  502  501  0.00000000000E+00  0.00000000000E+00  0.78642872162E+03  0.78642872162E+03  0.00000000000E+00 0.  1.
         21   -1    0    0  501  502 -0.00000000000E+00 -0.00000000000E+00 -0.49670744374E+01  0.49670744374E+01  0.00000000000E+00 0.  1.
         25    1    1    2    0    0  0.00000000000E+00  0.00000000000E+00  0.78146164718E+03  0.79139579605E+03  0.12500000000E+03 0.  0.
<mgrwt>
<rscale>  2 0.12500000E+03</rscale>
<asrwt>0</asrwt>
<pdfrwt beam="1">  1       21 0.12098894E+00 0.12500000E+03</pdfrwt>
<pdfrwt beam="2">  1       21 0.76416592E-03 0.12500000E+03</pdfrwt>
<totfact> 0.29649908E+06</totfact>
</mgrwt>
</event>
<event>
 3    0  0.1715762E+001  0.1250000E+03  0.7546771E-02  0.1235069E+00
         21   -1    0    0  502  501  0.00000000000E+00  0.00000000000E+00  0.61683611749E+02  0.61683611749E+02  0.00000000000E+00 0. -1.
         21   -1    0    0  501  502 -0.00000000000E+00 -0.00000000000E+00 -0.63327193225E+02  0.63327193225E+02  0.00000000000E+00 0. -1.
         25    1    1    2    0    0  0.00000000000E+00  0.00000000000E+00 -0.16435814761E+01  0.12501080497E+03  0.12500000000E+03 0.  0.
<mgrwt>
<rscale>  2 0.12500000E+03</rscale>
<asrwt>0</asrwt>
<pdfrwt beam="1">  1       21 0.94897865E-02 0.12500000E+03</pdfrwt>
<pdfrwt beam="2">  1       21 0.97426450E-02 0.12500000E+03</pdfrwt>
<totfact> 0.74042122E+06</totfact>
</mgrwt>
</event>
<event>
 3    0  0.1565120E+001  0.1250000E+03  0.7546771E-02  0.1235069E+00
         21   -1    0    0  502  501  0.00000000000E+00  0.00000000000E+00  0.33054294388E+03  0.33054294388E+03  0.00000000000E+00 0. -1.
         21   -1    0    0  501  502 -0.00000000000E+00 -0.00000000000E+00 -0.11817677770E+02  0.11817677770E+02  0.00000000000E+00 0. -1.
         25    1    1    2    0    0  0.00000000000E+00  0.00000000000E+00  0.31872526611E+03  0.34236062165E+03  0.12500000000E+03 0.  0.
<mgrwt>
<rscale>  2 0.12500000E+03</rscale>
<asrwt>0</asrwt>
<pdfrwt beam="1">  1       21 0.50852754E-01 0.12500000E+03</pdfrwt>
<pdfrwt beam="2">  1       21 0.18181045E-02 0.12500000E+03</pdfrwt>
<totfact> 0.52107620E+06</totfact>
</mgrwt>
</event>
<event>
 3    0  0.1737763E+001  0.1250000E+03  0.7546771E-02  0.1235069E+00
         21   -1    0    0  502  501  0.00000000000E+00  0.00000000000E+00  0.52421681628E+02  0.52421681628E+02  0.00000000000E+00 0.  1.
         21   -1    0    0  501  502 -0.00000000000E+00 -0.00000000000E+00 -0.74515923159E+02  0.74515923159E+02  0.00000000000E+00 0.  1.
         25    1    1    2    0    0  0.00000000000E+00  0.00000000000E+00 -0.22094241531E+02  0.12693760479E+03  0.12500000000E+03 0.  0.
<mgrwt>
<rscale>  2 0.12500000E+03</rscale>
<asrwt>0</asrwt>
<pdfrwt beam="1">  1       21 0.80648741E-02 0.12500000E+03</pdfrwt>
<pdfrwt beam="2">  1       21 0.11463988E-01 0.12500000E+03</pdfrwt>
<totfact> 0.73777632E+06</totfact>
</mgrwt>
</event>
<event>
 3    0  0.1681855E+001  0.1250000E+03  0.7546771E-02  0.1235069E+00
         21   -1    0    0  502  501  0.00000000000E+00  0.00000000000E+00  0.14339037355E+03  0.14339037355E+03  0.00000000000E+00 0. -1.
         21   -1    0    0  501  502 -0.00000000000E+00 -0.00000000000E+00 -0.27242065860E+02  0.27242065860E+02  0.00000000000E+00 0. -1.
         25    1    1    2    0    0  0.00000000000E+00  0.00000000000E+00  0.11614830769E+03  0.17063243941E+03  0.12500000000E+03 0.  0.
<mgrwt>
<rscale>  2 0.12500000E+03</rscale>
<asrwt>0</asrwt>
<pdfrwt beam="1">  1       21 0.22060057E-01 0.12500000E+03</pdfrwt>
<pdfrwt beam="2">  1       21 0.41910871E-02 0.12500000E+03</pdfrwt>
<totfact> 0.68242743E+06</totfact>
</mgrwt>
</event>
<event>
 3    0  0.1510463E+001  0.1250000E+03  0.7546771E-02  0.1235069E+00
         21   -1    0    0  502  501  0.00000000000E+00  0.00000000000E+00  0.42820940670E+03  0.42820940670E+03  0.00000000000E+00 0.  1.
         21   -1    0    0  501  502 -0.00000000000E+00 -0.00000000000E+00 -0.91222890925E+01  0.91222890925E+01  0.00000000000E+00 0.  1.
         25    1    1    2    0    0  0.00000000000E+00  0.00000000000E+00  0.41908711760E+03  0.43733169579E+03  0.12500000000E+03 0.  0.
<mgrwt>
<rscale>  2 0.12500000E+03</rscale>
<asrwt>0</asrwt>
<pdfrwt beam="1">  1       21 0.65878355E-01 0.12500000E+03</pdfrwt>
<pdfrwt beam="2">  1       21 0.14034294E-02 0.12500000E+03</pdfrwt>
<totfact> 0.45659898E+06</totfact>
</mgrwt>
</event>
<event>
 3    0  0.1711124E+001  0.1250000E+03  0.7546771E-02  0.1235069E+00
         21   -1    0    0  502  501  0.00000000000E+00  0.00000000000E+00  0.84750134001E+02  0.84750134001E+02  0.00000000000E+00 0. -1.
         21   -1    0    0  501  502 -0.00000000000E+00 -0.00000000000E+00 -0.46091372551E+02  0.46091372551E+02  0.00000000000E+00 0. -1.
         25    1    1    2    0    0  0.00000000000E+00  0.00000000000E+00  0.38658761450E+02  0.13084150655E+03  0.12500000000E+03 0.  0.
<mgrwt>
<rscale>  2 0.12500000E+03</rscale>
<asrwt>0</asrwt>
<pdfrwt beam="1">  1       21 0.13038482E-01 0.12500000E+03</pdfrwt>
<pdfrwt beam="2">  1       21 0.70909804E-02 0.12500000E+03</pdfrwt>
<totfact> 0.73252038E+06</totfact>
</mgrwt>
</event>
<event>
 3    0  0.1601690E+001  0.1250000E+03  0.7546771E-02  0.1235069E+00
         21   -1    0    0  502  501  0.00000000000E+00  0.00000000000E+00  0.28040556981E+03  0.28040556981E+03  0.00000000000E+00 0.  1.
         21   -1    0    0  501  502 -0.00000000000E+00 -0.00000000000E+00 -0.13930714724E+02  0.13930714724E+02  0.00000000000E+00 0.  1.
         25    1    1    2    0    0  0.00000000000E+00  0.00000000000E+00  0.26647485509E+03  0.29433628453E+03  0.12500000000E+03 0.  0.
<mgrwt>
<rscale>  2 0.12500000E+03</rscale>
<asrwt>0</asrwt>
<pdfrwt beam="1">  1       21 0.43139314E-01 0.12500000E+03</pdfrwt>
<pdfrwt beam="2">  1       21 0.21431871E-02 0.12500000E+03</pdfrwt>
<totfact> 0.55930161E+06</totfact>
</mgrwt>
</event>
<event>
 3    0  0.1368989E+001  0.1250000E+03  0.7546771E-02  0.1235069E+00
         21   -1    0    0  502  501  0.00000000000E+00  0.00000000000E+00  0.40473556800E+01  0.40473556800E+01  0.00000000000E+00 0.  1.
         21   -1    0    0  501  502 -0.00000000000E+00 -0.00000000000E+00 -0.96513632822E+03  0.96513632822E+03  0.00000000000E+00 0.  1.
         25    1    1    2    0    0  0.00000000000E+00  0.00000000000E+00 -0.96108897254E+03  0.96918368390E+03  0.12500000000E+03 0.  0.
<mgrwt>
<rscale>  2 0.12500000E+03</rscale>
<asrwt>0</asrwt>
<pdfrwt beam="1">  1       21 0.62267000E-03 0.12500000E+03</pdfrwt>
<pdfrwt beam="2">  1       21 0.14848254E+00 0.12500000E+03</pdfrwt>
<totfact> 0.24404723E+06</totfact>
</mgrwt>
</event>
<event>
 3    0  0.1368989E+001  0.1250000E+03  0.7546771E-02  0.1235069E+00
         21   -1    0    0  502  501  0.00000000000E+00  0.00000000000E+00  0.11824363196E+04  0.11824363196E+04  0.00000000000E+00 0. -1.
         21   -1    0    0  501  502 -0.00000000000E+00 -0.00000000000E+00 -0.33035605684E+01  0.33035605684E+01  0.00000000000E+00 0. -1.
         25    1    1    2    0    0  0.00000000000E+00  0.00000000000E+00  0.11791327590E+04  0.11857398801E+04  0.12500000000E+03 0.  0.
<mgrwt>
<rscale>  2 0.12500000E+03</rscale>
<asrwt>0</asrwt>
<pdfrwt beam="1">  1       21 0.18191294E+00 0.12500000E+03</pdfrwt>
<pdfrwt beam="2">  1       21 0.50824103E-03 0.12500000E+03</pdfrwt>
<totfact> 0.19429933E+06</totfact>
</mgrwt>
</event>
<event>
 3    0  0.1691110E+001  0.1250000E+03  0.7546771E-02  0.1235069E+00
         21   -1    0    0  502  501  0.00000000000E+00  0.00000000000E+00  0.35408596974E+02  0.35408596974E+02  0.00000000000E+00 0. -1.
         21   -1    0    0  501  502 -0.00000000000E+00 -0.00000000000E+00 -0.11031925391E+03  0.11031925391E+03  0.00000000000E+00 0. -1.
         25    1    1    2    0    0  0.00000000000E+00  0.00000000000E+00 -0.74910656932E+02  0.14572785088E+03  0.12500000000E+03 0.  0.
<mgrwt>
<rscale>  2 0.12500000E+03</rscale>
<asrwt>0</asrwt>
<pdfrwt beam="1">  1       21 0.54474766E-02 0.12500000E+03</pdfrwt>
<pdfrwt beam="2">  1       21 0.16972193E-01 0.12500000E+03</pdfrwt>
<totfact> 0.71300082E+06</totfact>
</mgrwt>
</event>
<event>
 3    0  0.1711042E+001  0.1250000E+03  0.7546771E-02  0.1235069E+00
         21   -1    0    0  502  501  0.00000000000E+00  0.00000000000E+00  0.31695064530E+02  0.31695064530E+02  0.00000000000E+00 0.  1.
         21   -1    0    0  501  502 -0.00000000000E+00 -0.00000000000E+00 -0.12324474040E+03  0.12324474040E+03  0.00000000000E+00 0.  1.
         25    1    1    2    0    0  0.00000000000E+00  0.00000000000E+00 -0.91549675870E+02  0.15493980493E+03  0.12500000000E+03 0.  0.
<mgrwt>
<rscale>  2 0.12500000E+03</rscale>
<asrwt>0</asrwt>
<pdfrwt beam="1">  1       21 0.48761638E-02 0.12500000E+03</pdfrwt>
<pdfrwt beam="2">  1       21 0.18960729E-01 0.12500000E+03</pdfrwt>
<totfact> 0.70143141E+06</totfact>
</mgrwt>
</event>
<event>
 3    0  0.1609493E+001  0.1250000E+03  0.7546771E-02  0.1235069E+00
         21   -1    0    0  502  501  0.00000000000E+00  0.00000000000E+00  0.14087331534E+02  0.14087331534E+02  0.00000000000E+00 0.  1.
         21   -1    0    0  501  502 -0.00000000000E+00 -0.00000000000E+00 -0.27728814294E+03  0.27728814294E+03  0.00000000000E+00 0.  1.
         25    1    1    2    0    0  0.00000000000E+00  0.00000000000E+00 -0.26320081141E+03  0.29137547448E+03  0.12500000000E+03 0.  0.
<mgrwt>
<rscale>  2 0.12500000E+03</rscale>
<asrwt>0</asrwt>
<pdfrwt beam="1">  1       21 0.21672819E-02 0.12500000E+03</pdfrwt>
<pdfrwt beam="2">  1       21 0.42659712E-01 0.12500000E+03</pdfrwt>
<totfact> 0.56180609E+06</totfact>
</mgrwt>
</event>
<event>
 3    0  0.1722202E+001  0.1250000E+03  0.7546771E-02  0.1235069E+00
         21   -1    0    0  502  501  0.00000000000E+00  0.00000000000E+00  0.37606296045E+02  0.37606296045E+02  0.00000000000E+00 0.  1.
         21   -1    0    0  501  502 -0.00000000000E+00 -0.00000000000E+00 -0.10387223446E+03  0.10387223446E+03  0.00000000000E+00 0.  1.
         25    1    1    2    0    0  0.00000000000E+00  0.00000000000E+00 -0.66265938417E+02  0.14147853051E+03  0.12500000000E+03 0.  0.
<mgrwt>
<rscale>  2 0.12500000E+03</rscale>
<asrwt>0</asrwt>
<pdfrwt beam="1">  1       21 0.57855841E-02 0.12500000E+03</pdfrwt>
<pdfrwt beam="2">  1       21 0.15980344E-01 0.12500000E+03</pdfrwt>
<totfact> 0.71846873E+06</totfact>
</mgrwt>
</event>
<event>
 3    0  0.1704462E+001  0.1250000E+03  0.7546771E-02  0.1235069E+00
         21   -1    0    0  502  501  0.00000000000E+00  0.00000000000E+00  0.42121725701E+02  0.42121725701E+02  0.00000000000E+00 0. -1.
         21   -1    0    0  501  502 -0.00000000000E+00 -0.00000000000E+00 -0.92737178616E+02  0.92737178616E+02  0.00000000000E+00 0. -1.
         25    1    1    2    0    0  0.00000000000E+00  0.00000000000E+00 -0.50615452915E+02  0.13485890432E+03  0.12500000000E+03 0.  0.
<mgrwt>
<rscale>  2 0.12500000E+03</rscale>
<asrwt>0</asrwt>
<pdfrwt beam="1">  1       21 0.64802656E-02 0.12500000E+03</pdfrwt>
<pdfrwt beam="2">  1       21 0.14267258E-01 0.12500000E+03</pdfrwt>
<totfact> 0.72715159E+06</totfact>
</mgrwt>
</event>
<event>
 3    0  0.1643167E+001  0.1250000E+03  0.7546771E-02  0.1235069E+00
         21   -1    0    0  502  501  0.00000000000E+00  0.00000000000E+00  0.15392221473E+02  0.15392221473E+02  0.00000000000E+00 0.  1.
         21   -1    0    0  501  502 -0.00000000000E+00 -0.00000000000E+00 -0.25378078187E+03  0.25378078187E+03  0.00000000000E+00 0.  1.
         25    1    1    2    0    0  0.00000000000E+00  0.00000000000E+00 -0.23838856040E+03  0.26917300334E+03  0.12500000000E+03 0.  0.
<mgrwt>
<rscale>  2 0.12500000E+03</rscale>
<asrwt>0</asrwt>
<pdfrwt beam="1">  1       21 0.23680343E-02 0.12500000E+03</pdfrwt>
<pdfrwt beam="2">  1       21 0.39043194E-01 0.12500000E+03</pdfrwt>
<totfact> 0.58118584E+06</totfact>
</mgrwt>
</event>
<event>
 3    0  0.1545164E+001  0.1250000E+03  0.7546771E-02  0.1235069E+00
         21   -1    0    0  502  501  0.00000000000E+00  0.00000000000E+00  0.33979514635E+03  0.33979514635E+03  0.00000000000E+00 0. -1.
         21   -1    0    0  501  502 -0.00000000000E+00 -0.00000000000E+00 -0.11495896990E+02  0.11495896990E+02  0.00000000000E+00 0. -1.
         25    1    1    2    0    0  0.00000000000E+00  0.00000000000E+00  0.32829924936E+03  0.35129104334E+03  0.12500000000E+03 0.  0.
<mgrwt>
<rscale>  2 0.12500000E+03</rscale>
<asrwt>0</asrwt>
<pdfrwt beam="1">  1       21 0.52276169E-01 0.12500000E+03</pdfrwt>
<pdfrwt beam="2">  1       21 0.17685998E-02 0.12500000E+03</pdfrwt>
<totfact> 0.51443229E+06</totfact>
</mgrwt>
</event>
<event>
 3    0  0.1713303E+001  0.1250000E+03  0.7546771E-02  0.1235069E+00
         21   -1    0    0  502  501  0.00000000000E+00  0.00000000000E+00  0.52639914081E+02  0.52639914081E+02  0.00000000000E+00 0. -1.
         21   -1    0    0  501  502 -0.00000000000E+00 -0.00000000000E+00 -0.74206998021E+02  0.74206998021E+02  0.00000000000E+00 0. -1.
         25    1    1    2    0    0  0.00000000000E+00  0.00000000000E+00 -0.21567083940E+02  0.12684691210E+03  0.12500000000E+03 0.  0.
<mgrwt>
<rscale>  2 0.12500000E+03</rscale>
<asrwt>0</asrwt>
<pdfrwt beam="1">  1       21 0.80984484E-02 0.12500000E+03</pdfrwt>
<pdfrwt beam="2">  1       21 0.11416461E-01 0.12500000E+03</pdfrwt>
<totfact> 0.73789991E+06</totfact>
</mgrwt>
</event>
<event>
 3    0  0.1368989E+001  0.1250000E+03  0.7546771E-02  0.1235069E+00
         21   -1    0    0  502  501  0.00000000000E+00  0.00000000000E+00  0.32342276362E+01  0.32342276362E+01  0.00000000000E+00 0. -1.
         21   -1    0    0  501  502 -0.00000000000E+00 -0.00000000000E+00 -0.12077844974E+04  0.12077844974E+04  0.00000000000E+00 0. -1.
         25    1    1    2    0    0  0.00000000000E+00  0.00000000000E+00 -0.12045502698E+04  0.12110187250E+04  0.12500000000E+03 0.  0.
<mgrwt>
<rscale>  2 0.12500000E+03</rscale>
<asrwt>0</asrwt>
<pdfrwt beam="1">  1       21 0.49757360E-03 0.12500000E+03</pdfrwt>
<pdfrwt beam="2">  1       21 0.18581296E+00 0.12500000E+03</pdfrwt>
<totfact> 0.18925165E+06</totfact>
</mgrwt>
</event>
<event>
 3    0  0.1646894E+001  0.1250000E+03  0.7546771E-02  0.1235069E+00
         21   -1    0    0  502  501  0.00000000000E+00  0.00000000000E+00  0.21324947051E+02  0.21324947051E+02  0.00000000000E+00 0. -1.
         21   -1    0    0  501  502 -0.00000000000E+00 -0.00000000000E+00 -0.18317747710E+03  0.18317747710E+03  0.00000000000E+00 0. -1.
         25    1    1    2    0    0  0.00000000000E+00  0.00000000000E+00 -0.16185253004E+03  0.20450242415E+03  0.12500000000E+03 0.  0.
<mgrwt>
<rscale>  2 0.12500000E+03</rscale>
<asrwt>0</asrwt>
<pdfrwt beam="1">  1       21 0.32807611E-02 0.12500000E+03</pdfrwt>
<pdfrwt beam="2">  1       21 0.28181150E-01 0.12500000E+03</pdfrwt>
<totfact> 0.64442626E+06</totfact>
</mgrwt>
</event>
<event>
 3    0  0.1737359E+001  0.1250000E+03  0.7546771E-02  0.1235069E+00
         21   -1    0    0  502  501  0.00000000000E+00  0.00000000000E+00  0.52128387073E+02  0.52128387073E+02  0.00000000000E+00 0.  1.
         21   -1    0    0  501  502 -0.00000000000E+00 -0.00000000000E+00 -0.74935178688E+02  0.74935178688E+02  0.00000000000E+00 0.  1.
         25    1    1    2    0    0  0.00000000000E+00  0.00000000000E+00 -0.22806791615E+02  0.12706356576E+03  0.12500000000E+03 0.  0.
<mgrwt>
<rscale>  2 0.12500000E+03</rscale>
<asrwt>0</asrwt>
<pdfrwt beam="1">  1       21 0.80197519E-02 0.12500000E+03</pdfrwt>
<pdfrwt beam="2">  1       21 0.11528489E-01 0.12500000E+03</pdfrwt>
<totfact> 0.73760485E+06</totfact>
</mgrwt>
</event>
<event>
 3    0  0.1368989E+001  0.1250000E+03  0.7546771E-02  0.1235069E+00
         21   -1    0    0  502  501  0.00000000000E+00  0.00000000000E+00  0.55169179590E+01  0.55169179590E+01  0.00000000000E+00 0. -1.
         21   -1    0    0  501  502 -0.00000000000E+00 -0.00000000000E+00 -0.70804931830E+03  0.70804931830E+03  0.00000000000E+00 0. -1.
         25    1    1    2    0    0  0.00000000000E+00  0.00000000000E+00 -0.70253240034E+03  0.71356623626E+03  0.12500000000E+03 0.  0.
<mgrwt>
<rscale>  2 0.12500000E+03</rscale>
<asrwt>0</asrwt>
<pdfrwt beam="1">  1       21 0.84875661E-03 0.12500000E+03</pdfrwt>
<pdfrwt beam="2">  1       21 0.10893066E+00 0.12500000E+03</pdfrwt>
<totfact> 0.32393637E+06</totfact>
</mgrwt>
</event>
<event>
 3    0  0.1665390E+001  0.1250000E+03  0.7546771E-02  0.1235069E+00
         21   -1    0    0  502  501  0.00000000000E+00  0.00000000000E+00  0.24521312279E+02  0.24521312279E+02  0.00000000000E+00 0. -1.
         21   -1    0    0  501  502 -0.00000000000E+00 -0.00000000000E+00 -0.15930020203E+03  0.15930020203E+03  0.00000000000E+00 0. -1.
         25    1    1    2    0    0  0.00000000000E+00  0.00000000000E+00 -0.13477888975E+03  0.18382151430E+03  0.12500000000E+03 0.  0.
<mgrwt>
<rscale>  2 0.12500000E+03</rscale>
<asrwt>0</asrwt>
<pdfrwt beam="1">  1       21 0.37725095E-02 0.12500000E+03</pdfrwt>
<pdfrwt beam="2">  1       21 0.24507724E-01 0.12500000E+03</pdfrwt>
<totfact> 0.66715825E+06</totfact>
</mgrwt>
</event>
<event>
 3    0  0.1711086E+001  0.1250000E+03  0.7546771E-02  0.1235069E+00
         21   -1    0    0  502  501  0.00000000000E+00  0.00000000000E+00  0.12335095168E+03  0.12335095168E+03  0.00000000000E+00 0.  1.
         21   -1    0    0  501  502 -0.00000000000E+00 -0.00000000000E+00 -0.31667773509E+02  0.31667773509E+02  0.00000000000E+00 0.  1.
         25    1    1    2    0    0  0.00000000000E+00  0.00000000000E+00  0.91683178173E+02  0.15501872519E+03  0.12500000000E+03 0.  0.
<mgrwt>
<rscale>  2 0.12500000E+03</rscale>
<asrwt>0</asrwt>
<pdfrwt beam="1">  1       21 0.18977069E-01 0.12500000E+03</pdfrwt>
<pdfrwt beam="2">  1       21 0.48719652E-02 0.12500000E+03</pdfrwt>
<totfact> 0.70133332E+06</totfact>
</mgrwt>
</event>
<event>
 3    0  0.1368989E+001  0.1250000E+03  0.7546771E-02  0.1235069E+00
         21   -1    0    0  502  501  0.00000000000E+00  0.00000000000E+00  0.19326651558E+04  0.19326651558E+04  0.00000000000E+00 0. -1.
         21   -1    0    0  501  502 -0.00000000000E+00 -0.00000000000E+00 -0.20211726735E+01  0.20211726735E+01  0.00000000000E+00 0. -1.
         25    1    1    2    0    0  0.00000000000E+00  0.00000000000E+00  0.19306439832E+04  0.19346863285E+04  0.12500000000E+03 0.  0.
<mgrwt>
<rscale>  2 0.12500000E+03</rscale>
<asrwt>0</asrwt>
<pdfrwt beam="1">  1       21 0.29733162E+00 0.12500000E+03</pdfrwt>
<pdfrwt beam="2">  1       21 0.31095119E-03 0.12500000E+03</pdfrwt>
<totfact> 0.86026859E+05</totfact>
</mgrwt>
</event>
<event>
 3    0  0.1620032E+001  0.1250000E+03  0.7546771E-02  0.1235069E+00
         21   -1    0    0  502  501  0.00000000000E+00  0.00000000000E+00  0.13595538146E+02  0.13595538146E+02  0.00000000000E+00 0.  1.
         21   -1    0    0  501  502 -0.00000000000E+00 -0.00000000000E+00 -0.28731852745E+03  0.28731852745E+03  0.00000000000E+00 0.  1.
         25    1    1    2    0    0  0.00000000000E+00  0.00000000000E+00 -0.27372298930E+03  0.30091406560E+03  0.12500000000E+03 0.  0.
<mgrwt>
<rscale>  2 0.12500000E+03</rscale>
<asrwt>0</asrwt>
<pdfrwt beam="1">  1       21 0.20916214E-02 0.12500000E+03</pdfrwt>
<pdfrwt beam="2">  1       21 0.44202847E-01 0.12500000E+03</pdfrwt>
<totfact> 0.55380298E+06</totfact>
</mgrwt>
</event>
<event>
 3    0  0.1610594E+001  0.1250000E+03  0.7546771E-02  0.1235069E+00
         21   -1    0    0  502  501  0.00000000000E+00  0.00000000000E+00  0.24456570922E+03  0.24456570922E+03  0.00000000000E+00 0. -1.
         21   -1    0    0  501  502 -0.00000000000E+00 -0.00000000000E+00 -0.15972190101E+02  0.15972190101E+02  0.00000000000E+00 0. -1.
         25    1    1    2    0    0  0.00000000000E+00  0.00000000000E+00  0.22859351912E+03  0.26053789932E+03  0.12500000000E+03 0.  0.
<mgrwt>
<rscale>  2 0.12500000E+03</rscale>
<asrwt>0</asrwt>
<pdfrwt beam="1">  1       21 0.37625491E-01 0.12500000E+03</pdfrwt>
<pdfrwt beam="2">  1       21 0.24572602E-02 0.12500000E+03</pdfrwt>
<totfact> 0.58900006E+06</totfact>
</mgrwt>
</event>
<event>
 3    0  0.1551860E+001  0.1250000E+03  0.7546771E-02  0.1235069E+00
         21   -1    0    0  502  501  0.00000000000E+00  0.00000000000E+00  0.11616698558E+02  0.11616698558E+02  0.00000000000E+00 0. -1.
         21   -1    0    0  501  502 -0.00000000000E+00 -0.00000000000E+00 -0.33626163067E+03  0.33626163067E+03  0.00000000000E+00 0. -1.
         25    1    1    2    0    0  0.00000000000E+00  0.00000000000E+00 -0.32464493212E+03  0.34787832923E+03  0.12500000000E+03 0.  0.
<mgrwt>
<rscale>  2 0.12500000E+03</rscale>
<asrwt>0</asrwt>
<pdfrwt beam="1">  1       21 0.17871843E-02 0.12500000E+03</pdfrwt>
<pdfrwt beam="2">  1       21 0.51732563E-01 0.12500000E+03</pdfrwt>
<totfact> 0.51695503E+06</totfact>
</mgrwt>
</event>
<event>
 3    0  0.1680578E+001  0.1250000E+03  0.7546771E-02  0.1235069E+00
         21   -1    0    0  502  501  0.00000000000E+00  0.00000000000E+00  0.14393115290E+03  0.14393115290E+03  0.00000000000E+00 0. -1.
         21   -1    0    0  501  502 -0.00000000000E+00 -0.00000000000E+00 -0.27139711740E+02  0.27139711740E+02  0.00000000000E+00 0. -1.
         25    1    1    2    0    0  0.00000000000E+00  0.00000000000E+00  0.11679144115E+03  0.17107086464E+03  0.12500000000E+03 0.  0.
<mgrwt>
<rscale>  2 0.12500000E+03</rscale>
<asrwt>0</asrwt>
<pdfrwt beam="1">  1       21 0.22143254E-01 0.12500000E+03</pdfrwt>
<pdfrwt beam="2">  1       21 0.41753404E-02 0.12500000E+03</pdfrwt>
<totfact> 0.68190917E+06</totfact>
</mgrwt>
</event>
<event>
 3    0  0.1588105E+001  0.1250000E+03  0.7546771E-02  0.1235069E+00
         21   -1    0    0  502  501  0.00000000000E+00  0.00000000000E+00  0.30957464222E+03  0.30957464222E+03  0.00000000000E+00 0. -1.
         21   -1    0    0  501  502 -0.00000000000E+00 -0.00000000000E+00 -0.12618120050E+02  0.12618120050E+02  0.00000000000E+00 0. -1.
         25    1    1    2    0    0  0.00000000000E+00  0.00000000000E+00  0.29695652217E+03  0.32219276227E+03  0.12500000000E+03 0.  0.
<mgrwt>
<rscale>  2 0.12500000E+03</rscale>
<asrwt>0</asrwt>
<pdfrwt beam="1">  1       21 0.47626862E-01 0.12500000E+03</pdfrwt>
<pdfrwt beam="2">  1       21 0.19412495E-02 0.12500000E+03</pdfrwt>
<totfact> 0.53660036E+06</totfact>
</mgrwt>
</event>
<event>
 3    0  0.1481398E+001  0.1250000E+03  0.7546771E-02  0.1235069E+00
         21   -1    0    0  502  501  0.00000000000E+00  0.00000000000E+00  0.90362273627E+01  0.90362273627E+01  0.00000000000E+00 0. -1.
         21   -1    0    0  501  502 -0.00000000000E+00 -0.00000000000E+00 -0.43228770627E+03  0.43228770627E+03  0.00000000000E+00 0. -1.
         25    1    1    2    0    0  0.00000000000E+00  0.00000000000E+00 -0.42325147891E+03  0.44132393364E+03  0.12500000000E+03 0.  0.
<mgrwt>
<rscale>  2 0.12500000E+03</rscale>
<asrwt>0</asrwt>
<pdfrwt beam="1">  1       21 0.13901889E-02 0.12500000E+03</pdfrwt>
<pdfrwt beam="2">  1       21 0.66505795E-01 0.12500000E+03</pdfrwt>
<totfact> 0.45415947E+06</totfact>
</mgrwt>
</event>
<event>
 3    0  0.1715780E+001  0.1250000E+03  0.7546771E-02  0.1235069E+00
         21   -1    0    0  502  501  0.00000000000E+00  0.00000000000E+00  0.63075195450E+02  0.63075195450E+02  0.00000000000E+00 0. -1.
         21   -1    0    0  501  502 -0.00000000000E+00 -0.00000000000E+00 -0.61930049873E+02  0.61930049873E+02  0.00000000000E+00 0. -1.
         25    1    1    2    0    0  0.00000000000E+00  0.00000000000E+00  0.11451455772E+01  0.12500524532E+03  0.12500000000E+03 0.  0.
<mgrwt>
<rscale>  2 0.12500000E+03</rscale>
<asrwt>0</asrwt>
<pdfrwt beam="1">  1       21 0.97038762E-02 0.12500000E+03</pdfrwt>
<pdfrwt beam="2">  1       21 0.95277000E-02 0.12500000E+03</pdfrwt>
<totfact> 0.74042873E+06</totfact>
</mgrwt>
</event>
<event>
 3    0  0.1738733E+001  0.1250000E+03  0.7546771E-02  0.1235069E+00
         21   -1    0    0  502  501  0.00000000000E+00  0.00000000000E+00  0.73258394949E+02  0.73258394949E+02  0.00000000000E+00 0.  1.
         21   -1    0    0  501  502 -0.00000000000E+00 -0.00000000000E+00 -0.53321534040E+02  0.53321534040E+02  0.00000000000E+00 0.  1.
         25    1    1    2    0    0  0.00000000000E+00  0.00000000000E+00  0.19936860909E+02  0.12657992899E+03  0.12500000000E+03 0.  0.
<mgrwt>
<rscale>  2 0.12500000E+03</rscale>
<asrwt>0</asrwt>
<pdfrwt beam="1">  1       21 0.11270522E-01 0.12500000E+03</pdfrwt>
<pdfrwt beam="2">  1       21 0.82033130E-02 0.12500000E+03</pdfrwt>
<totfact> 0.73826440E+06</totfact>
</mgrwt>
</event>
<event>
 3    0  0.1740857E+001  0.1250000E+03  0.7546771E-02  0.1235069E+00
         21   -1    0    0  502  501  0.00000000000E+00  0.00000000000E+00  0.60877096526E+02  0.60877096526E+02  0.00000000000E+00 0.  1.
         21   -1    0    0  501  502 -0.00000000000E+00 -0.00000000000E+00 -0.64166167950E+02  0.64166167950E+02  0.00000000000E+00 0.  1.
         25    1    1    2    0    0  0.00000000000E+00  0.00000000000E+00 -0.32890714243E+01  0.12504326448E+03  0.12500000000E+03 0.  0.
<mgrwt>
<rscale>  2 0.12500000E+03</rscale>
<asrwt>0</asrwt>
<pdfrwt beam="1">  1       21 0.93657071E-02 0.12500000E+03</pdfrwt>
<pdfrwt beam="2">  1       21 0.98717182E-02 0.12500000E+03</pdfrwt>
<totfact> 0.74037738E+06</totfact>
</mgrwt>
</event>
<event>
 3    0  0.1702415E+001  0.1250000E+03  0.7546771E-02  0.1235069E+00
         21   -1    0    0  502  501  0.00000000000E+00  0.00000000000E+00  0.37303112031E+02  0.37303112031E+02  0.00000000000E+00 0. -1.
         21   -1    0    0  501  502 -0.00000000000E+00 -0.00000000000E+00 -0.10471646432E+03  0.10471646432E+03  0.00000000000E+00 0. -1.
         25    1    1    2    0    0  0.00000000000E+00  0.00000000000E+00 -0.67413352289E+02  0.14201957635E+03  0.12500000000E+03 0.  0.
<mgrwt>
<rscale>  2 0.12500000E+03</rscale>
<asrwt>0</asrwt>
<pdfrwt beam="1">  1       21 0.57389403E-02 0.12500000E+03</pdfrwt>
<pdfrwt beam="2">  1       21 0.16110225E-01 0.12500000E+03</pdfrwt>
<totfact> 0.71776742E+06</totfact>
</mgrwt>
</event>
<event>
 3    0  0.1368989E+001  0.1250000E+03  0.7546771E-02  0.1235069E+00
         21   -1    0    0  502  501  0.00000000000E+00  0.00000000000E+00  0.51676495860E+01  0.51676495860E+01  0.00000000000E+00 0. -1.
         21   -1    0    0  501  502 -0.00000000000E+00 -0.00000000000E+00 -0.75590458195E+03  0.75590458195E+03  0.00000000000E+00 0. -1.
         25    1    1    2    0    0  0.00000000000E+00  0.00000000000E+00 -0.75073693237E+03  0.76107223154E+03  0.12500000000E+03 0.  0.
<mgrwt>
<rscale>  2 0.12500000E+03</rscale>
<asrwt>0</asrwt>
<pdfrwt beam="1">  1       21 0.79502323E-03 0.12500000E+03</pdfrwt>
<pdfrwt beam="2">  1       21 0.11629298E+00 0.12500000E+03</pdfrwt>
<totfact> 0.30683217E+06</totfact>
</mgrwt>
</event>
<event>
 3    0  0.1586826E+001  0.1250000E+03  0.7546771E-02  0.1235069E+00
         21   -1    0    0  502  501  0.00000000000E+00  0.00000000000E+00  0.12607633973E+02  0.12607633973E+02  0.00000000000E+00 0. -1.
         21   -1    0    0  501  502 -0.00000000000E+00 -0.00000000000E+00 -0.30983212301E+03  0.30983212301E+03  0.00000000000E+00 0. -1.
         25    1    1    2    0    0  0.00000000000E+00  0.00000000000E+00 -0.29722448903E+03  0.32243975698E+03  0.12500000000E+03 0.  0.
<mgrwt>
<rscale>  2 0.12500000E+03</rscale>
<asrwt>0</asrwt>
<pdfrwt beam="1">  1       21 0.19396362E-02 0.12500000E+03</pdfrwt>
<pdfrwt beam="2">  1       21 0.47666477E-01 0.12500000E+03</pdfrwt>
<totfact> 0.53640571E+06</totfact>
</mgrwt>
</event>
<event>
 3    0  0.1727660E+001  0.1250000E+03  0.7546771E-02  0.1235069E+00
         21   -1    0    0  502  501  0.00000000000E+00  0.00000000000E+00  0.98522024518E+02  0.98522024518E+02  0.00000000000E+00 0.  1.
         21   -1    0    0  501  502 -0.00000000000E+00 -0.00000000000E+00 -0.39648495036E+02  0.39648495036E+02  0.00000000000E+00 0.  1.
         25    1    1    2    0    0  0.00000000000E+00  0.00000000000E+00  0.58873529483E+02  0.13817051955E+03  0.12500000000E+03 0.  0.
<mgrwt>
<rscale>  2 0.12500000E+03</rscale>
<asrwt>0</asrwt>
<pdfrwt beam="1">  1       21 0.15157235E-01 0.12500000E+03</pdfrwt>
<pdfrwt beam="2">  1       21 0.60997685E-02 0.12500000E+03</pdfrwt>
<totfact> 0.72279052E+06</totfact>
</mgrwt>
</event>
<event>
 3    0  0.1736892E+001  0.1250000E+03  0.7546771E-02  0.1235069E+00
         21   -1    0    0  502  501  0.00000000000E+00  0.00000000000E+00  0.75227405430E+02  0.75227405430E+02  0.00000000000E+00 0.  1.
         21   -1    0    0  501  502 -0.00000000000E+00 -0.00000000000E+00 -0.51925890275E+02  0.51925890275E+02  0.00000000000E+00 0.  1.
         25    1    1    2    0    0  0.00000000000E+00  0.00000000000E+00  0.23301515155E+02  0.12715329570E+03  0.12500000000E+03 0.  0.
<mgrwt>
<rscale>  2 0.12500000E+03</rscale>
<asrwt>0</asrwt>
<pdfrwt beam="1">  1       21 0.11573447E-01 0.12500000E+03</pdfrwt>
<pdfrwt beam="2">  1       21 0.79885985E-02 0.12500000E+03</pdfrwt>
<totfact> 0.73748282E+06</totfact>
</mgrwt>
</event>
<event>
 3    0  0.1461901E+001  0.1250000E+03  0.7546771E-02  0.1235069E+00
         21   -1    0    0  502  501  0.00000000000E+00  0.00000000000E+00  0.79730782651E+01  0.79730782651E+01  0.00000000000E+00 0. -1.
         21   -1    0    0  501  502 -0.00000000000E+00 -0.00000000000E+00 -0.48992997060E+03  0.48992997060E+03  0.00000000000E+00 0. -1.
         25    1    1    2    0    0  0.00000000000E+00  0.00000000000E+00 -0.48195689233E+03  0.49790304886E+03  0.12500000000E+03 0.  0.
<mgrwt>
<rscale>  2 0.12500000E+03</rscale>
<asrwt>0</asrwt>
<pdfrwt beam="1">  1       21 0.12266276E-02 0.12500000E+03</pdfrwt>
<pdfrwt beam="2">  1       21 0.75373834E-01 0.12500000E+03</pdfrwt>
<totfact> 0.42158024E+06</totfact>
</mgrwt>
</event>
<event>
 3    0  0.1659775E+001  0.1250000E+03  0.7546771E-02  0.1235069E+00
         21   -1    0    0  502  501  0.00000000000E+00  0.00000000000E+00  0.20031889139E+02  0.20031889139E+02  0.00000000000E+00 0.  1.
         21   -1    0    0  501  502 -0.00000000000E+00 -0.00000000000E+00 -0.19500157838E+03  0.19500157838E+03  0.00000000000E+00 0.  1.
         25    1    1    2    0    0  0.00000000000E+00  0.00000000000E+00 -0.17496968924E+03  0.21503346752E+03  0.12500000000E+03 0.  0.
<mgrwt>
<rscale>  2 0.12500000E+03</rscale>
<asrwt>0</asrwt>
<pdfrwt beam="1">  1       21 0.30818292E-02 0.12500000E+03</pdfrwt>
<pdfrwt beam="2">  1       21 0.30000242E-01 0.12500000E+03</pdfrwt>
<totfact> 0.63333818E+06</totfact>
</mgrwt>
</event>
<event>
 3    0  0.1705573E+001  0.1250000E+03  0.7546771E-02  0.1235069E+00
         21   -1    0    0  502  501  0.00000000000E+00  0.00000000000E+00  0.42423127092E+02  0.42423127092E+02  0.00000000000E+00 0. -1.
         21   -1    0    0  501  502 -0.00000000000E+00 -0.00000000000E+00 -0.92078313593E+02  0.92078313593E+02  0.00000000000E+00 0. -1.
         25    1    1    2    0    0  0.00000000000E+00  0.00000000000E+00 -0.49655186501E+02  0.13450144069E+03  0.12500000000E+03 0.  0.
<mgrwt>
<rscale>  2 0.12500000E+03</rscale>
<asrwt>0</asrwt>
<pdfrwt beam="1">  1       21 0.65266350E-02 0.12500000E+03</pdfrwt>
<pdfrwt beam="2">  1       21 0.14165894E-01 0.12500000E+03</pdfrwt>
<totfact> 0.72762552E+06</totfact>
</mgrwt>
</event>
<event>
 3    0  0.1628519E+001  0.1250000E+03  0.7546771E-02  0.1235069E+00
         21   -1    0    0  502  501  0.00000000000E+00  0.00000000000E+00  0.25969773712E+03  0.25969773712E+03  0.00000000000E+00 0.  1.
         21   -1    0    0  501  502 -0.00000000000E+00 -0.00000000000E+00 -0.15041524979E+02  0.15041524979E+02  0.00000000000E+00 0.  1.
         25    1    1    2    0    0  0.00000000000E+00  0.00000000000E+00  0.24465621214E+03  0.27473926210E+03  0.12500000000E+03 0.  0.
<mgrwt>
<rscale>  2 0.12500000E+03</rscale>
<asrwt>0</asrwt>
<pdfrwt beam="1">  1       21 0.39953495E-01 0.12500000E+03</pdfrwt>
<pdfrwt beam="2">  1       21 0.23140810E-02 0.12500000E+03</pdfrwt>
<totfact> 0.57623020E+06</totfact>
</mgrwt>
</event>
<event>
 3    0  0.1706423E+001  0.1250000E+03  0.7546771E-02  0.1235069E+00
         21   -1    0    0  502  501  0.00000000000E+00  0.00000000000E+00  0.42658769411E+02  0.42658769411E+02  0.00000000000E+00 0. -1.
         21   -1    0    0  501  502 -0.00000000000E+00 -0.00000000000E+00 -0.91569683185E+02  0.91569683185E+02  0.00000000000E+00 0. -1.
         25    1    1    2    0    0  0.00000000000E+00  0.00000000000E+00 -0.48910913775E+02  0.13422845260E+03  0.12500000000E+03 0.  0.
<mgrwt>
<rscale>  2 0.12500000E+03</rscale>
<asrwt>0</asrwt>
<pdfrwt beam="1">  1       21 0.65628876E-02 0.12500000E+03</pdfrwt>
<pdfrwt beam="2">  1       21 0.14087644E-01 0.12500000E+03</pdfrwt>
<totfact> 0.72798793E+06</totfact>
</mgrwt>
</event>
<event>
 3    0  0.1547882E+001  0.1250000E+03  0.7546771E-02  0.1235069E+00
         21   -1    0    0  502  501  0.00000000000E+00  0.00000000000E+00  0.36216660041E+03  0.36216660041E+03  0.00000000000E+00 0. -1.
         21   -1    0    0  501  502 -0.00000000000E+00 -0.00000000000E+00 -0.10785782001E+02  0.10785782001E+02  0.00000000000E+00 0. -1.
         25    1    1    2    0    0  0.00000000000E+00  0.00000000000E+00  0.35138081841E+03  0.37295238241E+03  0.12500000000E+03 0.  0.
<mgrwt>
<rscale>  2 0.12500000E+03</rscale>
<asrwt>0</asrwt>
<pdfrwt beam="1">  1       21 0.55717929E-01 0.12500000E+03</pdfrwt>
<pdfrwt beam="2">  1       21 0.16593514E-02 0.12500000E+03</pdfrwt>
<totfact> 0.49886735E+06</totfact>
</mgrwt>
</event>
<event>
 3    0  0.1514151E+001  0.1250000E+03  0.7546771E-02  0.1235069E+00
         21   -1    0    0  502  501  0.00000000000E+00  0.00000000000E+00  0.96075416990E+01  0.96075416990E+01  0.00000000000E+00 0.  1.
         21   -1    0    0  501  502 -0.00000000000E+00 -0.00000000000E+00 -0.40658163372E+03  0.40658163372E+03  0.00000000000E+00 0.  1.
         25    1    1    2    0    0  0.00000000000E+00  0.00000000000E+00 -0.39697409202E+03  0.41618917542E+03  0.12500000000E+03 0.  0.
<mgrwt>
<rscale>  2 0.12500000E+03</rscale>
<asrwt>0</asrwt>
<pdfrwt beam="1">  1       21 0.14780833E-02 0.12500000E+03</pdfrwt>
<pdfrwt beam="2">  1       21 0.62551022E-01 0.12500000E+03</pdfrwt>
<totfact> 0.46985756E+06</totfact>
</mgrwt>
</event>
<event>
 3    0  0.1633183E+001  0.1250000E+03  0.7546771E-02  0.1235069E+00
         21   -1    0    0  502  501  0.00000000000E+00  0.00000000000E+00  0.23268230224E+03  0.23268230224E+03  0.00000000000E+00 0.  1.
         21   -1    0    0  501  502 -0.00000000000E+00 -0.00000000000E+00 -0.16787911940E+02  0.16787911940E+02  0.00000000000E+00 0.  1.
         25    1    1    2    0    0  0.00000000000E+00  0.00000000000E+00  0.21589439029E+03  0.24947021418E+03  0.12500000000E+03 0.  0.
<mgrwt>
<rscale>  2 0.12500000E+03</rscale>
<asrwt>0</asrwt>
<pdfrwt beam="1">  1       21 0.35797275E-01 0.12500000E+03</pdfrwt>
<pdfrwt beam="2">  1       21 0.25827558E-02 0.12500000E+03</pdfrwt>
<totfact> 0.59928105E+06</totfact>
</mgrwt>
</event>
<event>
 3    0  0.1725666E+001  0.1250000E+03  0.7546771E-02  0.1235069E+00
         21   -1    0    0  502  501  0.00000000000E+00  0.00000000000E+00  0.34872446625E+02  0.34872446625E+02  0.00000000000E+00 0.  1.
         21   -1    0    0  501  502 -0.00000000000E+00 -0.00000000000E+00 -0.11201536967E+03  0.11201536967E+03  0.00000000000E+00 0.  1.
         25    1    1    2    0    0  0.00000000000E+00  0.00000000000E+00 -0.77142923043E+02  0.14688781629E+03  0.12500000000E+03 0.  0.
<mgrwt>
<rscale>  2 0.12500000E+03</rscale>
<asrwt>0</asrwt>
<pdfrwt beam="1">  1       21 0.53649918E-02 0.12500000E+03</pdfrwt>
<pdfrwt beam="2">  1       21 0.17233134E-01 0.12500000E+03</pdfrwt>
<totfact> 0.71152373E+06</totfact>
</mgrwt>
</event>
<event>
 3    0  0.1610636E+001  0.1250000E+03  0.7546771E-02  0.1235069E+00
         21   -1    0    0  502  501  0.00000000000E+00  0.00000000000E+00  0.24454805694E+03  0.24454805694E+03  0.00000000000E+00 0. -1.
         21   -1    0    0  501  502 -0.00000000000E+00 -0.00000000000E+00 -0.15973343026E+02  0.15973343026E+02  0.00000000000E+00 0. -1.
         25    1    1    2    0    0  0.00000000000E+00  0.00000000000E+00  0.22857471392E+03  0.26052139997E+03  0.12500000000E+03 0.  0.
<mgrwt>
<rscale>  2 0.12500000E+03</rscale>
<asrwt>0</asrwt>
<pdfrwt beam="1">  1       21 0.37622775E-01 0.12500000E+03</pdfrwt>
<pdfrwt beam="2">  1       21 0.24574376E-02 0.12500000E+03</pdfrwt>
<totfact> 0.58901516E+06</totfact>
</mgrwt>
</event>
<event>
 3    0  0.1368989E+001  0.1250000E+03  0.7546771E-02  0.1235069E+00
         21   -1    0    0  502  501  0.00000000000E+00  0.00000000000E+00  0.84064232523E+03  0.84064232523E+03  0.00000000000E+00 0. -1.
         21   -1    0    0  501  502 -0.00000000000E+00 -0.00000000000E+00 -0.46467443796E+01  0.46467443796E+01  0.00000000000E+00 0. -1.
         25    1    1    2    0    0  0.00000000000E+00  0.00000000000E+00  0.83599558085E+03  0.84528906961E+03  0.12500000000E+03 0.  0.
<mgrwt>
<rscale>  2 0.12500000E+03</rscale>
<asrwt>0</asrwt>
<pdfrwt beam="1">  1       21 0.12932947E+00 0.12500000E+03</pdfrwt>
<pdfrwt beam="2">  1       21 0.71488442E-03 0.12500000E+03</pdfrwt>
<totfact> 0.27916206E+06</totfact>
</mgrwt>
</event>
<event>
 3    0  0.1647806E+001  0.1250000E+03  0.7546771E-02  0.1235069E+00
         21   -1    0    0  502  501  0.00000000000E+00  0.00000000000E+00  0.21369027552E+02  0.21369027552E+02  0.00000000000E+00 0. -1.
         21   -1    0    0  501  502 -0.00000000000E+00 -0.00000000000E+00 -0.18279961456E+03  0.18279961456E+03  0.00000000000E+00 0. -1.
         25    1    1    2    0    0  0.00000000000E+00  0.00000000000E+00 -0.16143058700E+03  0.20416864211E+03  0.12500000000E+03 0.  0.
<mgrwt>
<rscale>  2 0.12500000E+03</rscale>
<asrwt>0</asrwt>
<pdfrwt beam="1">  1       21 0.32875427E-02 0.12500000E+03</pdfrwt>
<pdfrwt beam="2">  1       21 0.28123017E-01 0.12500000E+03</pdfrwt>
<totfact> 0.64478332E+06</totfact>
</mgrwt>
</event>
<event>
 3    0  0.1423659E+001  0.1250000E+03  0.7546771E-02  0.1235069E+00
         21   -1    0    0  502  501  0.00000000000E+00  0.00000000000E+00  0.69804792550E+01  0.69804792550E+01  0.00000000000E+00 0.  1.
         21   -1    0    0  501  502 -0.00000000000E+00 -0.00000000000E+00 -0.55959624795E+03  0.55959624795E+03  0.00000000000E+00 0.  1.
         25    1    1    2    0    0  0.00000000000E+00  0.00000000000E+00 -0.55261576870E+03  0.56657672721E+03  0.12500000000E+03 0.  0.
<mgrwt>
<rscale>  2 0.12500000E+03</rscale>
<asrwt>0</asrwt>
<pdfrwt beam="1">  1       21 0.10739204E-02 0.12500000E+03</pdfrwt>
<pdfrwt beam="2">  1       21 0.86091686E-01 0.12500000E+03</pdfrwt>
<totfact> 0.38649153E+06</totfact>
</mgrwt>
</event>
<event>
 3    0  0.1368989E+001  0.1250000E+03  0.7546771E-02  0.1235069E+00
         21   -1    0    0  502  501  0.00000000000E+00  0.00000000000E+00  0.13169446286E+04  0.13169446286E+04  0.00000000000E+00 0.  1.
         21   -1    0    0  501  502 -0.00000000000E+00 -0.00000000000E+00 -0.29661459679E+01  0.29661459679E+01  0.00000000000E+00 0.  1.
         25    1    1    2    0    0  0.00000000000E+00  0.00000000000E+00  0.13139784826E+04  0.13199107745E+04  0.12500000000E+03 0.  0.
<mgrwt>
<rscale>  2 0.12500000E+03</rscale>
<asrwt>0</asrwt>
<pdfrwt beam="1">  1       21 0.20260640E+00 0.12500000E+03</pdfrwt>
<pdfrwt beam="2">  1       21 0.45633120E-03 0.12500000E+03</pdfrwt>
<totfact> 0.16898641E+06</totfact>
</mgrwt>
</event>
<event>
 3    0  0.1621588E+001  0.1250000E+03  0.7546771E-02  0.1235069E+00
         21   -1    0    0  502  501  0.00000000000E+00  0.00000000000E+00  0.27180382502E+03  0.27180382502E+03  0.00000000000E+00 0.  1.
         21   -1    0    0  501  502 -0.00000000000E+00 -0.00000000000E+00 -0.14371578471E+02  0.14371578471E+02  0.00000000000E+00 0.  1.
         25    1    1    2    0    0  0.00000000000E+00  0.00000000000E+00  0.25743224654E+03  0.28617540349E+03  0.12500000000E+03 0.  0.
<mgrwt>
<rscale>  2 0.12500000E+03</rscale>
<asrwt>0</asrwt>
<pdfrwt beam="1">  1       21 0.41815969E-01 0.12500000E+03</pdfrwt>
<pdfrwt beam="2">  1       21 0.22110123E-02 0.12500000E+03</pdfrwt>
<totfact> 0.56624985E+06</totfact>
</mgrwt>
</event>
<event>
 3    0  0.1660591E+001  0.1250000E+03  0.7546771E-02  0.1235069E+00
         21   -1    0    0  502  501  0.00000000000E+00  0.00000000000E+00  0.20066333812E+02  0.20066333812E+02  0.00000000000E+00 0.  1.
         21   -1    0    0  501  502 -0.00000000000E+00 -0.00000000000E+00 -0.19466685029E+03  0.19466685029E+03  0.00000000000E+00 0.  1.
         25    1    1    2    0    0  0.00000000000E+00  0.00000000000E+00 -0.17460051647E+03  0.21473318410E+03  0.12500000000E+03 0.  0.
<mgrwt>
<rscale>  2 0.12500000E+03</rscale>
<asrwt>0</asrwt>
<pdfrwt beam="1">  1       21 0.30871282E-02 0.12500000E+03</pdfrwt>
<pdfrwt beam="2">  1       21 0.29948747E-01 0.12500000E+03</pdfrwt>
<totfact> 0.63364965E+06</totfact>
</mgrwt>
</event>
<event>
 3    0  0.1375447E+001  0.1250000E+03  0.7546771E-02  0.1235069E+00
         21   -1    0    0  502  501  0.00000000000E+00  0.00000000000E+00  0.52703853994E+01  0.52703853994E+01  0.00000000000E+00 0. -1.
         21   -1    0    0  501  502 -0.00000000000E+00 -0.00000000000E+00 -0.74116970657E+03  0.74116970657E+03  0.00000000000E+00 0. -1.
         25    1    1    2    0    0  0.00000000000E+00  0.00000000000E+00 -0.73589932117E+03  0.74644009197E+03  0.12500000000E+03 0.  0.
<mgrwt>
<rscale>  2 0.12500000E+03</rscale>
<asrwt>0</asrwt>
<pdfrwt beam="1">  1       21 0.81082893E-03 0.12500000E+03</pdfrwt>
<pdfrwt beam="2">  1       21 0.11402605E+00 0.12500000E+03</pdfrwt>
<totfact> 0.31194476E+06</totfact>
</mgrwt>
</event>
<event>
 3    0  0.1606771E+001  0.1250000E+03  0.7546771E-02  0.1235069E+00
         21   -1    0    0  502  501  0.00000000000E+00  0.00000000000E+00  0.23402647836E+03  0.23402647836E+03  0.00000000000E+00 0. -1.
         21   -1    0    0  501  502 -0.00000000000E+00 -0.00000000000E+00 -0.16691487337E+02  0.16691487337E+02  0.00000000000E+00 0. -1.
         25    1    1    2    0    0  0.00000000000E+00  0.00000000000E+00  0.21733499102E+03  0.25071796569E+03  0.12500000000E+03 0.  0.
<mgrwt>
<rscale>  2 0.12500000E+03</rscale>
<asrwt>0</asrwt>
<pdfrwt beam="1">  1       21 0.36004071E-01 0.12500000E+03</pdfrwt>
<pdfrwt beam="2">  1       21 0.25679213E-02 0.12500000E+03</pdfrwt>
<totfact> 0.59810661E+06</totfact>
</mgrwt>
</event>
<event>
 3    0  0.1703187E+001  0.1250000E+03  0.7546771E-02  0.1235069E+00
         21   -1    0    0  502  501  0.00000000000E+00  0.00000000000E+00  0.38668239777E+02  0.38668239777E+02  0.00000000000E+00 0. -1.
         21   -1    0    0  501  502 -0.00000000000E+00 -0.00000000000E+00 -0.10101959703E+03  0.10101959703E+03  0.00000000000E+00 0. -1.
         25    1    1    2    0    0  0.00000000000E+00  0.00000000000E+00 -0.62351357250E+02  0.13968783680E+03  0.12500000000E+03 0.  0.
<mgrwt>
<rscale>  2 0.12500000E+03</rscale>
<asrwt>0</asrwt>
<pdfrwt beam="1">  1       21 0.59489601E-02 0.12500000E+03</pdfrwt>
<pdfrwt beam="2">  1       21 0.15541476E-01 0.12500000E+03</pdfrwt>
<totfact> 0.72080087E+06</totfact>
</mgrwt>
</event>
<event>
 3    0  0.1525364E+001  0.1250000E+03  0.7546771E-02  0.1235069E+00
         21   -1    0    0  502  501  0.00000000000E+00  0.00000000000E+00  0.10006982803E+02  0.10006982803E+02  0.00000000000E+00 0. -1.
         21   -1    0    0  501  502 -0.00000000000E+00 -0.00000000000E+00 -0.39035242457E+03  0.39035242457E+03  0.00000000000E+00 0. -1.
         25    1    1    2    0    0  0.00000000000E+00  0.00000000000E+00 -0.38034544177E+03  0.40035940738E+03  0.12500000000E+03 0.  0.
<mgrwt>
<rscale>  2 0.12500000E+03</rscale>
<asrwt>0</asrwt>
<pdfrwt beam="1">  1       21 0.15395358E-02 0.12500000E+03</pdfrwt>
<pdfrwt beam="2">  1       21 0.60054220E-01 0.12500000E+03</pdfrwt>
<totfact> 0.48017520E+06</totfact>
</mgrwt>
</event>
<event>
 3    0  0.1391514E+001  0.1250000E+03  0.7546771E-02  0.1235069E+00
         21   -1    0    0  502  501  0.00000000000E+00  0.00000000000E+00  0.64089015274E+01  0.64089015274E+01  0.00000000000E+00 0.  1.
         21   -1    0    0  501  502 -0.00000000000E+00 -0.00000000000E+00 -0.60950382578E+03  0.60950382578E+03  0.00000000000E+00 0.  1.
         25    1    1    2    0    0  0.00000000000E+00  0.00000000000E+00 -0.60309492425E+03  0.61591272731E+03  0.12500000000E+03 0.  0.
<mgrwt>
<rscale>  2 0.12500000E+03</rscale>
<asrwt>0</asrwt>
<pdfrwt beam="1">  1       21 0.98598476E-03 0.12500000E+03</pdfrwt>
<pdfrwt beam="2">  1       21 0.93769828E-01 0.12500000E+03</pdfrwt>
<totfact> 0.36382742E+06</totfact>
</mgrwt>
</event>
<event>
 3    0  0.1368989E+001  0.1250000E+03  0.7546771E-02  0.1235069E+00
         21   -1    0    0  502  501  0.00000000000E+00  0.00000000000E+00  0.17099065896E+04  0.17099065896E+04  0.00000000000E+00 0.  1.
         21   -1    0    0  501  502 -0.00000000000E+00 -0.00000000000E+00 -0.22844815171E+01  0.22844815171E+01  0.00000000000E+00 0.  1.
         25    1    1    2    0    0  0.00000000000E+00  0.00000000000E+00  0.17076221081E+04  0.17121910711E+04  0.12500000000E+03 0.  0.
<mgrwt>
<rscale>  2 0.12500000E+03</rscale>
<asrwt>0</asrwt>
<pdfrwt beam="1">  1       21 0.26306153E+00 0.12500000E+03</pdfrwt>
<pdfrwt beam="2">  1       21 0.35146006E-03 0.12500000E+03</pdfrwt>
<totfact> 0.11118300E+06</totfact>
</mgrwt>
</event>
<event>
 3    0  0.1602354E+001  0.1250000E+03  0.7546771E-02  0.1235069E+00
         21   -1    0    0  502  501  0.00000000000E+00  0.00000000000E+00  0.23591370335E+03  0.23591370335E+03  0.00000000000E+00 0. -1.
         21   -1    0    0  501  502 -0.00000000000E+00 -0.00000000000E+00 -0.16557961426E+02  0.16557961426E+02  0.00000000000E+00 0. -1.
         25    1    1    2    0    0  0.00000000000E+00  0.00000000000E+00  0.21935574193E+03  0.25247166478E+03  0.12500000000E+03 0.  0.
<mgrwt>
<rscale>  2 0.12500000E+03</rscale>
<asrwt>0</asrwt>
<pdfrwt beam="1">  1       21 0.36294413E-01 0.12500000E+03</pdfrwt>
<pdfrwt beam="2">  1       21 0.25473789E-02 0.12500000E+03</pdfrwt>
<totfact> 0.59646264E+06</totfact>
</mgrwt>
</event>
