<event>
 3    0  0.1592509E+001  0.1250000E+03  0.7546771E-02  0.1235069E+00
         21   -1    0    0  502  501  0.00000000000E+00  0.00000000000E+00  0.12530923750E+02  0.12530923750E+02  0.00000000000E+00 0.  1.
         21   -1    0    0  501  502 -0.00000000000E+00 -0.00000000000E+00 -0.31172881408E+03  0.31172881408E+03  0.00000000000E+00 0.  1.
         25    1    1    2    0    0  0.00000000000E+00  0.00000000000E+00 -0.29919789033E+03  0.32425973783E+03  0.12500000000E+03 0.  0.
<mgrwt>
<rscale>  2 0.12500000E+03</rscale>
<asrwt>0</asrwt>
<pdfrwt beam="1">  1       21 0.19278346E-02 0.12500000E+03</pdfrwt>
<pdfrwt beam="2">  1       21 0.47958275E-01 0.12500000E+03</pdfrwt>
<totfact> 0.53497499E+06</totfact>
</mgrwt>
</event>
<event>
 3    0  0.1575931E+001  0.1250000E+03  0.7546771E-02  0.1235069E+00
         21   -1    0    0  502  501  0.00000000000E+00  0.00000000000E+00  0.35360104873E+03  0.35360104873E+03  0.00000000000E+00 0.  1.
         21   -1    0    0  501  502 -0.00000000000E+00 -0.00000000000E+00 -0.11047054340E+02  0.11047054340E+02  0.00000000000E+00 0.  1.
         25    1    1    2    0    0  0.00000000000E+00  0.00000000000E+00  0.34255399439E+03  0.36464810307E+03  0.12500000000E+03 0.  0.
<mgrwt>
<rscale>  2 0.12500000E+03</rscale>
<asrwt>0</asrwt>
<pdfrwt beam="1">  1       21 0.54400153E-01 0.12500000E+03</pdfrwt>
<pdfrwt beam="2">  1       21 0.16995471E-02 0.12500000E+03</pdfrwt>
<totfact> 0.50474494E+06</totfact>
</mgrwt>
</event>
<event>
 3    0  0.1645951E+001  0.1250000E+03  0.7546771E-02  0.1235069E+00
         21   -1    0    0  502  501  0.00000000000E+00  0.00000000000E+00  0.22693434939E+02  0.22693434939E+02  0.00000000000E+00 0. -1.
         21   -1    0    0  501  502 -0.00000000000E+00 -0.00000000000E+00 -0.17213127984E+03  0.17213127984E+03  0.00000000000E+00 0. -1.
         25    1    1    2    0    0  0.00000000000E+00  0.00000000000E+00 -0.14943784490E+03  0.19482471478E+03  0.12500000000E+03 0.  0.
<mgrwt>
<rscale>  2 0.12500000E+03</rscale>
<asrwt>0</asrwt>
<pdfrwt beam="1">  1       21 0.34912977E-02 0.12500000E+03</pdfrwt>
<pdfrwt beam="2">  1       21 0.26481735E-01 0.12500000E+03</pdfrwt>
<totfact> 0.65490212E+06</totfact>
</mgrwt>
</event>
<event>
 3    0  0.1694236E+001  0.1250000E+03  0.7546771E-02  0.1235069E+00
         21   -1    0    0  502  501  0.00000000000E+00  0.00000000000E+00  0.45189418715E+02  0.45189418715E+02  0.00000000000E+00 0. -1.
         21   -1    0    0  501  502 -0.00000000000E+00 -0.00000000000E+00 -0.86441696111E+02  0.86441696111E+02  0.00000000000E+00 0. -1.
         25    1    1    2    0    0  0.00000000000E+00  0.00000000000E+00 -0.41252277396E+02  0.13163111483E+03  0.12500000000E+03 0.  0.
<mgrwt>
<rscale>  2 0.12500000E+03</rscale>
<asrwt>0</asrwt>
<pdfrwt beam="1">  1       21 0.69522183E-02 0.12500000E+03</pdfrwt>
<pdfrwt beam="2">  1       21 0.13298722E-01 0.12500000E+03</pdfrwt>
<totfact> 0.73145750E+06</totfact>
</mgrwt>
</event>
<event>
 3    0  0.1582729E+001  0.1250000E+03  0.7546771E-02  0.1235069E+00
         21   -1    0    0  502  501  0.00000000000E+00  0.00000000000E+00  0.26390263357E+03  0.26390263357E+03  0.00000000000E+00 0. -1.
         21   -1    0    0  501  502 -0.00000000000E+00 -0.00000000000E+00 -0.14801860623E+02  0.14801860623E+02  0.00000000000E+00 0. -1.
         25    1    1    2    0    0  0.00000000000E+00  0.00000000000E+00  0.24910077294E+03  0.27870449419E+03  0.12500000000E+03 0.  0.
<mgrwt>
<rscale>  2 0.12500000E+03</rscale>
<asrwt>0</asrwt>
<pdfrwt beam="1">  1       21 0.40600402E-01 0.12500000E+03</pdfrwt>
<pdfrwt beam="2">  1       21 0.22772095E-02 0.12500000E+03</pdfrwt>
<totfact> 0.57273688E+06</totfact>
</mgrwt>
</event>
<event>
 3    0  0.1368989E+001  0.1250000E+03  0.7546771E-02  0.1235069E+00
         21   -1    0    0  502  501  0.00000000000E+00  0.00000000000E+00  0.26384908272E+04  0.26384908272E+04  0.00000000000E+00 0. -1.
         21   -1    0    0  501  502 -0.00000000000E+00 -0.00000000000E+00 -0.14804864810E+01  0.14804864810E+01  0.00000000000E+00 0. -1.
         25    1    1    2    0    0  0.00000000000E+00  0.00000000000E+00  0.26370103407E+04  0.26399713137E+04  0.12500000000E+03 0.  0.
<mgrwt>
<rscale>  2 0.12500000E+03</rscale>
<asrwt>0</asrwt>
<pdfrwt beam="1">  1       21 0.40591790E+00 0.12500000E+03</pdfrwt>
<pdfrwt beam="2">  1       21 0.22776926E-03 0.12500000E+03</pdfrwt>
<totfact> 0.32338559E+05</totfact>
</mgrwt>
</event>
<event>
 3    0  0.1388153E+001  0.1250000E+03  0.7546771E-02  0.1235069E+00
         21   -1    0    0  502  501  0.00000000000E+00  0.00000000000E+00  0.60583883427E+03  0.60583883427E+03  0.00000000000E+00 0.  1.
         21   -1    0    0  501  502 -0.00000000000E+00 -0.00000000000E+00 -0.64476718544E+01  0.64476718544E+01  0.00000000000E+00 0.  1.
         25    1    1    2    0    0  0.00000000000E+00  0.00000000000E+00  0.59939116241E+03  0.61228650612E+03  0.12500000000E+03 0.  0.
<mgrwt>
<rscale>  2 0.12500000E+03</rscale>
<asrwt>0</asrwt>
<pdfrwt beam="1">  1       21 0.93205930E-01 0.12500000E+03</pdfrwt>
<pdfrwt beam="2">  1       21 0.99194999E-03 0.12500000E+03</pdfrwt>
<totfact> 0.36542832E+06</totfact>
</mgrwt>
</event>
<event>
 3    0  0.1679569E+001  0.1250000E+03  0.7546771E-02  0.1235069E+00
         21   -1    0    0  502  501  0.00000000000E+00  0.00000000000E+00  0.12367158811E+03  0.12367158811E+03  0.00000000000E+00 0. -1.
         21   -1    0    0  501  502 -0.00000000000E+00 -0.00000000000E+00 -0.31585670238E+02  0.31585670238E+02  0.00000000000E+00 0. -1.
         25    1    1    2    0    0  0.00000000000E+00  0.00000000000E+00  0.92085917876E+02  0.15525725835E+03  0.12500000000E+03 0.  0.
<mgrwt>
<rscale>  2 0.12500000E+03</rscale>
<asrwt>0</asrwt>
<pdfrwt beam="1">  1       21 0.19026398E-01 0.12500000E+03</pdfrwt>
<pdfrwt beam="2">  1       21 0.48593339E-02 0.12500000E+03</pdfrwt>
<totfact> 0.70103699E+06</totfact>
</mgrwt>
</event>
<event>
 3    0  0.1676509E+001  0.1250000E+03  0.7546771E-02  0.1235069E+00
         21   -1    0    0  502  501  0.00000000000E+00  0.00000000000E+00  0.31283770896E+02  0.31283770896E+02  0.00000000000E+00 0. -1.
         21   -1    0    0  501  502 -0.00000000000E+00 -0.00000000000E+00 -0.12486506224E+03  0.12486506224E+03  0.00000000000E+00 0. -1.
         25    1    1    2    0    0  0.00000000000E+00  0.00000000000E+00 -0.93581291341E+02  0.15614883313E+03  0.12500000000E+03 0.  0.
<mgrwt>
<rscale>  2 0.12500000E+03</rscale>
<asrwt>0</asrwt>
<pdfrwt beam="1">  1       21 0.48128879E-02 0.12500000E+03</pdfrwt>
<pdfrwt beam="2">  1       21 0.19210009E-01 0.12500000E+03</pdfrwt>
<totfact> 0.69993155E+06</totfact>
</mgrwt>
</event>
<event>
 3    0  0.1666284E+001  0.1250000E+03  0.7546771E-02  0.1235069E+00
         21   -1    0    0  502  501  0.00000000000E+00  0.00000000000E+00  0.20909019497E+02  0.20909019497E+02  0.00000000000E+00 0.  1.
         21   -1    0    0  501  502 -0.00000000000E+00 -0.00000000000E+00 -0.18682129024E+03  0.18682129024E+03  0.00000000000E+00 0.  1.
         25    1    1    2    0    0  0.00000000000E+00  0.00000000000E+00 -0.16591227074E+03  0.20773030974E+03  0.12500000000E+03 0.  0.
<mgrwt>
<rscale>  2 0.12500000E+03</rscale>
<asrwt>0</asrwt>
<pdfrwt beam="1">  1       21 0.32167722E-02 0.12500000E+03</pdfrwt>
<pdfrwt beam="2">  1       21 0.28741737E-01 0.12500000E+03</pdfrwt>
<totfact> 0.64099127E+06</totfact>
</mgrwt>
</event>
<event>
 3    0  0.1499508E+001  0.1250000E+03  0.7546771E-02  0.1235069E+00
         21   -1    0    0  502  501  0.00000000000E+00  0.00000000000E+00  0.42758767430E+03  0.42758767430E+03  0.00000000000E+00 0.  1.
         21   -1    0    0  501  502 -0.00000000000E+00 -0.00000000000E+00 -0.91355533258E+01  0.91355533258E+01  0.00000000000E+00 0.  1.
         25    1    1    2    0    0  0.00000000000E+00  0.00000000000E+00  0.41845212097E+03  0.43672322762E+03  0.12500000000E+03 0.  0.
<mgrwt>
<rscale>  2 0.12500000E+03</rscale>
<asrwt>0</asrwt>
<pdfrwt beam="1">  1       21 0.65782703E-01 0.12500000E+03</pdfrwt>
<pdfrwt beam="2">  1       21 0.14054701E-02 0.12500000E+03</pdfrwt>
<totfact> 0.45697254E+06</totfact>
</mgrwt>
</event>
<event>
 3    0  0.1718827E+001  0.1250000E+03  0.7546771E-02  0.1235069E+00
         21   -1    0    0  502  501  0.00000000000E+00  0.00000000000E+00  0.40961374267E+02  0.40961374267E+02  0.00000000000E+00 0.  1.
         21   -1    0    0  501  502 -0.00000000000E+00 -0.00000000000E+00 -0.95364232033E+02  0.95364232033E+02  0.00000000000E+00 0.  1.
         25    1    1    2    0    0  0.00000000000E+00  0.00000000000E+00 -0.54402857766E+02  0.13632560630E+03  0.12500000000E+03 0.  0.
<mgrwt>
<rscale>  2 0.12500000E+03</rscale>
<asrwt>0</asrwt>
<pdfrwt beam="1">  1       21 0.63017500E-02 0.12500000E+03</pdfrwt>
<pdfrwt beam="2">  1       21 0.14671420E-01 0.12500000E+03</pdfrwt>
<totfact> 0.72521425E+06</totfact>
</mgrwt>
</event>
<event>
 3    0  0.1368989E+001  0.1250000E+03  0.7546771E-02  0.1235069E+00
         21   -1    0    0  502  501  0.00000000000E+00  0.00000000000E+00  0.18554779713E+01  0.18554779713E+01  0.00000000000E+00 0.  1.
         21   -1    0    0  501  502 -0.00000000000E+00 -0.00000000000E+00 -0.21052526952E+04  0.21052526952E+04  0.00000000000E+00 0.  1.
         25    1    1    2    0    0  0.00000000000E+00  0.00000000000E+00 -0.21033972172E+04  0.21071081732E+04  0.12500000000E+03 0.  0.
<mgrwt>
<rscale>  2 0.12500000E+03</rscale>
<asrwt>0</asrwt>
<pdfrwt beam="1">  1       21 0.28545636E-03 0.12500000E+03</pdfrwt>
<pdfrwt beam="2">  1       21 0.32388706E+00 0.12500000E+03</pdfrwt>
<totfact> 0.69499799E+05</totfact>
</mgrwt>
</event>
<event>
 3    0  0.1368989E+001  0.1250000E+03  0.7546771E-02  0.1235069E+00
         21   -1    0    0  502  501  0.00000000000E+00  0.00000000000E+00  0.33415678125E+01  0.33415678125E+01  0.00000000000E+00 0.  1.
         21   -1    0    0  501  502 -0.00000000000E+00 -0.00000000000E+00 -0.11689871998E+04  0.11689871998E+04  0.00000000000E+00 0.  1.
         25    1    1    2    0    0  0.00000000000E+00  0.00000000000E+00 -0.11656456320E+04  0.11723287676E+04  0.12500000000E+03 0.  0.
<mgrwt>
<rscale>  2 0.12500000E+03</rscale>
<asrwt>0</asrwt>
<pdfrwt beam="1">  1       21 0.51408731E-03 0.12500000E+03</pdfrwt>
<pdfrwt beam="2">  1       21 0.17984420E+00 0.12500000E+03</pdfrwt>
<totfact> 0.19703698E+06</totfact>
</mgrwt>
</event>
<event>
 3    0  0.1368989E+001  0.1250000E+03  0.7546771E-02  0.1235069E+00
         21   -1    0    0  502  501  0.00000000000E+00  0.00000000000E+00  0.54016037063E+01  0.54016037063E+01  0.00000000000E+00 0.  1.
         21   -1    0    0  501  502 -0.00000000000E+00 -0.00000000000E+00 -0.72316486222E+03  0.72316486222E+03  0.00000000000E+00 0.  1.
         25    1    1    2    0    0  0.00000000000E+00  0.00000000000E+00 -0.71776325851E+03  0.72856646593E+03  0.12500000000E+03 0.  0.
<mgrwt>
<rscale>  2 0.12500000E+03</rscale>
<asrwt>0</asrwt>
<pdfrwt beam="1">  1       21 0.83101591E-03 0.12500000E+03</pdfrwt>
<pdfrwt beam="2">  1       21 0.11125614E+00 0.12500000E+03</pdfrwt>
<totfact> 0.31837463E+06</totfact>
</mgrwt>
</event>
<event>
 3    0  0.1647668E+001  0.1250000E+03  0.7546771E-02  0.1235069E+00
         21   -1    0    0  502  501  0.00000000000E+00  0.00000000000E+00  0.20086323209E+02  0.20086323209E+02  0.00000000000E+00 0.  1.
         21   -1    0    0  501  502 -0.00000000000E+00 -0.00000000000E+00 -0.19447312280E+03  0.19447312280E+03  0.00000000000E+00 0.  1.
         25    1    1    2    0    0  0.00000000000E+00  0.00000000000E+00 -0.17438679959E+03  0.21455944601E+03  0.12500000000E+03 0.  0.
<mgrwt>
<rscale>  2 0.12500000E+03</rscale>
<asrwt>0</asrwt>
<pdfrwt beam="1">  1       21 0.30902035E-02 0.12500000E+03</pdfrwt>
<pdfrwt beam="2">  1       21 0.29918942E-01 0.12500000E+03</pdfrwt>
<totfact> 0.63383000E+06</totfact>
</mgrwt>
</event>
<event>
 3    0  0.1460365E+001  0.1250000E+03  0.7546771E-02  0.1235069E+00
         21   -1    0    0  502  501  0.00000000000E+00  0.00000000000E+00  0.69395766995E+01  0.69395766995E+01  0.00000000000E+00 0.  1.
         21   -1    0    0  501  502 -0.00000000000E+00 -0.00000000000E+00 -0.56289456391E+03  0.56289456391E+03  0.00000000000E+00 0.  1.
         25    1    1    2    0    0  0.00000000000E+00  0.00000000000E+00 -0.55595498721E+03  0.56983414061E+03  0.12500000000E+03 0.  0.
<mgrwt>
<rscale>  2 0.12500000E+03</rscale>
<asrwt>0</asrwt>
<pdfrwt beam="1">  1       21 0.10676268E-02 0.12500000E+03</pdfrwt>
<pdfrwt beam="2">  1       21 0.86599193E-01 0.12500000E+03</pdfrwt>
<totfact> 0.38493365E+06</totfact>
</mgrwt>
</event>
<event>
 3    0  0.1724775E+001  0.1250000E+03  0.7546771E-02  0.1235069E+00
         21   -1    0    0  502  501  0.00000000000E+00  0.00000000000E+00  0.53226297210E+02  0.53226297210E+02  0.00000000000E+00 0.  1.
         21   -1    0    0  501  502 -0.00000000000E+00 -0.00000000000E+00 -0.73389474842E+02  0.73389474842E+02  0.00000000000E+00 0.  1.
         25    1    1    2    0    0  0.00000000000E+00  0.00000000000E+00 -0.20163177632E+02  0.12661577205E+03  0.12500000000E+03 0.  0.
<mgrwt>
<rscale>  2 0.12500000E+03</rscale>
<asrwt>0</asrwt>
<pdfrwt beam="1">  1       21 0.81886611E-02 0.12500000E+03</pdfrwt>
<pdfrwt beam="2">  1       21 0.11290688E-01 0.12500000E+03</pdfrwt>
<totfact> 0.73821540E+06</totfact>
</mgrwt>
</event>
<event>
 3    0  0.1535020E+001  0.1250000E+03  0.7546771E-02  0.1235069E+00
         21   -1    0    0  502  501  0.00000000000E+00  0.00000000000E+00  0.10008211491E+02  0.10008211491E+02  0.00000000000E+00 0.  1.
         21   -1    0    0  501  502 -0.00000000000E+00 -0.00000000000E+00 -0.39030450179E+03  0.39030450179E+03  0.00000000000E+00 0.  1.
         25    1    1    2    0    0  0.00000000000E+00  0.00000000000E+00 -0.38029629030E+03  0.40031271328E+03  0.12500000000E+03 0.  0.
<mgrwt>
<rscale>  2 0.12500000E+03</rscale>
<asrwt>0</asrwt>
<pdfrwt beam="1">  1       21 0.15397246E-02 0.12500000E+03</pdfrwt>
<pdfrwt beam="2">  1       21 0.60046855E-01 0.12500000E+03</pdfrwt>
<totfact> 0.48020612E+06</totfact>
</mgrwt>
</event>
<event>
 3    0  0.1380875E+001  0.1250000E+03  0.7546771E-02  0.1235069E+00
         21   -1    0    0  502  501  0.00000000000E+00  0.00000000000E+00  0.67927130014E+03  0.67927130014E+03  0.00000000000E+00 0. -1.
         21   -1    0    0  501  502 -0.00000000000E+00 -0.00000000000E+00 -0.57506477886E+01  0.57506477886E+01  0.00000000000E+00 0. -1.
         25    1    1    2    0    0  0.00000000000E+00  0.00000000000E+00  0.67352065235E+03  0.68502194793E+03  0.12500000000E+03 0.  0.
<mgrwt>
<rscale>  2 0.12500000E+03</rscale>
<asrwt>0</asrwt>
<pdfrwt beam="1">  1       21 0.10450321E+00 0.12500000E+03</pdfrwt>
<pdfrwt beam="2">  1       21 0.88471558E-03 0.12500000E+03</pdfrwt>
<totfact> 0.33495653E+06</totfact>
</mgrwt>
</event>
<event>
 3    0  0.1724916E+001  0.1250000E+03  0.7546771E-02  0.1235069E+00
         21   -1    0    0  502  501  0.00000000000E+00  0.00000000000E+00  0.53344527894E+02  0.53344527894E+02  0.00000000000E+00 0.  1.
         21   -1    0    0  501  502 -0.00000000000E+00 -0.00000000000E+00 -0.73226817336E+02  0.73226817336E+02  0.00000000000E+00 0.  1.
         25    1    1    2    0    0  0.00000000000E+00  0.00000000000E+00 -0.19882289442E+02  0.12657134523E+03  0.12500000000E+03 0.  0.
<mgrwt>
<rscale>  2 0.12500000E+03</rscale>
<asrwt>0</asrwt>
<pdfrwt beam="1">  1       21 0.82068505E-02 0.12500000E+03</pdfrwt>
<pdfrwt beam="2">  1       21 0.11265664E-01 0.12500000E+03</pdfrwt>
<totfact> 0.73827614E+06</totfact>
</mgrwt>
</event>
<event>
 3    0  0.1560021E+001  0.1250000E+03  0.7546771E-02  0.1235069E+00
         21   -1    0    0  502  501  0.00000000000E+00  0.00000000000E+00  0.11591799766E+02  0.11591799766E+02  0.00000000000E+00 0.  1.
         21   -1    0    0  501  502 -0.00000000000E+00 -0.00000000000E+00 -0.33698390922E+03  0.33698390922E+03  0.00000000000E+00 0.  1.
         25    1    1    2    0    0  0.00000000000E+00  0.00000000000E+00 -0.32539210945E+03  0.34857570898E+03  0.12500000000E+03 0.  0.
<mgrwt>
<rscale>  2 0.12500000E+03</rscale>
<asrwt>0</asrwt>
<pdfrwt beam="1">  1       21 0.17833536E-02 0.12500000E+03</pdfrwt>
<pdfrwt beam="2">  1       21 0.51843685E-01 0.12500000E+03</pdfrwt>
<totfact> 0.51643788E+06</totfact>
</mgrwt>
</event>
<event>
 3    0  0.1537692E+001  0.1250000E+03  0.7546771E-02  0.1235069E+00
         21   -1    0    0  502  501  0.00000000000E+00  0.00000000000E+00  0.32681187607E+03  0.32681187607E+03  0.00000000000E+00 0. -1.
         21   -1    0    0  501  502 -0.00000000000E+00 -0.00000000000E+00 -0.11952595013E+02  0.11952595013E+02  0.00000000000E+00 0. -1.
         25    1    1    2    0    0  0.00000000000E+00  0.00000000000E+00  0.31485928106E+03  0.33876447108E+03  0.12500000000E+03 0.  0.
<mgrwt>
<rscale>  2 0.12500000E+03</rscale>
<asrwt>0</asrwt>
<pdfrwt beam="1">  1       21 0.50278743E-01 0.12500000E+03</pdfrwt>
<pdfrwt beam="2">  1       21 0.18388610E-02 0.12500000E+03</pdfrwt>
<totfact> 0.52379068E+06</totfact>
</mgrwt>
</event>
<event>
 3    0  0.1695153E+001  0.1250000E+03  0.7546771E-02  0.1235069E+00
         21   -1    0    0  502  501  0.00000000000E+00  0.00000000000E+00  0.41159585327E+02  0.41159585327E+02  0.00000000000E+00 0. -1.
         21   -1    0    0  501  502 -0.00000000000E+00 -0.00000000000E+00 -0.94904989178E+02  0.94904989178E+02  0.00000000000E+00 0. -1.
         25    1    1    2    0    0  0.00000000000E+00  0.00000000000E+00 -0.53745403852E+02  0.13606457450E+03  0.12500000000E+03 0.  0.
<mgrwt>
<rscale>  2 0.12500000E+03</rscale>
<asrwt>0</asrwt>
<pdfrwt beam="1">  1       21 0.63322440E-02 0.12500000E+03</pdfrwt>
<pdfrwt beam="2">  1       21 0.14600767E-01 0.12500000E+03</pdfrwt>
<totfact> 0.72555821E+06</totfact>
</mgrwt>
</event>
<event>
 3    0  0.1672076E+001  0.1250000E+03  0.7546771E-02  0.1235069E+00
         21   -1    0    0  502  501  0.00000000000E+00  0.00000000000E+00  0.24284043301E+02  0.24284043301E+02  0.00000000000E+00 0.  1.
         21   -1    0    0  501  502 -0.00000000000E+00 -0.00000000000E+00 -0.16085665602E+03  0.16085665602E+03  0.00000000000E+00 0.  1.
         25    1    1    2    0    0  0.00000000000E+00  0.00000000000E+00 -0.13657261272E+03  0.18514069932E+03  0.12500000000E+03 0.  0.
<mgrwt>
<rscale>  2 0.12500000E+03</rscale>
<asrwt>0</asrwt>
<pdfrwt beam="1">  1       21 0.37360067E-02 0.12500000E+03</pdfrwt>
<pdfrwt beam="2">  1       21 0.24747178E-01 0.12500000E+03</pdfrwt>
<totfact> 0.66566649E+06</totfact>
</mgrwt>
</event>
<event>
 3    0  0.1546366E+001  0.1250000E+03  0.7546771E-02  0.1235069E+00
         21   -1    0    0  502  501  0.00000000000E+00  0.00000000000E+00  0.10150373008E+02  0.10150373008E+02  0.00000000000E+00 0.  1.
         21   -1    0    0  501  502 -0.00000000000E+00 -0.00000000000E+00 -0.38483807412E+03  0.38483807412E+03  0.00000000000E+00 0.  1.
         25    1    1    2    0    0  0.00000000000E+00  0.00000000000E+00 -0.37468770111E+03  0.39498844712E+03  0.12500000000E+03 0.  0.
<mgrwt>
<rscale>  2 0.12500000E+03</rscale>
<asrwt>0</asrwt>
<pdfrwt beam="1">  1       21 0.15615959E-02 0.12500000E+03</pdfrwt>
<pdfrwt beam="2">  1       21 0.59205856E-01 0.12500000E+03</pdfrwt>
<totfact> 0.48375548E+06</totfact>
</mgrwt>
</event>
<event>
 3    0  0.1659551E+001  0.1250000E+03  0.7546771E-02  0.1235069E+00
         21   -1    0    0  502  501  0.00000000000E+00  0.00000000000E+00  0.25023414350E+02  0.25023414350E+02  0.00000000000E+00 0. -1.
         21   -1    0    0  501  502 -0.00000000000E+00 -0.00000000000E+00 -0.15610379724E+03  0.15610379724E+03  0.00000000000E+00 0. -1.
         25    1    1    2    0    0  0.00000000000E+00  0.00000000000E+00 -0.13108038289E+03  0.18112721159E+03  0.12500000000E+03 0.  0.
<mgrwt>
<rscale>  2 0.12500000E+03</rscale>
<asrwt>0</asrwt>
<pdfrwt beam="1">  1       21 0.38497560E-02 0.12500000E+03</pdfrwt>
<pdfrwt beam="2">  1       21 0.24015969E-01 0.12500000E+03</pdfrwt>
<totfact> 0.67022461E+06</totfact>
</mgrwt>
</event>
<event>
 3    0  0.1694949E+001  0.1250000E+03  0.7546771E-02  0.1235069E+00
         21   -1    0    0  502  501  0.00000000000E+00  0.00000000000E+00  0.43322926922E+02  0.43322926922E+02  0.00000000000E+00 0. -1.
         21   -1    0    0  501  502 -0.00000000000E+00 -0.00000000000E+00 -0.90165883921E+02  0.90165883921E+02  0.00000000000E+00 0. -1.
         25    1    1    2    0    0  0.00000000000E+00  0.00000000000E+00 -0.46842956999E+02  0.13348881084E+03  0.12500000000E+03 0.  0.
<mgrwt>
<rscale>  2 0.12500000E+03</rscale>
<asrwt>0</asrwt>
<pdfrwt beam="1">  1       21 0.66650657E-02 0.12500000E+03</pdfrwt>
<pdfrwt beam="2">  1       21 0.13871674E-01 0.12500000E+03</pdfrwt>
<totfact> 0.72897195E+06</totfact>
</mgrwt>
</event>
<event>
 3    0  0.1501378E+001  0.1250000E+03  0.7546771E-02  0.1235069E+00
         21   -1    0    0  502  501  0.00000000000E+00  0.00000000000E+00  0.86065517856E+01  0.86065517856E+01  0.00000000000E+00 0.  1.
         21   -1    0    0  501  502 -0.00000000000E+00 -0.00000000000E+00 -0.45386934249E+03  0.45386934249E+03  0.00000000000E+00 0.  1.
         25    1    1    2    0    0  0.00000000000E+00  0.00000000000E+00 -0.44526279070E+03  0.46247589427E+03  0.12500000000E+03 0.  0.
<mgrwt>
<rscale>  2 0.12500000E+03</rscale>
<asrwt>0</asrwt>
<pdfrwt beam="1">  1       21 0.13240848E-02 0.12500000E+03</pdfrwt>
<pdfrwt beam="2">  1       21 0.69826058E-01 0.12500000E+03</pdfrwt>
<totfact> 0.44155027E+06</totfact>
</mgrwt>
</event>
<event>
 3    0  0.1413389E+001  0.1250000E+03  0.7546771E-02  0.1235069E+00
         21   -1    0    0  502  501  0.00000000000E+00  0.00000000000E+00  0.61766855353E+03  0.61766855353E+03  0.00000000000E+00 0. -1.
         21   -1    0    0  501  502 -0.00000000000E+00 -0.00000000000E+00 -0.63241846742E+01  0.63241846742E+01  0.00000000000E+00 0. -1.
         25    1    1    2    0    0  0.00000000000E+00  0.00000000000E+00  0.61134436886E+03  0.62399273821E+03  0.12500000000E+03 0.  0.
<mgrwt>
<rscale>  2 0.12500000E+03</rscale>
<asrwt>0</asrwt>
<pdfrwt beam="1">  1       21 0.95025884E-01 0.12500000E+03</pdfrwt>
<pdfrwt beam="2">  1       21 0.97295197E-03 0.12500000E+03</pdfrwt>
<totfact> 0.36029600E+06</totfact>
</mgrwt>
</event>
<event>
 3    0  0.1421193E+001  0.1250000E+03  0.7546771E-02  0.1235069E+00
         21   -1    0    0  502  501  0.00000000000E+00  0.00000000000E+00  0.50763130704E+03  0.50763130704E+03  0.00000000000E+00 0. -1.
         21   -1    0    0  501  502 -0.00000000000E+00 -0.00000000000E+00 -0.76950533701E+01  0.76950533701E+01  0.00000000000E+00 0. -1.
         25    1    1    2    0    0  0.00000000000E+00  0.00000000000E+00  0.49993625367E+03  0.51532636041E+03  0.12500000000E+03 0.  0.
<mgrwt>
<rscale>  2 0.12500000E+03</rscale>
<asrwt>0</asrwt>
<pdfrwt beam="1">  1       21 0.78097098E-01 0.12500000E+03</pdfrwt>
<pdfrwt beam="2">  1       21 0.11838548E-02 0.12500000E+03</pdfrwt>
<totfact> 0.41224910E+06</totfact>
</mgrwt>
</event>
<event>
 3    0  0.1641064E+001  0.1250000E+03  0.7546771E-02  0.1235069E+00
         21   -1    0    0  502  501  0.00000000000E+00  0.00000000000E+00  0.20839995594E+02  0.20839995594E+02  0.00000000000E+00 0. -1.
         21   -1    0    0  501  502 -0.00000000000E+00 -0.00000000000E+00 -0.18744005883E+03  0.18744005883E+03  0.00000000000E+00 0. -1.
         25    1    1    2    0    0  0.00000000000E+00  0.00000000000E+00 -0.16660006323E+03  0.20828005442E+03  0.12500000000E+03 0.  0.
<mgrwt>
<rscale>  2 0.12500000E+03</rscale>
<asrwt>0</asrwt>
<pdfrwt beam="1">  1       21 0.32061531E-02 0.12500000E+03</pdfrwt>
<pdfrwt beam="2">  1       21 0.28836933E-01 0.12500000E+03</pdfrwt>
<totfact> 0.64040948E+06</totfact>
</mgrwt>
</event>
<event>
 3    0  0.1700030E+001  0.1250000E+03  0.7546771E-02  0.1235069E+00
         21   -1    0    0  502  501  0.00000000000E+00  0.00000000000E+00  0.69989544922E+02  0.69989544922E+02  0.00000000000E+00 0. -1.
         21   -1    0    0  501  502 -0.00000000000E+00 -0.00000000000E+00 -0.55811907398E+02  0.55811907398E+02  0.00000000000E+00 0. -1.
         25    1    1    2    0    0  0.00000000000E+00  0.00000000000E+00  0.14177637524E+02  0.12580145232E+03  0.12500000000E+03 0.  0.
<mgrwt>
<rscale>  2 0.12500000E+03</rscale>
<asrwt>0</asrwt>
<pdfrwt beam="1">  1       21 0.10767622E-01 0.12500000E+03</pdfrwt>
<pdfrwt beam="2">  1       21 0.85864473E-02 0.12500000E+03</pdfrwt>
<totfact> 0.73933471E+06</totfact>
</mgrwt>
</event>
<event>
 3    0  0.1652388E+001  0.1250000E+03  0.7546771E-02  0.1235069E+00
         21   -1    0    0  502  501  0.00000000000E+00  0.00000000000E+00  0.25437512054E+02  0.25437512054E+02  0.00000000000E+00 0. -1.
         21   -1    0    0  501  502 -0.00000000000E+00 -0.00000000000E+00 -0.15356258079E+03  0.15356258079E+03  0.00000000000E+00 0. -1.
         25    1    1    2    0    0  0.00000000000E+00  0.00000000000E+00 -0.12812506874E+03  0.17900009285E+03  0.12500000000E+03 0.  0.
<mgrwt>
<rscale>  2 0.12500000E+03</rscale>
<asrwt>0</asrwt>
<pdfrwt beam="1">  1       21 0.39134633E-02 0.12500000E+03</pdfrwt>
<pdfrwt beam="2">  1       21 0.23625013E-01 0.12500000E+03</pdfrwt>
<totfact> 0.67266428E+06</totfact>
</mgrwt>
</event>
<event>
 3    0  0.1560062E+001  0.1250000E+03  0.7546771E-02  0.1235069E+00
         21   -1    0    0  502  501  0.00000000000E+00  0.00000000000E+00  0.10325371893E+02  0.10325371893E+02  0.00000000000E+00 0.  1.
         21   -1    0    0  501  502 -0.00000000000E+00 -0.00000000000E+00 -0.37831567140E+03  0.37831567140E+03  0.00000000000E+00 0.  1.
         25    1    1    2    0    0  0.00000000000E+00  0.00000000000E+00 -0.36799029951E+03  0.38864104329E+03  0.12500000000E+03 0.  0.
<mgrwt>
<rscale>  2 0.12500000E+03</rscale>
<asrwt>0</asrwt>
<pdfrwt beam="1">  1       21 0.15885188E-02 0.12500000E+03</pdfrwt>
<pdfrwt beam="2">  1       21 0.58202410E-01 0.12500000E+03</pdfrwt>
<totfact> 0.48804018E+06</totfact>
</mgrwt>
</event>
<event>
 3    0  0.1698661E+001  0.1250000E+03  0.7546771E-02  0.1235069E+00
         21   -1    0    0  502  501  0.00000000000E+00  0.00000000000E+00  0.78231214996E+02  0.78231214996E+02  0.00000000000E+00 0. -1.
         21   -1    0    0  501  502 -0.00000000000E+00 -0.00000000000E+00 -0.49932114696E+02  0.49932114696E+02  0.00000000000E+00 0. -1.
         25    1    1    2    0    0  0.00000000000E+00  0.00000000000E+00  0.28299100300E+02  0.12816332969E+03  0.12500000000E+03 0.  0.
<mgrwt>
<rscale>  2 0.12500000E+03</rscale>
<asrwt>0</asrwt>
<pdfrwt beam="1">  1       21 0.12035571E-01 0.12500000E+03</pdfrwt>
<pdfrwt beam="2">  1       21 0.76818638E-02 0.12500000E+03</pdfrwt>
<totfact> 0.73611507E+06</totfact>
</mgrwt>
</event>
<event>
 3    0  0.1476082E+001  0.1250000E+03  0.7546771E-02  0.1235069E+00
         21   -1    0    0  502  501  0.00000000000E+00  0.00000000000E+00  0.91084631580E+01  0.91084631580E+01  0.00000000000E+00 0. -1.
         21   -1    0    0  501  502 -0.00000000000E+00 -0.00000000000E+00 -0.42885939508E+03  0.42885939508E+03  0.00000000000E+00 0. -1.
         25    1    1    2    0    0  0.00000000000E+00  0.00000000000E+00 -0.41975093192E+03  0.43796785823E+03  0.12500000000E+03 0.  0.
<mgrwt>
<rscale>  2 0.12500000E+03</rscale>
<asrwt>0</asrwt>
<pdfrwt beam="1">  1       21 0.14013020E-02 0.12500000E+03</pdfrwt>
<pdfrwt beam="2">  1       21 0.65978371E-01 0.12500000E+03</pdfrwt>
<totfact> 0.45620885E+06</totfact>
</mgrwt>
</event>
<event>
 3    0  0.1651520E+001  0.1250000E+03  0.7546771E-02  0.1235069E+00
         21   -1    0    0  502  501  0.00000000000E+00  0.00000000000E+00  0.16967089364E+03  0.16967089364E+03  0.00000000000E+00 0. -1.
         21   -1    0    0  501  502 -0.00000000000E+00 -0.00000000000E+00 -0.23022510910E+02  0.23022510910E+02  0.00000000000E+00 0. -1.
         25    1    1    2    0    0  0.00000000000E+00  0.00000000000E+00  0.14664838273E+03  0.19269340455E+03  0.12500000000E+03 0.  0.
<mgrwt>
<rscale>  2 0.12500000E+03</rscale>
<asrwt>0</asrwt>
<pdfrwt beam="1">  1       21 0.26103214E-01 0.12500000E+03</pdfrwt>
<pdfrwt beam="2">  1       21 0.35419249E-02 0.12500000E+03</pdfrwt>
<totfact> 0.65724362E+06</totfact>
</mgrwt>
</event>
<event>
 3    0  0.1368989E+001  0.1250000E+03  0.7546771E-02  0.1235069E+00
         21   -1    0    0  502  501  0.00000000000E+00  0.00000000000E+00  0.38993978343E+01  0.38993978343E+01  0.00000000000E+00 0. -1.
         21   -1    0    0  501  502 -0.00000000000E+00 -0.00000000000E+00 -0.10017572369E+04  0.10017572369E+04  0.00000000000E+00 0. -1.
         25    1    1    2    0    0  0.00000000000E+00  0.00000000000E+00 -0.99785783905E+03  0.10056566347E+04  0.12500000000E+03 0.  0.
<mgrwt>
<rscale>  2 0.12500000E+03</rscale>
<asrwt>0</asrwt>
<pdfrwt beam="1">  1       21 0.59990668E-03 0.12500000E+03</pdfrwt>
<pdfrwt beam="2">  1       21 0.15411667E+00 0.12500000E+03</pdfrwt>
<totfact> 0.23477908E+06</totfact>
</mgrwt>
</event>
<event>
 3    0  0.1677825E+001  0.1250000E+03  0.7546771E-02  0.1235069E+00
         21   -1    0    0  502  501  0.00000000000E+00  0.00000000000E+00  0.12445817119E+03  0.12445817119E+03  0.00000000000E+00 0. -1.
         21   -1    0    0  501  502 -0.00000000000E+00 -0.00000000000E+00 -0.31386046916E+02  0.31386046916E+02  0.00000000000E+00 0. -1.
         25    1    1    2    0    0  0.00000000000E+00  0.00000000000E+00  0.93072124270E+02  0.15584421810E+03  0.12500000000E+03 0.  0.
<mgrwt>
<rscale>  2 0.12500000E+03</rscale>
<asrwt>0</asrwt>
<pdfrwt beam="1">  1       21 0.19147411E-01 0.12500000E+03</pdfrwt>
<pdfrwt beam="2">  1       21 0.48286226E-02 0.12500000E+03</pdfrwt>
<totfact> 0.70030885E+06</totfact>
</mgrwt>
</event>
<event>
 3    0  0.1368989E+001  0.1250000E+03  0.7546771E-02  0.1235069E+00
         21   -1    0    0  502  501  0.00000000000E+00  0.00000000000E+00  0.45979905779E+01  0.45979905779E+01  0.00000000000E+00 0.  1.
         21   -1    0    0  501  502 -0.00000000000E+00 -0.00000000000E+00 -0.84955589487E+03  0.84955589487E+03  0.00000000000E+00 0.  1.
         25    1    1    2    0    0  0.00000000000E+00  0.00000000000E+00 -0.84495790430E+03  0.85415388545E+03  0.12500000000E+03 0.  0.
<mgrwt>
<rscale>  2 0.12500000E+03</rscale>
<asrwt>0</asrwt>
<pdfrwt beam="1">  1       21 0.70738286E-03 0.12500000E+03</pdfrwt>
<pdfrwt beam="2">  1       21 0.13070096E+00 0.12500000E+03</pdfrwt>
<totfact> 0.27645230E+06</totfact>
</mgrwt>
</event>
<event>
 3    0  0.1692758E+001  0.1250000E+03  0.7546771E-02  0.1235069E+00
         21   -1    0    0  502  501  0.00000000000E+00  0.00000000000E+00  0.13408474188E+03  0.13408474188E+03  0.00000000000E+00 0.  1.
         21   -1    0    0  501  502 -0.00000000000E+00 -0.00000000000E+00 -0.29132695826E+02  0.29132695826E+02  0.00000000000E+00 0.  1.
         25    1    1    2    0    0  0.00000000000E+00  0.00000000000E+00  0.10495204605E+03  0.16321743770E+03  0.12500000000E+03 0.  0.
<mgrwt>
<rscale>  2 0.12500000E+03</rscale>
<asrwt>0</asrwt>
<pdfrwt beam="1">  1       21 0.20628421E-01 0.12500000E+03</pdfrwt>
<pdfrwt beam="2">  1       21 0.44819533E-02 0.12500000E+03</pdfrwt>
<totfact> 0.69128482E+06</totfact>
</mgrwt>
</event>
<event>
 3    0  0.1557607E+001  0.1250000E+03  0.7546771E-02  0.1235069E+00
         21   -1    0    0  502  501  0.00000000000E+00  0.00000000000E+00  0.36215346740E+03  0.36215346740E+03  0.00000000000E+00 0.  1.
         21   -1    0    0  501  502 -0.00000000000E+00 -0.00000000000E+00 -0.10786173133E+02  0.10786173133E+02  0.00000000000E+00 0.  1.
         25    1    1    2    0    0  0.00000000000E+00  0.00000000000E+00  0.35136729427E+03  0.37293964053E+03  0.12500000000E+03 0.  0.
<mgrwt>
<rscale>  2 0.12500000E+03</rscale>
<asrwt>0</asrwt>
<pdfrwt beam="1">  1       21 0.55715909E-01 0.12500000E+03</pdfrwt>
<pdfrwt beam="2">  1       21 0.16594115E-02 0.12500000E+03</pdfrwt>
<totfact> 0.49887629E+06</totfact>
</mgrwt>
</event>
<event>
 3    0  0.1701176E+001  0.1250000E+03  0.7546771E-02  0.1235069E+00
         21   -1    0    0  502  501  0.00000000000E+00  0.00000000000E+00  0.51456156153E+02  0.51456156153E+02  0.00000000000E+00 0. -1.
         21   -1    0    0  501  502 -0.00000000000E+00 -0.00000000000E+00 -0.75914143070E+02  0.75914143070E+02  0.00000000000E+00 0. -1.
         25    1    1    2    0    0  0.00000000000E+00  0.00000000000E+00 -0.24457986917E+02  0.12737029922E+03  0.12500000000E+03 0.  0.
<mgrwt>
<rscale>  2 0.12500000E+03</rscale>
<asrwt>0</asrwt>
<pdfrwt beam="1">  1       21 0.79163317E-02 0.12500000E+03</pdfrwt>
<pdfrwt beam="2">  1       21 0.11679099E-01 0.12500000E+03</pdfrwt>
<totfact> 0.73718809E+06</totfact>
</mgrwt>
</event>
<event>
 3    0  0.1620687E+001  0.1250000E+03  0.7546771E-02  0.1235069E+00
         21   -1    0    0  502  501  0.00000000000E+00  0.00000000000E+00  0.23239706421E+03  0.23239706421E+03  0.00000000000E+00 0.  1.
         21   -1    0    0  501  502 -0.00000000000E+00 -0.00000000000E+00 -0.16808516980E+02  0.16808516980E+02  0.00000000000E+00 0.  1.
         25    1    1    2    0    0  0.00000000000E+00  0.00000000000E+00  0.21558854723E+03  0.24920558119E+03  0.12500000000E+03 0.  0.
<mgrwt>
<rscale>  2 0.12500000E+03</rscale>
<asrwt>0</asrwt>
<pdfrwt beam="1">  1       21 0.35753392E-01 0.12500000E+03</pdfrwt>
<pdfrwt beam="2">  1       21 0.25859259E-02 0.12500000E+03</pdfrwt>
<totfact> 0.59953064E+06</totfact>
</mgrwt>
</event>
<event>
 3    0  0.1720745E+001  0.1250000E+03  0.7546771E-02  0.1235069E+00
         21   -1    0    0  502  501  0.00000000000E+00  0.00000000000E+00  0.85503706450E+02  0.85503706450E+02  0.00000000000E+00 0.  1.
         21   -1    0    0  501  502 -0.00000000000E+00 -0.00000000000E+00 -0.45685154038E+02  0.45685154038E+02  0.00000000000E+00 0.  1.
         25    1    1    2    0    0  0.00000000000E+00  0.00000000000E+00  0.39818552412E+02  0.13118886049E+03  0.12500000000E+03 0.  0.
<mgrwt>
<rscale>  2 0.12500000E+03</rscale>
<asrwt>0</asrwt>
<pdfrwt beam="1">  1       21 0.13154416E-01 0.12500000E+03</pdfrwt>
<pdfrwt beam="2">  1       21 0.70284853E-02 0.12500000E+03</pdfrwt>
<totfact> 0.73205232E+06</totfact>
</mgrwt>
</event>
<event>
 3    0  0.1543925E+001  0.1250000E+03  0.7546771E-02  0.1235069E+00
         21   -1    0    0  502  501  0.00000000000E+00  0.00000000000E+00  0.11339296176E+02  0.11339296176E+02  0.00000000000E+00 0.  1.
         21   -1    0    0  501  502 -0.00000000000E+00 -0.00000000000E+00 -0.34448787116E+03  0.34448787116E+03  0.00000000000E+00 0.  1.
         25    1    1    2    0    0  0.00000000000E+00  0.00000000000E+00 -0.33314857499E+03  0.35582716734E+03  0.12500000000E+03 0.  0.
<mgrwt>
<rscale>  2 0.12500000E+03</rscale>
<asrwt>0</asrwt>
<pdfrwt beam="1">  1       21 0.17445071E-02 0.12500000E+03</pdfrwt>
<pdfrwt beam="2">  1       21 0.52998133E-01 0.12500000E+03</pdfrwt>
<totfact> 0.51110938E+06</totfact>
</mgrwt>
</event>
<event>
 3    0  0.1389585E+001  0.1250000E+03  0.7546771E-02  0.1235069E+00
         21   -1    0    0  502  501  0.00000000000E+00  0.00000000000E+00  0.64408388375E+03  0.64408388375E+03  0.00000000000E+00 0.  1.
         21   -1    0    0  501  502 -0.00000000000E+00 -0.00000000000E+00 -0.60648156219E+01  0.60648156219E+01  0.00000000000E+00 0.  1.
         25    1    1    2    0    0  0.00000000000E+00  0.00000000000E+00  0.63801906813E+03  0.65014869937E+03  0.12500000000E+03 0.  0.
<mgrwt>
<rscale>  2 0.12500000E+03</rscale>
<asrwt>0</asrwt>
<pdfrwt beam="1">  1       21 0.99089774E-01 0.12500000E+03</pdfrwt>
<pdfrwt beam="2">  1       21 0.93304907E-03 0.12500000E+03</pdfrwt>
<totfact> 0.34918363E+06</totfact>
</mgrwt>
</event>
<event>
 3    0  0.1577975E+001  0.1250000E+03  0.7546771E-02  0.1235069E+00
         21   -1    0    0  502  501  0.00000000000E+00  0.00000000000E+00  0.11069266292E+02  0.11069266292E+02  0.00000000000E+00 0.  1.
         21   -1    0    0  501  502 -0.00000000000E+00 -0.00000000000E+00 -0.35289150128E+03  0.35289150128E+03  0.00000000000E+00 0.  1.
         25    1    1    2    0    0  0.00000000000E+00  0.00000000000E+00 -0.34182223499E+03  0.36396076757E+03  0.12500000000E+03 0.  0.
<mgrwt>
<rscale>  2 0.12500000E+03</rscale>
<asrwt>0</asrwt>
<pdfrwt beam="1">  1       21 0.17029640E-02 0.12500000E+03</pdfrwt>
<pdfrwt beam="2">  1       21 0.54291000E-01 0.12500000E+03</pdfrwt>
<totfact> 0.50523629E+06</totfact>
</mgrwt>
</event>
<event>
 3    0  0.1524302E+001  0.1250000E+03  0.7546771E-02  0.1235069E+00
         21   -1    0    0  502  501  0.00000000000E+00  0.00000000000E+00  0.10325828193E+02  0.10325828193E+02  0.00000000000E+00 0.  1.
         21   -1    0    0  501  502 -0.00000000000E+00 -0.00000000000E+00 -0.37829895356E+03  0.37829895356E+03  0.00000000000E+00 0.  1.
         25    1    1    2    0    0  0.00000000000E+00  0.00000000000E+00 -0.36797312537E+03  0.38862478175E+03  0.12500000000E+03 0.  0.
<mgrwt>
<rscale>  2 0.12500000E+03</rscale>
<asrwt>0</asrwt>
<pdfrwt beam="1">  1       21 0.15885888E-02 0.12500000E+03</pdfrwt>
<pdfrwt beam="2">  1       21 0.58199844E-01 0.12500000E+03</pdfrwt>
<totfact> 0.48805120E+06</totfact>
</mgrwt>
</event>
<event>
 3    0  0.1368989E+001  0.1250000E+03  0.7546771E-02  0.1235069E+00
         21   -1    0    0  502  501  0.00000000000E+00  0.00000000000E+00  0.16551554318E+04  0.16551554318E+04  0.00000000000E+00 0.  1.
         21   -1    0    0  501  502 -0.00000000000E+00 -0.00000000000E+00 -0.23600502557E+01  0.23600502557E+01  0.00000000000E+00 0.  1.
         25    1    1    2    0    0  0.00000000000E+00  0.00000000000E+00  0.16527953815E+04  0.16575154820E+04  0.12500000000E+03 0.  0.
<mgrwt>
<rscale>  2 0.12500000E+03</rscale>
<asrwt>0</asrwt>
<pdfrwt beam="1">  1       21 0.25463837E+00 0.12500000E+03</pdfrwt>
<pdfrwt beam="2">  1       21 0.36308598E-03 0.12500000E+03</pdfrwt>
<totfact> 0.11810284E+06</totfact>
</mgrwt>
</event>
<event>
 3    0  0.1368989E+001  0.1250000E+03  0.7546771E-02  0.1235069E+00
         21   -1    0    0  502  501  0.00000000000E+00  0.00000000000E+00  0.28472064206E+01  0.28472064206E+01  0.00000000000E+00 0. -1.
         21   -1    0    0  501  502 -0.00000000000E+00 -0.00000000000E+00 -0.13719588336E+04  0.13719588336E+04  0.00000000000E+00 0. -1.
         25    1    1    2    0    0  0.00000000000E+00  0.00000000000E+00 -0.13691116272E+04  0.13748060401E+04  0.12500000000E+03 0.  0.
<mgrwt>
<rscale>  2 0.12500000E+03</rscale>
<asrwt>0</asrwt>
<pdfrwt beam="1">  1       21 0.43802980E-03 0.12500000E+03</pdfrwt>
<pdfrwt beam="2">  1       21 0.21107153E+00 0.12500000E+03</pdfrwt>
<totfact> 0.15959874E+06</totfact>
</mgrwt>
</event>
<event>
 3    0  0.1685679E+001  0.1250000E+03  0.7546771E-02  0.1235069E+00
         21   -1    0    0  502  501  0.00000000000E+00  0.00000000000E+00  0.34620853963E+02  0.34620853963E+02  0.00000000000E+00 0. -1.
         21   -1    0    0  501  502 -0.00000000000E+00 -0.00000000000E+00 -0.11282939480E+03  0.11282939480E+03  0.00000000000E+00 0. -1.
         25    1    1    2    0    0  0.00000000000E+00  0.00000000000E+00 -0.78208540834E+02  0.14745024876E+03  0.12500000000E+03 0.  0.
<mgrwt>
<rscale>  2 0.12500000E+03</rscale>
<asrwt>0</asrwt>
<pdfrwt beam="1">  1       21 0.53262852E-02 0.12500000E+03</pdfrwt>
<pdfrwt beam="2">  1       21 0.17358368E-01 0.12500000E+03</pdfrwt>
<totfact> 0.71080985E+06</totfact>
</mgrwt>
</event>
<event>
 3    0  0.1724322E+001  0.1250000E+03  0.7546771E-02  0.1235069E+00
         21   -1    0    0  502  501  0.00000000000E+00  0.00000000000E+00  0.55140137036E+02  0.55140137036E+02  0.00000000000E+00 0.  1.
         21   -1    0    0  501  502 -0.00000000000E+00 -0.00000000000E+00 -0.70842225101E+02  0.70842225101E+02  0.00000000000E+00 0.  1.
         25    1    1    2    0    0  0.00000000000E+00  0.00000000000E+00 -0.15702088066E+02  0.12598236214E+03  0.12500000000E+03 0.  0.
<mgrwt>
<rscale>  2 0.12500000E+03</rscale>
<asrwt>0</asrwt>
<pdfrwt beam="1">  1       21 0.84830980E-02 0.12500000E+03</pdfrwt>
<pdfrwt beam="2">  1       21 0.10898804E-01 0.12500000E+03</pdfrwt>
<totfact> 0.73908471E+06</totfact>
</mgrwt>
</event>
<event>
 3    0  0.1368989E+001  0.1250000E+03  0.7546771E-02  0.1235069E+00
         21   -1    0    0  502  501  0.00000000000E+00  0.00000000000E+00  0.34210921909E+04  0.34210921909E+04  0.00000000000E+00 0.  1.
         21   -1    0    0  501  502 -0.00000000000E+00 -0.00000000000E+00 -0.11418137197E+01  0.11418137197E+01  0.00000000000E+00 0.  1.
         25    1    1    2    0    0  0.00000000000E+00  0.00000000000E+00  0.34199503772E+04  0.34222340046E+04  0.12500000000E+03 0.  0.
<mgrwt>
<rscale>  2 0.12500000E+03</rscale>
<asrwt>0</asrwt>
<pdfrwt beam="1">  1       21 0.52631367E+00 0.12500000E+03</pdfrwt>
<pdfrwt beam="2">  1       21 0.17566639E-03 0.12500000E+03</pdfrwt>
<totfact> 0.75060299E+04</totfact>
</mgrwt>
</event>
<event>
 3    0  0.1461150E+001  0.1250000E+03  0.7546771E-02  0.1235069E+00
         21   -1    0    0  502  501  0.00000000000E+00  0.00000000000E+00  0.75054447351E+01  0.75054447351E+01  0.00000000000E+00 0. -1.
         21   -1    0    0  501  502 -0.00000000000E+00 -0.00000000000E+00 -0.52045550102E+03  0.52045550102E+03  0.00000000000E+00 0. -1.
         25    1    1    2    0    0  0.00000000000E+00  0.00000000000E+00 -0.51295005629E+03  0.52796094576E+03  0.12500000000E+03 0.  0.
<mgrwt>
<rscale>  2 0.12500000E+03</rscale>
<asrwt>0</asrwt>
<pdfrwt beam="1">  1       21 0.11546838E-02 0.12500000E+03</pdfrwt>
<pdfrwt beam="2">  1       21 0.80070081E-01 0.12500000E+03</pdfrwt>
<totfact> 0.40567179E+06</totfact>
</mgrwt>
</event>
<event>
 3    0  0.1692814E+001  0.1250000E+03  0.7546771E-02  0.1235069E+00
         21   -1    0    0  502  501  0.00000000000E+00  0.00000000000E+00  0.27168627856E+02  0.27168627856E+02  0.00000000000E+00 0.  1.
         21   -1    0    0  501  502 -0.00000000000E+00 -0.00000000000E+00 -0.14377796408E+03  0.14377796408E+03  0.00000000000E+00 0.  1.
         25    1    1    2    0    0  0.00000000000E+00  0.00000000000E+00 -0.11660933622E+03  0.17094659194E+03  0.12500000000E+03 0.  0.
<mgrwt>
<rscale>  2 0.12500000E+03</rscale>
<asrwt>0</asrwt>
<pdfrwt beam="1">  1       21 0.41797888E-02 0.12500000E+03</pdfrwt>
<pdfrwt beam="2">  1       21 0.22119687E-01 0.12500000E+03</pdfrwt>
<totfact> 0.68205599E+06</totfact>
</mgrwt>
</event>
<event>
 3    0  0.1694355E+001  0.1250000E+03  0.7546771E-02  0.1235069E+00
         21   -1    0    0  502  501  0.00000000000E+00  0.00000000000E+00  0.40962793664E+02  0.40962793664E+02  0.00000000000E+00 0. -1.
         21   -1    0    0  501  502 -0.00000000000E+00 -0.00000000000E+00 -0.95360927577E+02  0.95360927577E+02  0.00000000000E+00 0. -1.
         25    1    1    2    0    0  0.00000000000E+00  0.00000000000E+00 -0.54398133913E+02  0.13632372124E+03  0.12500000000E+03 0.  0.
<mgrwt>
<rscale>  2 0.12500000E+03</rscale>
<asrwt>0</asrwt>
<pdfrwt beam="1">  1       21 0.63019683E-02 0.12500000E+03</pdfrwt>
<pdfrwt beam="2">  1       21 0.14670912E-01 0.12500000E+03</pdfrwt>
<totfact> 0.72521674E+06</totfact>
</mgrwt>
</event>
<event>
 3    0  0.1624149E+001  0.1250000E+03  0.7546771E-02  0.1235069E+00
         21   -1    0    0  502  501  0.00000000000E+00  0.00000000000E+00  0.19441609292E+03  0.19441609292E+03  0.00000000000E+00 0. -1.
         21   -1    0    0  501  502 -0.00000000000E+00 -0.00000000000E+00 -0.20092215317E+02  0.20092215317E+02  0.00000000000E+00 0. -1.
         25    1    1    2    0    0  0.00000000000E+00  0.00000000000E+00  0.17432387761E+03  0.21450830824E+03  0.12500000000E+03 0.  0.
<mgrwt>
<rscale>  2 0.12500000E+03</rscale>
<asrwt>0</asrwt>
<pdfrwt beam="1">  1       21 0.29910167E-01 0.12500000E+03</pdfrwt>
<pdfrwt beam="2">  1       21 0.30911102E-02 0.12500000E+03</pdfrwt>
<totfact> 0.63388310E+06</totfact>
</mgrwt>
</event>
<event>
 3    0  0.1611382E+001  0.1250000E+03  0.7546771E-02  0.1235069E+00
         21   -1    0    0  502  501  0.00000000000E+00  0.00000000000E+00  0.26141317481E+03  0.26141317481E+03  0.00000000000E+00 0.  1.
         21   -1    0    0  501  502 -0.00000000000E+00 -0.00000000000E+00 -0.14942819935E+02  0.14942819935E+02  0.00000000000E+00 0.  1.
         25    1    1    2    0    0  0.00000000000E+00  0.00000000000E+00  0.24647035488E+03  0.27635599475E+03  0.12500000000E+03 0.  0.
<mgrwt>
<rscale>  2 0.12500000E+03</rscale>
<asrwt>0</asrwt>
<pdfrwt beam="1">  1       21 0.40217408E-01 0.12500000E+03</pdfrwt>
<pdfrwt beam="2">  1       21 0.22988956E-02 0.12500000E+03</pdfrwt>
<totfact> 0.57480161E+06</totfact>
</mgrwt>
</event>
<event>
 3    0  0.1490147E+001  0.1250000E+03  0.7546771E-02  0.1235069E+00
         21   -1    0    0  502  501  0.00000000000E+00  0.00000000000E+00  0.97233605293E+01  0.97233605293E+01  0.00000000000E+00 0. -1.
         21   -1    0    0  501  502 -0.00000000000E+00 -0.00000000000E+00 -0.40173867751E+03  0.40173867751E+03  0.00000000000E+00 0. -1.
         25    1    1    2    0    0  0.00000000000E+00  0.00000000000E+00 -0.39201531698E+03  0.41146203804E+03  0.12500000000E+03 0.  0.
<mgrwt>
<rscale>  2 0.12500000E+03</rscale>
<asrwt>0</asrwt>
<pdfrwt beam="1">  1       21 0.14959018E-02 0.12500000E+03</pdfrwt>
<pdfrwt beam="2">  1       21 0.61805945E-01 0.12500000E+03</pdfrwt>
<totfact> 0.47290267E+06</totfact>
</mgrwt>
</event>
<event>
 3    0  0.1663068E+001  0.1250000E+03  0.7546771E-02  0.1235069E+00
         21   -1    0    0  502  501  0.00000000000E+00  0.00000000000E+00  0.26721866616E+02  0.26721866616E+02  0.00000000000E+00 0. -1.
         21   -1    0    0  501  502 -0.00000000000E+00 -0.00000000000E+00 -0.14618177900E+03  0.14618177900E+03  0.00000000000E+00 0. -1.
         25    1    1    2    0    0  0.00000000000E+00  0.00000000000E+00 -0.11945991238E+03  0.17290364561E+03  0.12500000000E+03 0.  0.
<mgrwt>
<rscale>  2 0.12500000E+03</rscale>
<asrwt>0</asrwt>
<pdfrwt beam="1">  1       21 0.41110564E-02 0.12500000E+03</pdfrwt>
<pdfrwt beam="2">  1       21 0.22489505E-01 0.12500000E+03</pdfrwt>
<totfact> 0.67975081E+06</totfact>
</mgrwt>
</event>
<event>
 3    0  0.1368989E+001  0.1250000E+03  0.7546771E-02  0.1235069E+00
         21   -1    0    0  502  501  0.00000000000E+00  0.00000000000E+00  0.90039622660E+03  0.90039622660E+03  0.00000000000E+00 0. -1.
         21   -1    0    0  501  502 -0.00000000000E+00 -0.00000000000E+00 -0.43383678037E+01  0.43383678037E+01  0.00000000000E+00 0. -1.
         25    1    1    2    0    0  0.00000000000E+00  0.00000000000E+00  0.89605785879E+03  0.90473459440E+03  0.12500000000E+03 0.  0.
<mgrwt>
<rscale>  2 0.12500000E+03</rscale>
<asrwt>0</asrwt>
<pdfrwt beam="1">  1       21 0.13852235E+00 0.12500000E+03</pdfrwt>
<pdfrwt beam="2">  1       21 0.66744192E-03 0.12500000E+03</pdfrwt>
<totfact> 0.26163463E+06</totfact>
</mgrwt>
</event>
<event>
 3    0  0.1536112E+001  0.1250000E+03  0.7546771E-02  0.1235069E+00
         21   -1    0    0  502  501  0.00000000000E+00  0.00000000000E+00  0.10788857285E+02  0.10788857285E+02  0.00000000000E+00 0. -1.
         21   -1    0    0  501  502 -0.00000000000E+00 -0.00000000000E+00 -0.36206336750E+03  0.36206336750E+03  0.00000000000E+00 0. -1.
         25    1    1    2    0    0  0.00000000000E+00  0.00000000000E+00 -0.35127451022E+03  0.37285222478E+03  0.12500000000E+03 0.  0.
<mgrwt>
<rscale>  2 0.12500000E+03</rscale>
<asrwt>0</asrwt>
<pdfrwt beam="1">  1       21 0.16598240E-02 0.12500000E+03</pdfrwt>
<pdfrwt beam="2">  1       21 0.55702064E-01 0.12500000E+03</pdfrwt>
<totfact> 0.49893752E+06</totfact>
</mgrwt>
</event>
<event>
 3    0  0.1661070E+001  0.1250000E+03  0.7546771E-02  0.1235069E+00
         21   -1    0    0  502  501  0.00000000000E+00  0.00000000000E+00  0.19640359639E+02  0.19640359639E+02  0.00000000000E+00 0.  1.
         21   -1    0    0  501  502 -0.00000000000E+00 -0.00000000000E+00 -0.19888892422E+03  0.19888892422E+03  0.00000000000E+00 0.  1.
         25    1    1    2    0    0  0.00000000000E+00  0.00000000000E+00 -0.17924856458E+03  0.21852928386E+03  0.12500000000E+03 0.  0.
<mgrwt>
<rscale>  2 0.12500000E+03</rscale>
<asrwt>0</asrwt>
<pdfrwt beam="1">  1       21 0.30215939E-02 0.12500000E+03</pdfrwt>
<pdfrwt beam="2">  1       21 0.30598294E-01 0.12500000E+03</pdfrwt>
<totfact> 0.62973180E+06</totfact>
</mgrwt>
</event>
<event>
 3    0  0.1627908E+001  0.1250000E+03  0.7546771E-02  0.1235069E+00
         21   -1    0    0  502  501  0.00000000000E+00  0.00000000000E+00  0.20247812311E+02  0.20247812311E+02  0.00000000000E+00 0. -1.
         21   -1    0    0  501  502 -0.00000000000E+00 -0.00000000000E+00 -0.19292207672E+03  0.19292207672E+03  0.00000000000E+00 0. -1.
         25    1    1    2    0    0  0.00000000000E+00  0.00000000000E+00 -0.17267426441E+03  0.21316988903E+03  0.12500000000E+03 0.  0.
<mgrwt>
<rscale>  2 0.12500000E+03</rscale>
<asrwt>0</asrwt>
<pdfrwt beam="1">  1       21 0.31150480E-02 0.12500000E+03</pdfrwt>
<pdfrwt beam="2">  1       21 0.29680320E-01 0.12500000E+03</pdfrwt>
<totfact> 0.63527562E+06</totfact>
</mgrwt>
</event>
<event>
 3    0  0.1575977E+001  0.1250000E+03  0.7546771E-02  0.1235069E+00
         21   -1    0    0  502  501  0.00000000000E+00  0.00000000000E+00  0.11849495451E+02  0.11849495451E+02  0.00000000000E+00 0.  1.
         21   -1    0    0  501  502 -0.00000000000E+00 -0.00000000000E+00 -0.32965538626E+03  0.32965538626E+03  0.00000000000E+00 0.  1.
         25    1    1    2    0    0  0.00000000000E+00  0.00000000000E+00 -0.31780589081E+03  0.34150488171E+03  0.12500000000E+03 0.  0.
<mgrwt>
<rscale>  2 0.12500000E+03</rscale>
<asrwt>0</asrwt>
<pdfrwt beam="1">  1       21 0.18229997E-02 0.12500000E+03</pdfrwt>
<pdfrwt beam="2">  1       21 0.50716203E-01 0.12500000E+03</pdfrwt>
<totfact> 0.52172010E+06</totfact>
</mgrwt>
</event>
<event>
 3    0  0.1465117E+001  0.1250000E+03  0.7546771E-02  0.1235069E+00
         21   -1    0    0  502  501  0.00000000000E+00  0.00000000000E+00  0.79215193869E+01  0.79215193869E+01  0.00000000000E+00 0.  1.
         21   -1    0    0  501  502 -0.00000000000E+00 -0.00000000000E+00 -0.49311878305E+03  0.49311878305E+03  0.00000000000E+00 0.  1.
         25    1    1    2    0    0  0.00000000000E+00  0.00000000000E+00 -0.48519726367E+03  0.50104030244E+03  0.12500000000E+03 0.  0.
<mgrwt>
<rscale>  2 0.12500000E+03</rscale>
<asrwt>0</asrwt>
<pdfrwt beam="1">  1       21 0.12186953E-02 0.12500000E+03</pdfrwt>
<pdfrwt beam="2">  1       21 0.75864430E-01 0.12500000E+03</pdfrwt>
<totfact> 0.41987708E+06</totfact>
</mgrwt>
</event>
<event>
 3    0  0.1368989E+001  0.1250000E+03  0.7546771E-02  0.1235069E+00
         21   -1    0    0  502  501  0.00000000000E+00  0.00000000000E+00  0.54374360048E+01  0.54374360048E+01  0.00000000000E+00 0.  1.
         21   -1    0    0  501  502 -0.00000000000E+00 -0.00000000000E+00 -0.71839925960E+03  0.71839925960E+03  0.00000000000E+00 0.  1.
         25    1    1    2    0    0  0.00000000000E+00  0.00000000000E+00 -0.71296182360E+03  0.72383669561E+03  0.12500000000E+03 0.  0.
<mgrwt>
<rscale>  2 0.12500000E+03</rscale>
<asrwt>0</asrwt>
<pdfrwt beam="1">  1       21 0.83652917E-03 0.12500000E+03</pdfrwt>
<pdfrwt beam="2">  1       21 0.11052289E+00 0.12500000E+03</pdfrwt>
<totfact> 0.32011187E+06</totfact>
</mgrwt>
</event>
<event>
 3    0  0.1630000E+001  0.1250000E+03  0.7546771E-02  0.1235069E+00
         21   -1    0    0  502  501  0.00000000000E+00  0.00000000000E+00  0.22026382667E+03  0.22026382667E+03  0.00000000000E+00 0.  1.
         21   -1    0    0  501  502 -0.00000000000E+00 -0.00000000000E+00 -0.17734414493E+02  0.17734414493E+02  0.00000000000E+00 0.  1.
         25    1    1    2    0    0  0.00000000000E+00  0.00000000000E+00  0.20252941217E+03  0.23799824116E+03  0.12500000000E+03 0.  0.
<mgrwt>
<rscale>  2 0.12500000E+03</rscale>
<asrwt>0</asrwt>
<pdfrwt beam="1">  1       21 0.33886741E-01 0.12500000E+03</pdfrwt>
<pdfrwt beam="2">  1       21 0.27283716E-02 0.12500000E+03</pdfrwt>
<totfact> 0.61026909E+06</totfact>
</mgrwt>
</event>
<event>
 3    0  0.1691582E+001  0.1250000E+03  0.7546771E-02  0.1235069E+00
         21   -1    0    0  502  501  0.00000000000E+00  0.00000000000E+00  0.39106923057E+02  0.39106923057E+02  0.00000000000E+00 0. -1.
         21   -1    0    0  501  502 -0.00000000000E+00 -0.00000000000E+00 -0.99886406156E+02  0.99886406156E+02  0.00000000000E+00 0. -1.
         25    1    1    2    0    0  0.00000000000E+00  0.00000000000E+00 -0.60779483099E+02  0.13899332921E+03  0.12500000000E+03 0.  0.
<mgrwt>
<rscale>  2 0.12500000E+03</rscale>
<asrwt>0</asrwt>
<pdfrwt beam="1">  1       21 0.60164497E-02 0.12500000E+03</pdfrwt>
<pdfrwt beam="2">  1       21 0.15367139E-01 0.12500000E+03</pdfrwt>
<totfact> 0.72171001E+06</totfact>
</mgrwt>
</event>
<event>
 3    0  0.1670395E+001  0.1250000E+03  0.7546771E-02  0.1235069E+00
         21   -1    0    0  502  501  0.00000000000E+00  0.00000000000E+00  0.14249201988E+03  0.14249201988E+03  0.00000000000E+00 0. -1.
         21   -1    0    0  501  502 -0.00000000000E+00 -0.00000000000E+00 -0.27413815898E+02  0.27413815898E+02  0.00000000000E+00 0. -1.
         25    1    1    2    0    0  0.00000000000E+00  0.00000000000E+00  0.11507820398E+03  0.16990583578E+03  0.12500000000E+03 0.  0.
<mgrwt>
<rscale>  2 0.12500000E+03</rscale>
<asrwt>0</asrwt>
<pdfrwt beam="1">  1       21 0.21921849E-01 0.12500000E+03</pdfrwt>
<pdfrwt beam="2">  1       21 0.42175102E-02 0.12500000E+03</pdfrwt>
<totfact> 0.68328800E+06</totfact>
</mgrwt>
</event>
<event>
 3    0  0.1368989E+001  0.1250000E+03  0.7546771E-02  0.1235069E+00
         21   -1    0    0  502  501  0.00000000000E+00  0.00000000000E+00  0.80531382577E+03  0.80531382577E+03  0.00000000000E+00 0.  1.
         21   -1    0    0  501  502 -0.00000000000E+00 -0.00000000000E+00 -0.48505934892E+01  0.48505934892E+01  0.00000000000E+00 0.  1.
         25    1    1    2    0    0  0.00000000000E+00  0.00000000000E+00  0.80046323228E+03  0.81016441926E+03  0.12500000000E+03 0.  0.
<mgrwt>
<rscale>  2 0.12500000E+03</rscale>
<asrwt>0</asrwt>
<pdfrwt beam="1">  1       21 0.12389433E+00 0.12500000E+03</pdfrwt>
<pdfrwt beam="2">  1       21 0.74624579E-03 0.12500000E+03</pdfrwt>
<totfact> 0.29028820E+06</totfact>
</mgrwt>
</event>
<event>
 3    0  0.1624277E+001  0.1250000E+03  0.7546771E-02  0.1235069E+00
         21   -1    0    0  502  501  0.00000000000E+00  0.00000000000E+00  0.19436248564E+03  0.19436248564E+03  0.00000000000E+00 0. -1.
         21   -1    0    0  501  502 -0.00000000000E+00 -0.00000000000E+00 -0.20097756967E+02  0.20097756967E+02  0.00000000000E+00 0. -1.
         25    1    1    2    0    0  0.00000000000E+00  0.00000000000E+00  0.17426472868E+03  0.21446024261E+03  0.12500000000E+03 0.  0.
<mgrwt>
<rscale>  2 0.12500000E+03</rscale>
<asrwt>0</asrwt>
<pdfrwt beam="1">  1       21 0.29901920E-01 0.12500000E+03</pdfrwt>
<pdfrwt beam="2">  1       21 0.30919627E-02 0.12500000E+03</pdfrwt>
<totfact> 0.63393302E+06</totfact>
</mgrwt>
</event>
<event>
 3    0  0.1673885E+001  0.1250000E+03  0.7546771E-02  0.1235069E+00
         21   -1    0    0  502  501  0.00000000000E+00  0.00000000000E+00  0.25274233627E+02  0.25274233627E+02  0.00000000000E+00 0.  1.
         21   -1    0    0  501  502 -0.00000000000E+00 -0.00000000000E+00 -0.15455463685E+03  0.15455463685E+03  0.00000000000E+00 0.  1.
         25    1    1    2    0    0  0.00000000000E+00  0.00000000000E+00 -0.12928040323E+03  0.17982887048E+03  0.12500000000E+03 0.  0.
<mgrwt>
<rscale>  2 0.12500000E+03</rscale>
<asrwt>0</asrwt>
<pdfrwt beam="1">  1       21 0.38883437E-02 0.12500000E+03</pdfrwt>
<pdfrwt beam="2">  1       21 0.23777636E-01 0.12500000E+03</pdfrwt>
<totfact> 0.67171173E+06</totfact>
</mgrwt>
</event>
<event>
 3    0  0.1368989E+001  0.1250000E+03  0.7546771E-02  0.1235069E+00
         21   -1    0    0  502  501  0.00000000000E+00  0.00000000000E+00  0.45236296759E+01  0.45236296759E+01  0.00000000000E+00 0.  1.
         21   -1    0    0  501  502 -0.00000000000E+00 -0.00000000000E+00 -0.86352117213E+03  0.86352117213E+03  0.00000000000E+00 0.  1.
         25    1    1    2    0    0  0.00000000000E+00  0.00000000000E+00 -0.85899754246E+03  0.86804480181E+03  0.12500000000E+03 0.  0.
<mgrwt>
<rscale>  2 0.12500000E+03</rscale>
<asrwt>0</asrwt>
<pdfrwt beam="1">  1       21 0.69594228E-03 0.12500000E+03</pdfrwt>
<pdfrwt beam="2">  1       21 0.13284955E+00 0.12500000E+03</pdfrwt>
<totfact> 0.27228263E+06</totfact>
</mgrwt>
</event>
<event>
 3    0  0.1713207E+001  0.1250000E+03  0.7546771E-02  0.1235069E+00
         21   -1    0    0  502  501  0.00000000000E+00  0.00000000000E+00  0.10152335641E+03  0.10152335641E+03  0.00000000000E+00 0.  1.
         21   -1    0    0  501  502 -0.00000000000E+00 -0.00000000000E+00 -0.38476367783E+02  0.38476367783E+02  0.00000000000E+00 0.  1.
         25    1    1    2    0    0  0.00000000000E+00  0.00000000000E+00  0.63046988632E+02  0.13999972420E+03  0.12500000000E+03 0.  0.
<mgrwt>
<rscale>  2 0.12500000E+03</rscale>
<asrwt>0</asrwt>
<pdfrwt beam="1">  1       21 0.15618978E-01 0.12500000E+03</pdfrwt>
<pdfrwt beam="2">  1       21 0.59194412E-02 0.12500000E+03</pdfrwt>
<totfact> 0.72039344E+06</totfact>
</mgrwt>
</event>
<event>
 3    0  0.1607512E+001  0.1250000E+03  0.7546771E-02  0.1235069E+00
         21   -1    0    0  502  501  0.00000000000E+00  0.00000000000E+00  0.28718687931E+03  0.28718687931E+03  0.00000000000E+00 0.  1.
         21   -1    0    0  501  502 -0.00000000000E+00 -0.00000000000E+00 -0.13601770420E+02  0.13601770420E+02  0.00000000000E+00 0.  1.
         25    1    1    2    0    0  0.00000000000E+00  0.00000000000E+00  0.27358510888E+03  0.30078864973E+03  0.12500000000E+03 0.  0.
<mgrwt>
<rscale>  2 0.12500000E+03</rscale>
<asrwt>0</asrwt>
<pdfrwt beam="1">  1       21 0.44182592E-01 0.12500000E+03</pdfrwt>
<pdfrwt beam="2">  1       21 0.20925803E-02 0.12500000E+03</pdfrwt>
<totfact> 0.55390700E+06</totfact>
</mgrwt>
</event>
<event>
 3    0  0.1697222E+001  0.1250000E+03  0.7546771E-02  0.1235069E+00
         21   -1    0    0  502  501  0.00000000000E+00  0.00000000000E+00  0.44021686640E+02  0.44021686640E+02  0.00000000000E+00 0. -1.
         21   -1    0    0  501  502 -0.00000000000E+00 -0.00000000000E+00 -0.88734673706E+02  0.88734673706E+02  0.00000000000E+00 0. -1.
         25    1    1    2    0    0  0.00000000000E+00  0.00000000000E+00 -0.44712987066E+02  0.13275636035E+03  0.12500000000E+03 0.  0.
<mgrwt>
<rscale>  2 0.12500000E+03</rscale>
<asrwt>0</asrwt>
<pdfrwt beam="1">  1       21 0.67725673E-02 0.12500000E+03</pdfrwt>
<pdfrwt beam="2">  1       21 0.13651488E-01 0.12500000E+03</pdfrwt>
<totfact> 0.72994950E+06</totfact>
</mgrwt>
</event>
<event>
 3    0  0.1711546E+001  0.1250000E+03  0.7546771E-02  0.1235069E+00
         21   -1    0    0  502  501  0.00000000000E+00  0.00000000000E+00  0.38214860507E+02  0.38214860507E+02  0.00000000000E+00 0.  1.
         21   -1    0    0  501  502 -0.00000000000E+00 -0.00000000000E+00 -0.10221808868E+03  0.10221808868E+03  0.00000000000E+00 0.  1.
         25    1    1    2    0    0  0.00000000000E+00  0.00000000000E+00 -0.64003228169E+02  0.14043294918E+03  0.12500000000E+03 0.  0.
<mgrwt>
<rscale>  2 0.12500000E+03</rscale>
<asrwt>0</asrwt>
<pdfrwt beam="1">  1       21 0.58792094E-02 0.12500000E+03</pdfrwt>
<pdfrwt beam="2">  1       21 0.15725859E-01 0.12500000E+03</pdfrwt>
<totfact> 0.71982838E+06</totfact>
</mgrwt>
</event>
<event>
 3    0  0.1647669E+001  0.1250000E+03  0.7546771E-02  0.1235069E+00
         21   -1    0    0  502  501  0.00000000000E+00  0.00000000000E+00  0.19110455515E+02  0.19110455515E+02  0.00000000000E+00 0.  1.
         21   -1    0    0  501  502 -0.00000000000E+00 -0.00000000000E+00 -0.20440381428E+03  0.20440381428E+03  0.00000000000E+00 0.  1.
         25    1    1    2    0    0  0.00000000000E+00  0.00000000000E+00 -0.18529335877E+03  0.22351426980E+03  0.12500000000E+03 0.  0.
<mgrwt>
<rscale>  2 0.12500000E+03</rscale>
<asrwt>0</asrwt>
<pdfrwt beam="1">  1       21 0.29400702E-02 0.12500000E+03</pdfrwt>
<pdfrwt beam="2">  1       21 0.31446739E-01 0.12500000E+03</pdfrwt>
<totfact> 0.62465126E+06</totfact>
</mgrwt>
</event>
<event>
 3    0  0.1662340E+001  0.1250000E+03  0.7546771E-02  0.1235069E+00
         21   -1    0    0  502  501  0.00000000000E+00  0.00000000000E+00  0.14896720654E+03  0.14896720654E+03  0.00000000000E+00 0. -1.
         21   -1    0    0  501  502 -0.00000000000E+00 -0.00000000000E+00 -0.26222214210E+02  0.26222214210E+02  0.00000000000E+00 0. -1.
         25    1    1    2    0    0  0.00000000000E+00  0.00000000000E+00  0.12274499233E+03  0.17518942075E+03  0.12500000000E+03 0.  0.
<mgrwt>
<rscale>  2 0.12500000E+03</rscale>
<asrwt>0</asrwt>
<pdfrwt beam="1">  1       21 0.22918031E-01 0.12500000E+03</pdfrwt>
<pdfrwt beam="2">  1       21 0.40341869E-02 0.12500000E+03</pdfrwt>
<totfact> 0.67707722E+06</totfact>
</mgrwt>
</event>
<event>
 3    0  0.1368989E+001  0.1250000E+03  0.7546771E-02  0.1235069E+00
         21   -1    0    0  502  501  0.00000000000E+00  0.00000000000E+00  0.14369483214E+04  0.14369483214E+04  0.00000000000E+00 0.  1.
         21   -1    0    0  501  502 -0.00000000000E+00 -0.00000000000E+00 -0.27184345754E+01  0.27184345754E+01  0.00000000000E+00 0.  1.
         25    1    1    2    0    0  0.00000000000E+00  0.00000000000E+00  0.14342298868E+04  0.14396667560E+04  0.12500000000E+03 0.  0.
<mgrwt>
<rscale>  2 0.12500000E+03</rscale>
<asrwt>0</asrwt>
<pdfrwt beam="1">  1       21 0.22106837E+00 0.12500000E+03</pdfrwt>
<pdfrwt beam="2">  1       21 0.41822185E-03 0.12500000E+03</pdfrwt>
<totfact> 0.14911681E+06</totfact>
</mgrwt>
</event>
<event>
 3    0  0.1692290E+001  0.1250000E+03  0.7546771E-02  0.1235069E+00
         21   -1    0    0  502  501  0.00000000000E+00  0.00000000000E+00  0.42554308052E+02  0.42554308052E+02  0.00000000000E+00 0. -1.
         21   -1    0    0  501  502 -0.00000000000E+00 -0.00000000000E+00 -0.91794466385E+02  0.91794466385E+02  0.00000000000E+00 0. -1.
         25    1    1    2    0    0  0.00000000000E+00  0.00000000000E+00 -0.49240158333E+02  0.13434877444E+03  0.12500000000E+03 0.  0.
<mgrwt>
<rscale>  2 0.12500000E+03</rscale>
<asrwt>0</asrwt>
<pdfrwt beam="1">  1       21 0.65468166E-02 0.12500000E+03</pdfrwt>
<pdfrwt beam="2">  1       21 0.14122226E-01 0.12500000E+03</pdfrwt>
<totfact> 0.72782814E+06</totfact>
</mgrwt>
</event>
<event>
 3    0  0.1701379E+001  0.1250000E+03  0.7546771E-02  0.1235069E+00
         21   -1    0    0  502  501  0.00000000000E+00  0.00000000000E+00  0.58206772863E+02  0.58206772863E+02  0.00000000000E+00 0. -1.
         21   -1    0    0  501  502 -0.00000000000E+00 -0.00000000000E+00 -0.67109887868E+02  0.67109887868E+02  0.00000000000E+00 0. -1.
         25    1    1    2    0    0  0.00000000000E+00  0.00000000000E+00 -0.89031150041E+01  0.12531666073E+03  0.12500000000E+03 0.  0.
<mgrwt>
<rscale>  2 0.12500000E+03</rscale>
<asrwt>0</asrwt>
<pdfrwt beam="1">  1       21 0.89548881E-02 0.12500000E+03</pdfrwt>
<pdfrwt beam="2">  1       21 0.10324598E-01 0.12500000E+03</pdfrwt>
<totfact> 0.74000823E+06</totfact>
</mgrwt>
</event>
<event>
 3    0  0.1525781E+001  0.1250000E+03  0.7546771E-02  0.1235069E+00
         21   -1    0    0  502  501  0.00000000000E+00  0.00000000000E+00  0.88481069927E+01  0.88481069927E+01  0.00000000000E+00 0.  1.
         21   -1    0    0  501  502 -0.00000000000E+00 -0.00000000000E+00 -0.44147861268E+03  0.44147861268E+03  0.00000000000E+00 0.  1.
         25    1    1    2    0    0  0.00000000000E+00  0.00000000000E+00 -0.43263050569E+03  0.45032671967E+03  0.12500000000E+03 0.  0.
<mgrwt>
<rscale>  2 0.12500000E+03</rscale>
<asrwt>0</asrwt>
<pdfrwt beam="1">  1       21 0.13612470E-02 0.12500000E+03</pdfrwt>
<pdfrwt beam="2">  1       21 0.67919798E-01 0.12500000E+03</pdfrwt>
<totfact> 0.44872721E+06</totfact>
</mgrwt>
</event>
<event>
 3    0  0.1715388E+001  0.1250000E+03  0.7546771E-02  0.1235069E+00
         21   -1    0    0  502  501  0.00000000000E+00  0.00000000000E+00  0.97624370068E+02  0.97624370068E+02  0.00000000000E+00 0.  1.
         21   -1    0    0  501  502 -0.00000000000E+00 -0.00000000000E+00 -0.40013062284E+02  0.40013062284E+02  0.00000000000E+00 0.  1.
         25    1    1    2    0    0  0.00000000000E+00  0.00000000000E+00  0.57611307784E+02  0.13763743235E+03  0.12500000000E+03 0.  0.
<mgrwt>
<rscale>  2 0.12500000E+03</rscale>
<asrwt>0</asrwt>
<pdfrwt beam="1">  1       21 0.15019134E-01 0.12500000E+03</pdfrwt>
<pdfrwt beam="2">  1       21 0.61558558E-02 0.12500000E+03</pdfrwt>
<totfact> 0.72349104E+06</totfact>
</mgrwt>
</event>
<event>
 3    0  0.1621150E+001  0.1250000E+03  0.7546771E-02  0.1235069E+00
         21   -1    0    0  502  501  0.00000000000E+00  0.00000000000E+00  0.23220144638E+03  0.23220144638E+03  0.00000000000E+00 0.  1.
         21   -1    0    0  501  502 -0.00000000000E+00 -0.00000000000E+00 -0.16822677295E+02  0.16822677295E+02  0.00000000000E+00 0.  1.
         25    1    1    2    0    0  0.00000000000E+00  0.00000000000E+00  0.21537876909E+03  0.24902412368E+03  0.12500000000E+03 0.  0.
<mgrwt>
<rscale>  2 0.12500000E+03</rscale>
<asrwt>0</asrwt>
<pdfrwt beam="1">  1       21 0.35723297E-01 0.12500000E+03</pdfrwt>
<pdfrwt beam="2">  1       21 0.25881044E-02 0.12500000E+03</pdfrwt>
<totfact> 0.59970189E+06</totfact>
</mgrwt>
</event>
<event>
 3    0  0.1368989E+001  0.1250000E+03  0.7546771E-02  0.1235069E+00
         21   -1    0    0  502  501  0.00000000000E+00  0.00000000000E+00  0.30581135072E+01  0.30581135072E+01  0.00000000000E+00 0. -1.
         21   -1    0    0  501  502 -0.00000000000E+00 -0.00000000000E+00 -0.12773397687E+04  0.12773397687E+04  0.00000000000E+00 0. -1.
         25    1    1    2    0    0  0.00000000000E+00  0.00000000000E+00 -0.12742816552E+04  0.12803978822E+04  0.12500000000E+03 0.  0.
<mgrwt>
<rscale>  2 0.12500000E+03</rscale>
<asrwt>0</asrwt>
<pdfrwt beam="1">  1       21 0.47047985E-03 0.12500000E+03</pdfrwt>
<pdfrwt beam="2">  1       21 0.19651346E+00 0.12500000E+03</pdfrwt>
<totfact> 0.17608063E+06</totfact>
</mgrwt>
</event>
<event>
 3    0  0.1724201E+001  0.1250000E+03  0.7546771E-02  0.1235069E+00
         21   -1    0    0  502  501  0.00000000000E+00  0.00000000000E+00  0.52766591117E+02  0.52766591117E+02  0.00000000000E+00 0.  1.
         21   -1    0    0  501  502 -0.00000000000E+00 -0.00000000000E+00 -0.74028848885E+02  0.74028848885E+02  0.00000000000E+00 0.  1.
         25    1    1    2    0    0  0.00000000000E+00  0.00000000000E+00 -0.21262257768E+02  0.12679544000E+03  0.12500000000E+03 0.  0.
<mgrwt>
<rscale>  2 0.12500000E+03</rscale>
<asrwt>0</asrwt>
<pdfrwt beam="1">  1       21 0.81179371E-02 0.12500000E+03</pdfrwt>
<pdfrwt beam="2">  1       21 0.11389054E-01 0.12500000E+03</pdfrwt>
<totfact> 0.73797010E+06</totfact>
</mgrwt>
</event>
<event>
 3    0  0.1512240E+001  0.1250000E+03  0.7546771E-02  0.1235069E+00
         21   -1    0    0  502  501  0.00000000000E+00  0.00000000000E+00  0.95146970118E+01  0.95146970118E+01  0.00000000000E+00 0. -1.
         21   -1    0    0  501  502 -0.00000000000E+00 -0.00000000000E+00 -0.41054906900E+03  0.41054906900E+03  0.00000000000E+00 0. -1.
         25    1    1    2    0    0  0.00000000000E+00  0.00000000000E+00 -0.40103437199E+03  0.42006376601E+03  0.12500000000E+03 0.  0.
<mgrwt>
<rscale>  2 0.12500000E+03</rscale>
<asrwt>0</asrwt>
<pdfrwt beam="1">  1       21 0.14637994E-02 0.12500000E+03</pdfrwt>
<pdfrwt beam="2">  1       21 0.63161402E-01 0.12500000E+03</pdfrwt>
<totfact> 0.46738404E+06</totfact>
</mgrwt>
</event>
<event>
 3    0  0.1552524E+001  0.1250000E+03  0.7546771E-02  0.1235069E+00
         21   -1    0    0  502  501  0.00000000000E+00  0.00000000000E+00  0.28651744952E+03  0.28651744952E+03  0.00000000000E+00 0. -1.
         21   -1    0    0  501  502 -0.00000000000E+00 -0.00000000000E+00 -0.13633550091E+02  0.13633550091E+02  0.00000000000E+00 0. -1.
         25    1    1    2    0    0  0.00000000000E+00  0.00000000000E+00  0.27288389943E+03  0.30015099961E+03  0.12500000000E+03 0.  0.
<mgrwt>
<rscale>  2 0.12500000E+03</rscale>
<asrwt>0</asrwt>
<pdfrwt beam="1">  1       21 0.44079603E-01 0.12500000E+03</pdfrwt>
<pdfrwt beam="2">  1       21 0.20974695E-02 0.12500000E+03</pdfrwt>
<totfact> 0.55443629E+06</totfact>
</mgrwt>
</event>
<event>
 3    0  0.1368989E+001  0.1250000E+03  0.7546771E-02  0.1235069E+00
         21   -1    0    0  502  501  0.00000000000E+00  0.00000000000E+00  0.10417854128E+04  0.10417854128E+04  0.00000000000E+00 0. -1.
         21   -1    0    0  501  502 -0.00000000000E+00 -0.00000000000E+00 -0.37495725625E+01  0.37495725625E+01  0.00000000000E+00 0. -1.
         25    1    1    2    0    0  0.00000000000E+00  0.00000000000E+00  0.10380358403E+04  0.10455349854E+04  0.12500000000E+03 0.  0.
<mgrwt>
<rscale>  2 0.12500000E+03</rscale>
<asrwt>0</asrwt>
<pdfrwt beam="1">  1       21 0.16027445E+00 0.12500000E+03</pdfrwt>
<pdfrwt beam="2">  1       21 0.57685815E-03 0.12500000E+03</pdfrwt>
<totfact> 0.22505124E+06</totfact>
</mgrwt>
</event>
<event>
 3    0  0.1589934E+001  0.1250000E+03  0.7546771E-02  0.1235069E+00
         21   -1    0    0  502  501  0.00000000000E+00  0.00000000000E+00  0.26076078753E+03  0.26076078753E+03  0.00000000000E+00 0. -1.
         21   -1    0    0  501  502 -0.00000000000E+00 -0.00000000000E+00 -0.14980204796E+02  0.14980204796E+02  0.00000000000E+00 0. -1.
         25    1    1    2    0    0  0.00000000000E+00  0.00000000000E+00  0.24578058273E+03  0.27574099233E+03  0.12500000000E+03 0.  0.
<mgrwt>
<rscale>  2 0.12500000E+03</rscale>
<asrwt>0</asrwt>
<pdfrwt beam="1">  1       21 0.40117041E-01 0.12500000E+03</pdfrwt>
<pdfrwt beam="2">  1       21 0.23046471E-02 0.12500000E+03</pdfrwt>
<totfact> 0.57534435E+06</totfact>
</mgrwt>
</event>
<event>
 3    0  0.1605823E+001  0.1250000E+03  0.7546771E-02  0.1235069E+00
         21   -1    0    0  502  501  0.00000000000E+00  0.00000000000E+00  0.16181199301E+02  0.16181199301E+02  0.00000000000E+00 0. -1.
         21   -1    0    0  501  502 -0.00000000000E+00 -0.00000000000E+00 -0.24140670461E+03  0.24140670461E+03  0.00000000000E+00 0. -1.
         25    1    1    2    0    0  0.00000000000E+00  0.00000000000E+00 -0.22522550531E+03  0.25758790391E+03  0.12500000000E+03 0.  0.
<mgrwt>
<rscale>  2 0.12500000E+03</rscale>
<asrwt>0</asrwt>
<pdfrwt beam="1">  1       21 0.24894154E-02 0.12500000E+03</pdfrwt>
<pdfrwt beam="2">  1       21 0.37139491E-01 0.12500000E+03</pdfrwt>
<totfact> 0.59171065E+06</totfact>
</mgrwt>
</event>
<event>
 3    0  0.1548996E+001  0.1250000E+03  0.7546771E-02  0.1235069E+00
         21   -1    0    0  502  501  0.00000000000E+00  0.00000000000E+00  0.12159519907E+02  0.12159519907E+02  0.00000000000E+00 0. -1.
         21   -1    0    0  501  502 -0.00000000000E+00 -0.00000000000E+00 -0.32125034787E+03  0.32125034787E+03  0.00000000000E+00 0. -1.
         25    1    1    2    0    0  0.00000000000E+00  0.00000000000E+00 -0.30909082796E+03  0.33340986778E+03  0.12500000000E+03 0.  0.
<mgrwt>
<rscale>  2 0.12500000E+03</rscale>
<asrwt>0</asrwt>
<pdfrwt beam="1">  1       21 0.18706957E-02 0.12500000E+03</pdfrwt>
<pdfrwt beam="2">  1       21 0.49423121E-01 0.12500000E+03</pdfrwt>
<totfact> 0.52787503E+06</totfact>
</mgrwt>
</event>
<event>
 3    0  0.1699687E+001  0.1250000E+03  0.7546771E-02  0.1235069E+00
         21   -1    0    0  502  501  0.00000000000E+00  0.00000000000E+00  0.80310456193E+02  0.80310456193E+02  0.00000000000E+00 0. -1.
         21   -1    0    0  501  502 -0.00000000000E+00 -0.00000000000E+00 -0.48639370079E+02  0.48639370079E+02  0.00000000000E+00 0. -1.
         25    1    1    2    0    0  0.00000000000E+00  0.00000000000E+00  0.31671086114E+02  0.12894982627E+03  0.12500000000E+03 0.  0.
<mgrwt>
<rscale>  2 0.12500000E+03</rscale>
<asrwt>0</asrwt>
<pdfrwt beam="1">  1       21 0.12355455E-01 0.12500000E+03</pdfrwt>
<pdfrwt beam="2">  1       21 0.74829800E-02 0.12500000E+03</pdfrwt>
<totfact> 0.73505620E+06</totfact>
</mgrwt>
</event>
<event>
 3    0  0.1630410E+001  0.1250000E+03  0.7546771E-02  0.1235069E+00
         21   -1    0    0  502  501  0.00000000000E+00  0.00000000000E+00  0.25330073557E+03  0.25330073557E+03  0.00000000000E+00 0.  1.
         21   -1    0    0  501  502 -0.00000000000E+00 -0.00000000000E+00 -0.15421392248E+02  0.15421392248E+02  0.00000000000E+00 0.  1.
         25    1    1    2    0    0  0.00000000000E+00  0.00000000000E+00  0.23787934332E+03  0.26872212782E+03  0.12500000000E+03 0.  0.
<mgrwt>
<rscale>  2 0.12500000E+03</rscale>
<asrwt>0</asrwt>
<pdfrwt beam="1">  1       21 0.38969341E-01 0.12500000E+03</pdfrwt>
<pdfrwt beam="2">  1       21 0.23725221E-02 0.12500000E+03</pdfrwt>
<totfact> 0.58158950E+06</totfact>
</mgrwt>
</event>
<event>
 3    0  0.1717428E+001  0.1250000E+03  0.7546771E-02  0.1235069E+00
         21   -1    0    0  502  501  0.00000000000E+00  0.00000000000E+00  0.91809821719E+02  0.91809821719E+02  0.00000000000E+00 0.  1.
         21   -1    0    0  501  502 -0.00000000000E+00 -0.00000000000E+00 -0.42547190778E+02  0.42547190778E+02  0.00000000000E+00 0.  1.
         25    1    1    2    0    0  0.00000000000E+00  0.00000000000E+00  0.49262630941E+02  0.13435701250E+03  0.12500000000E+03 0.  0.
<mgrwt>
<rscale>  2 0.12500000E+03</rscale>
<asrwt>0</asrwt>
<pdfrwt beam="1">  1       21 0.14124588E-01 0.12500000E+03</pdfrwt>
<pdfrwt beam="2">  1       21 0.65457217E-02 0.12500000E+03</pdfrwt>
<totfact> 0.72781721E+06</totfact>
</mgrwt>
</event>
<event>
 3    0  0.1726734E+001  0.1250000E+03  0.7546771E-02  0.1235069E+00
         21   -1    0    0  502  501  0.00000000000E+00  0.00000000000E+00  0.60444048878E+02  0.60444048878E+02  0.00000000000E+00 0.  1.
         21   -1    0    0  501  502 -0.00000000000E+00 -0.00000000000E+00 -0.64625882490E+02  0.64625882490E+02  0.00000000000E+00 0.  1.
         25    1    1    2    0    0  0.00000000000E+00  0.00000000000E+00 -0.41818336129E+01  0.12506993137E+03  0.12500000000E+03 0.  0.
<mgrwt>
<rscale>  2 0.12500000E+03</rscale>
<asrwt>0</asrwt>
<pdfrwt beam="1">  1       21 0.92990845E-02 0.12500000E+03</pdfrwt>
<pdfrwt beam="2">  1       21 0.99424434E-02 0.12500000E+03</pdfrwt>
<totfact> 0.74034136E+06</totfact>
</mgrwt>
</event>
<event>
 3    0  0.1368989E+001  0.1250000E+03  0.7546771E-02  0.1235069E+00
         21   -1    0    0  502  501  0.00000000000E+00  0.00000000000E+00  0.42578427417E+01  0.42578427417E+01  0.00000000000E+00 0.  1.
         21   -1    0    0  501  502 -0.00000000000E+00 -0.00000000000E+00 -0.91742467652E+03  0.91742467652E+03  0.00000000000E+00 0.  1.
         25    1    1    2    0    0  0.00000000000E+00  0.00000000000E+00 -0.91316683378E+03  0.92168251926E+03  0.12500000000E+03 0.  0.
<mgrwt>
<rscale>  2 0.12500000E+03</rscale>
<asrwt>0</asrwt>
<pdfrwt beam="1">  1       21 0.65505205E-03 0.12500000E+03</pdfrwt>
<pdfrwt beam="2">  1       21 0.14114240E+00 0.12500000E+03</pdfrwt>
<totfact> 0.25685156E+06</totfact>
</mgrwt>
</event>
<event>
 3    0  0.1631127E+001  0.1250000E+03  0.7546771E-02  0.1235069E+00
         21   -1    0    0  502  501  0.00000000000E+00  0.00000000000E+00  0.15423441516E+02  0.15423441516E+02  0.00000000000E+00 0.  1.
         21   -1    0    0  501  502 -0.00000000000E+00 -0.00000000000E+00 -0.25326708024E+03  0.25326708024E+03  0.00000000000E+00 0.  1.
         25    1    1    2    0    0  0.00000000000E+00  0.00000000000E+00 -0.23784363873E+03  0.26869052176E+03  0.12500000000E+03 0.  0.
<mgrwt>
<rscale>  2 0.12500000E+03</rscale>
<asrwt>0</asrwt>
<pdfrwt beam="1">  1       21 0.23728371E-02 0.12500000E+03</pdfrwt>
<pdfrwt beam="2">  1       21 0.38964167E-01 0.12500000E+03</pdfrwt>
<totfact> 0.58161779E+06</totfact>
</mgrwt>
</event>
<event>
 3    0  0.1699431E+001  0.1250000E+03  0.7546771E-02  0.1235069E+00
         21   -1    0    0  502  501  0.00000000000E+00  0.00000000000E+00  0.48653750519E+02  0.48653750519E+02  0.00000000000E+00 0. -1.
         21   -1    0    0  501  502 -0.00000000000E+00 -0.00000000000E+00 -0.80286719077E+02  0.80286719077E+02  0.00000000000E+00 0. -1.
         25    1    1    2    0    0  0.00000000000E+00  0.00000000000E+00 -0.31632968558E+02  0.12894046960E+03  0.12500000000E+03 0.  0.
<mgrwt>
<rscale>  2 0.12500000E+03</rscale>
<asrwt>0</asrwt>
<pdfrwt beam="1">  1       21 0.74851924E-02 0.12500000E+03</pdfrwt>
<pdfrwt beam="2">  1       21 0.12351803E-01 0.12500000E+03</pdfrwt>
<totfact> 0.73506877E+06</totfact>
</mgrwt>
</event>
<event>
 3    0  0.1619226E+001  0.1250000E+03  0.7546771E-02  0.1235069E+00
         21   -1    0    0  502  501  0.00000000000E+00  0.00000000000E+00  0.18917029101E+02  0.18917029101E+02  0.00000000000E+00 0. -1.
         21   -1    0    0  501  502 -0.00000000000E+00 -0.00000000000E+00 -0.20649384103E+03  0.20649384103E+03  0.00000000000E+00 0. -1.
         25    1    1    2    0    0  0.00000000000E+00  0.00000000000E+00 -0.18757681193E+03  0.22541087013E+03  0.12500000000E+03 0.  0.
<mgrwt>
<rscale>  2 0.12500000E+03</rscale>
<asrwt>0</asrwt>
<pdfrwt beam="1">  1       21 0.29103122E-02 0.12500000E+03</pdfrwt>
<pdfrwt beam="2">  1       21 0.31768283E-01 0.12500000E+03</pdfrwt>
<totfact> 0.62273663E+06</totfact>
</mgrwt>
</event>
<event>
 3    0  0.1681204E+001  0.1250000E+03  0.7546771E-02  0.1235069E+00
         21   -1    0    0  502  501  0.00000000000E+00  0.00000000000E+00  0.11964401181E+03  0.11964401181E+03  0.00000000000E+00 0. -1.
         21   -1    0    0  501  502 -0.00000000000E+00 -0.00000000000E+00 -0.32648938638E+02  0.32648938638E+02  0.00000000000E+00 0. -1.
         25    1    1    2    0    0  0.00000000000E+00  0.00000000000E+00  0.86995073171E+02  0.15229295045E+03  0.12500000000E+03 0.  0.
<mgrwt>
<rscale>  2 0.12500000E+03</rscale>
<asrwt>0</asrwt>
<pdfrwt beam="1">  1       21 0.18406771E-01 0.12500000E+03</pdfrwt>
<pdfrwt beam="2">  1       21 0.50229137E-02 0.12500000E+03</pdfrwt>
<totfact> 0.70472340E+06</totfact>
</mgrwt>
</event>
<event>
 3    0  0.1623254E+001  0.1250000E+03  0.7546771E-02  0.1235069E+00
         21   -1    0    0  502  501  0.00000000000E+00  0.00000000000E+00  0.16019296558E+02  0.16019296558E+02  0.00000000000E+00 0.  1.
         21   -1    0    0  501  502 -0.00000000000E+00 -0.00000000000E+00 -0.24384653757E+03  0.24384653757E+03  0.00000000000E+00 0.  1.
         25    1    1    2    0    0  0.00000000000E+00  0.00000000000E+00 -0.22782724102E+03  0.25986583413E+03  0.12500000000E+03 0.  0.
<mgrwt>
<rscale>  2 0.12500000E+03</rscale>
<asrwt>0</asrwt>
<pdfrwt beam="1">  1       21 0.24645073E-02 0.12500000E+03</pdfrwt>
<pdfrwt beam="2">  1       21 0.37514850E-01 0.12500000E+03</pdfrwt>
<totfact> 0.58961571E+06</totfact>
</mgrwt>
</event>
<event>
 3    0  0.1693994E+001  0.1250000E+03  0.7546771E-02  0.1235069E+00
         21   -1    0    0  502  501  0.00000000000E+00  0.00000000000E+00  0.95927757753E+02  0.95927757753E+02  0.00000000000E+00 0. -1.
         21   -1    0    0  501  502 -0.00000000000E+00 -0.00000000000E+00 -0.40720747482E+02  0.40720747482E+02  0.00000000000E+00 0. -1.
         25    1    1    2    0    0  0.00000000000E+00  0.00000000000E+00  0.55207010270E+02  0.13664850523E+03  0.12500000000E+03 0.  0.
<mgrwt>
<rscale>  2 0.12500000E+03</rscale>
<asrwt>0</asrwt>
<pdfrwt beam="1">  1       21 0.14758117E-01 0.12500000E+03</pdfrwt>
<pdfrwt beam="2">  1       21 0.62647304E-02 0.12500000E+03</pdfrwt>
<totfact> 0.72478927E+06</totfact>
</mgrwt>
</event>
<event>
 3    0  0.1682478E+001  0.1250000E+03  0.7546771E-02  0.1235069E+00
         21   -1    0    0  502  501  0.00000000000E+00  0.00000000000E+00  0.11460757601E+03  0.11460757601E+03  0.00000000000E+00 0. -1.
         21   -1    0    0  501  502 -0.00000000000E+00 -0.00000000000E+00 -0.34083697919E+02  0.34083697919E+02  0.00000000000E+00 0. -1.
         25    1    1    2    0    0  0.00000000000E+00  0.00000000000E+00  0.80523878093E+02  0.14869127393E+03  0.12500000000E+03 0.  0.
<mgrwt>
<rscale>  2 0.12500000E+03</rscale>
<asrwt>0</asrwt>
<pdfrwt beam="1">  1       21 0.17631935E-01 0.12500000E+03</pdfrwt>
<pdfrwt beam="2">  1       21 0.52436459E-02 0.12500000E+03</pdfrwt>
<totfact> 0.70923990E+06</totfact>
</mgrwt>
</event>
<event>
 3    0  0.1709093E+001  0.1250000E+03  0.7546771E-02  0.1235069E+00
         21   -1    0    0  502  501  0.00000000000E+00  0.00000000000E+00  0.36607659703E+02  0.36607659703E+02  0.00000000000E+00 0.  1.
         21   -1    0    0  501  502 -0.00000000000E+00 -0.00000000000E+00 -0.10670581052E+03  0.10670581052E+03  0.00000000000E+00 0.  1.
         25    1    1    2    0    0  0.00000000000E+00  0.00000000000E+00 -0.70098150822E+02  0.14331347023E+03  0.12500000000E+03 0.  0.
<mgrwt>
<rscale>  2 0.12500000E+03</rscale>
<asrwt>0</asrwt>
<pdfrwt beam="1">  1       21 0.56319477E-02 0.12500000E+03</pdfrwt>
<pdfrwt beam="2">  1       21 0.16416278E-01 0.12500000E+03</pdfrwt>
<totfact> 0.71609639E+06</totfact>
</mgrwt>
</event>
<event>
 3    0  0.1546475E+001  0.1250000E+03  0.7546771E-02  0.1235069E+00
         21   -1    0    0  502  501  0.00000000000E+00  0.00000000000E+00  0.34370319570E+03  0.34370319570E+03  0.00000000000E+00 0.  1.
         21   -1    0    0  501  502 -0.00000000000E+00 -0.00000000000E+00 -0.11365183824E+02  0.11365183824E+02  0.00000000000E+00 0.  1.
         25    1    1    2    0    0  0.00000000000E+00  0.00000000000E+00  0.33233801187E+03  0.35506837952E+03  0.12500000000E+03 0.  0.
<mgrwt>
<rscale>  2 0.12500000E+03</rscale>
<asrwt>0</asrwt>
<pdfrwt beam="1">  1       21 0.52877407E-01 0.12500000E+03</pdfrwt>
<pdfrwt beam="2">  1       21 0.17484901E-02 0.12500000E+03</pdfrwt>
<totfact> 0.51166286E+06</totfact>
</mgrwt>
</event>
<event>
 3    0  0.1720633E+001  0.1250000E+03  0.7546771E-02  0.1235069E+00
         21   -1    0    0  502  501  0.00000000000E+00  0.00000000000E+00  0.89871401388E+02  0.89871401388E+02  0.00000000000E+00 0.  1.
         21   -1    0    0  501  502 -0.00000000000E+00 -0.00000000000E+00 -0.43464883597E+02  0.43464883597E+02  0.00000000000E+00 0.  1.
         25    1    1    2    0    0  0.00000000000E+00  0.00000000000E+00  0.46406517791E+02  0.13333628498E+03  0.12500000000E+03 0.  0.
<mgrwt>
<rscale>  2 0.12500000E+03</rscale>
<asrwt>0</asrwt>
<pdfrwt beam="1">  1       21 0.13826369E-01 0.12500000E+03</pdfrwt>
<pdfrwt beam="2">  1       21 0.66869052E-02 0.12500000E+03</pdfrwt>
<totfact> 0.72917526E+06</totfact>
</mgrwt>
</event>
<event>
 3    0  0.1368989E+001  0.1250000E+03  0.7546771E-02  0.1235069E+00
         21   -1    0    0  502  501  0.00000000000E+00  0.00000000000E+00  0.36184373503E+01  0.36184373503E+01  0.00000000000E+00 0.  1.
         21   -1    0    0  501  502 -0.00000000000E+00 -0.00000000000E+00 -0.10795405922E+04  0.10795405922E+04  0.00000000000E+00 0.  1.
         25    1    1    2    0    0  0.00000000000E+00  0.00000000000E+00 -0.10759221549E+04  0.10831590296E+04  0.12500000000E+03 0.  0.
<mgrwt>
<rscale>  2 0.12500000E+03</rscale>
<asrwt>0</asrwt>
<pdfrwt beam="1">  1       21 0.55668224E-03 0.12500000E+03</pdfrwt>
<pdfrwt beam="2">  1       21 0.16608330E+00 0.12500000E+03</pdfrwt>
<totfact> 0.21629866E+06</totfact>
</mgrwt>
</event>
<event>
 3    0  0.1388934E+001  0.1250000E+03  0.7546771E-02  0.1235069E+00
         21   -1    0    0  502  501  0.00000000000E+00  0.00000000000E+00  0.65942513956E+01  0.65942513956E+01  0.00000000000E+00 0. -1.
         21   -1    0    0  501  502 -0.00000000000E+00 -0.00000000000E+00 -0.59237201703E+03  0.59237201703E+03  0.00000000000E+00 0. -1.
         25    1    1    2    0    0  0.00000000000E+00  0.00000000000E+00 -0.58577776563E+03  0.59896626842E+03  0.12500000000E+03 0.  0.
<mgrwt>
<rscale>  2 0.12500000E+03</rscale>
<asrwt>0</asrwt>
<pdfrwt beam="1">  1       21 0.10145002E-02 0.12500000E+03</pdfrwt>
<pdfrwt beam="2">  1       21 0.91134154E-01 0.12500000E+03</pdfrwt>
<totfact> 0.37139423E+06</totfact>
</mgrwt>
</event>
<event>
 3    0  0.1672896E+001  0.1250000E+03  0.7546771E-02  0.1235069E+00
         21   -1    0    0  502  501  0.00000000000E+00  0.00000000000E+00  0.22101106832E+02  0.22101106832E+02  0.00000000000E+00 0.  1.
         21   -1    0    0  501  502 -0.00000000000E+00 -0.00000000000E+00 -0.17674454179E+03  0.17674454179E+03  0.00000000000E+00 0.  1.
         25    1    1    2    0    0  0.00000000000E+00  0.00000000000E+00 -0.15464343495E+03  0.19884564862E+03  0.12500000000E+03 0.  0.
<mgrwt>
<rscale>  2 0.12500000E+03</rscale>
<asrwt>0</asrwt>
<pdfrwt beam="1">  1       21 0.34001701E-02 0.12500000E+03</pdfrwt>
<pdfrwt beam="2">  1       21 0.27191469E-01 0.12500000E+03</pdfrwt>
<totfact> 0.65052547E+06</totfact>
</mgrwt>
</event>
<event>
 3    0  0.1691891E+001  0.1250000E+03  0.7546771E-02  0.1235069E+00
         21   -1    0    0  502  501  0.00000000000E+00  0.00000000000E+00  0.40373785183E+02  0.40373785183E+02  0.00000000000E+00 0. -1.
         21   -1    0    0  501  502 -0.00000000000E+00 -0.00000000000E+00 -0.96752137118E+02  0.96752137118E+02  0.00000000000E+00 0. -1.
         25    1    1    2    0    0  0.00000000000E+00  0.00000000000E+00 -0.56378351935E+02  0.13712592230E+03  0.12500000000E+03 0.  0.
<mgrwt>
<rscale>  2 0.12500000E+03</rscale>
<asrwt>0</asrwt>
<pdfrwt beam="1">  1       21 0.62113517E-02 0.12500000E+03</pdfrwt>
<pdfrwt beam="2">  1       21 0.14884944E-01 0.12500000E+03</pdfrwt>
<totfact> 0.72416191E+06</totfact>
</mgrwt>
</event>
<event>
 3    0  0.1688829E+001  0.1250000E+03  0.7546771E-02  0.1235069E+00
         21   -1    0    0  502  501  0.00000000000E+00  0.00000000000E+00  0.26338439334E+02  0.26338439334E+02  0.00000000000E+00 0.  1.
         21   -1    0    0  501  502 -0.00000000000E+00 -0.00000000000E+00 -0.14830985050E+03  0.14830985050E+03  0.00000000000E+00 0.  1.
         25    1    1    2    0    0  0.00000000000E+00  0.00000000000E+00 -0.12197141117E+03  0.17464828983E+03  0.12500000000E+03 0.  0.
<mgrwt>
<rscale>  2 0.12500000E+03</rscale>
<asrwt>0</asrwt>
<pdfrwt beam="1">  1       21 0.40520676E-02 0.12500000E+03</pdfrwt>
<pdfrwt beam="2">  1       21 0.22816900E-01 0.12500000E+03</pdfrwt>
<totfact> 0.67770835E+06</totfact>
</mgrwt>
</event>
<event>
 3    0  0.1673586E+001  0.1250000E+03  0.7546771E-02  0.1235069E+00
         21   -1    0    0  502  501  0.00000000000E+00  0.00000000000E+00  0.13192062736E+03  0.13192062736E+03  0.00000000000E+00 0. -1.
         21   -1    0    0  501  502 -0.00000000000E+00 -0.00000000000E+00 -0.29610608121E+02  0.29610608121E+02  0.00000000000E+00 0. -1.
         25    1    1    2    0    0  0.00000000000E+00  0.00000000000E+00  0.10231001924E+03  0.16153123549E+03  0.12500000000E+03 0.  0.
<mgrwt>
<rscale>  2 0.12500000E+03</rscale>
<asrwt>0</asrwt>
<pdfrwt beam="1">  1       21 0.20295481E-01 0.12500000E+03</pdfrwt>
<pdfrwt beam="2">  1       21 0.45554782E-02 0.12500000E+03</pdfrwt>
<totfact> 0.69332878E+06</totfact>
</mgrwt>
</event>
<event>
 3    0  0.1643818E+001  0.1250000E+03  0.7546771E-02  0.1235069E+00
         21   -1    0    0  502  501  0.00000000000E+00  0.00000000000E+00  0.20581473235E+03  0.20581473235E+03  0.00000000000E+00 0.  1.
         21   -1    0    0  501  502 -0.00000000000E+00 -0.00000000000E+00 -0.18979447950E+02  0.18979447950E+02  0.00000000000E+00 0.  1.
         25    1    1    2    0    0  0.00000000000E+00  0.00000000000E+00  0.18683528440E+03  0.22479418030E+03  0.12500000000E+03 0.  0.
<mgrwt>
<rscale>  2 0.12500000E+03</rscale>
<asrwt>0</asrwt>
<pdfrwt beam="1">  1       21 0.31663803E-01 0.12500000E+03</pdfrwt>
<pdfrwt beam="2">  1       21 0.29199152E-02 0.12500000E+03</pdfrwt>
<totfact> 0.62335841E+06</totfact>
</mgrwt>
</event>
<event>
 3    0  0.1509233E+001  0.1250000E+03  0.7546771E-02  0.1235069E+00
         21   -1    0    0  502  501  0.00000000000E+00  0.00000000000E+00  0.41184413628E+03  0.41184413628E+03  0.00000000000E+00 0. -1.
         21   -1    0    0  501  502 -0.00000000000E+00 -0.00000000000E+00 -0.94847775066E+01  0.94847775066E+01  0.00000000000E+00 0. -1.
         25    1    1    2    0    0  0.00000000000E+00  0.00000000000E+00  0.40235935877E+03  0.42132891379E+03  0.12500000000E+03 0.  0.
<mgrwt>
<rscale>  2 0.12500000E+03</rscale>
<asrwt>0</asrwt>
<pdfrwt beam="1">  1       21 0.63360623E-01 0.12500000E+03</pdfrwt>
<pdfrwt beam="2">  1       21 0.14591969E-02 0.12500000E+03</pdfrwt>
<totfact> 0.46658079E+06</totfact>
</mgrwt>
</event>
<event>
 3    0  0.1649155E+001  0.1250000E+03  0.7546771E-02  0.1235069E+00
         21   -1    0    0  502  501  0.00000000000E+00  0.00000000000E+00  0.21230390305E+03  0.21230390305E+03  0.00000000000E+00 0.  1.
         21   -1    0    0  501  502 -0.00000000000E+00 -0.00000000000E+00 -0.18399332014E+02  0.18399332014E+02  0.00000000000E+00 0.  1.
         25    1    1    2    0    0  0.00000000000E+00  0.00000000000E+00  0.19390457103E+03  0.23070323506E+03  0.12500000000E+03 0.  0.
<mgrwt>
<rscale>  2 0.12500000E+03</rscale>
<asrwt>0</asrwt>
<pdfrwt beam="1">  1       21 0.32662137E-01 0.12500000E+03</pdfrwt>
<pdfrwt beam="2">  1       21 0.28306666E-02 0.12500000E+03</pdfrwt>
<totfact> 0.61744066E+06</totfact>
</mgrwt>
</event>
<event>
 3    0  0.1532504E+001  0.1250000E+03  0.7546771E-02  0.1235069E+00
         21   -1    0    0  502  501  0.00000000000E+00  0.00000000000E+00  0.37997555143E+03  0.37997555143E+03  0.00000000000E+00 0. -1.
         21   -1    0    0  501  502 -0.00000000000E+00 -0.00000000000E+00 -0.10280266679E+02  0.10280266679E+02  0.00000000000E+00 0. -1.
         25    1    1    2    0    0  0.00000000000E+00  0.00000000000E+00  0.36969528475E+03  0.39025581811E+03  0.12500000000E+03 0.  0.
<mgrwt>
<rscale>  2 0.12500000E+03</rscale>
<asrwt>0</asrwt>
<pdfrwt beam="1">  1       21 0.58457766E-01 0.12500000E+03</pdfrwt>
<pdfrwt beam="2">  1       21 0.15815798E-02 0.12500000E+03</pdfrwt>
<totfact> 0.48694463E+06</totfact>
</mgrwt>
</event>
<event>
 3    0  0.1368989E+001  0.1250000E+03  0.7546771E-02  0.1235069E+00
         21   -1    0    0  502  501  0.00000000000E+00  0.00000000000E+00  0.13947067997E+04  0.13947067997E+04  0.00000000000E+00 0.  1.
         21   -1    0    0  501  502 -0.00000000000E+00 -0.00000000000E+00 -0.28007678752E+01  0.28007678752E+01  0.00000000000E+00 0.  1.
         25    1    1    2    0    0  0.00000000000E+00  0.00000000000E+00  0.13919060319E+04  0.13975075676E+04  0.12500000000E+03 0.  0.
<mgrwt>
<rscale>  2 0.12500000E+03</rscale>
<asrwt>0</asrwt>
<pdfrwt beam="1">  1       21 0.21456972E+00 0.12500000E+03</pdfrwt>
<pdfrwt beam="2">  1       21 0.43088848E-03 0.12500000E+03</pdfrwt>
<totfact> 0.15585450E+06</totfact>
</mgrwt>
</event>
<event>
 3    0  0.1654591E+001  0.1250000E+03  0.7546771E-02  0.1235069E+00
         21   -1    0    0  502  501  0.00000000000E+00  0.00000000000E+00  0.19153809554E+03  0.19153809554E+03  0.00000000000E+00 0.  1.
         21   -1    0    0  501  502 -0.00000000000E+00 -0.00000000000E+00 -0.20394115275E+02  0.20394115275E+02  0.00000000000E+00 0.  1.
         25    1    1    2    0    0  0.00000000000E+00  0.00000000000E+00  0.17114398026E+03  0.21193221081E+03  0.12500000000E+03 0.  0.
<mgrwt>
<rscale>  2 0.12500000E+03</rscale>
<asrwt>0</asrwt>
<pdfrwt beam="1">  1       21 0.29467398E-01 0.12500000E+03</pdfrwt>
<pdfrwt beam="2">  1       21 0.31375563E-02 0.12500000E+03</pdfrwt>
<totfact> 0.63656817E+06</totfact>
</mgrwt>
</event>
<event>
 3    0  0.1429236E+001  0.1250000E+03  0.7546771E-02  0.1235069E+00
         21   -1    0    0  502  501  0.00000000000E+00  0.00000000000E+00  0.53975302554E+03  0.53975302554E+03  0.00000000000E+00 0. -1.
         21   -1    0    0  501  502 -0.00000000000E+00 -0.00000000000E+00 -0.72371062601E+01  0.72371062601E+01  0.00000000000E+00 0. -1.
         25    1    1    2    0    0  0.00000000000E+00  0.00000000000E+00  0.53251591928E+03  0.54699013180E+03  0.12500000000E+03 0.  0.
<mgrwt>
<rscale>  2 0.12500000E+03</rscale>
<asrwt>0</asrwt>
<pdfrwt beam="1">  1       21 0.83038896E-01 0.12500000E+03</pdfrwt>
<pdfrwt beam="2">  1       21 0.11134014E-02 0.12500000E+03</pdfrwt>
<totfact> 0.39605215E+06</totfact>
</mgrwt>
</event>
<event>
 3    0  0.1607177E+001  0.1250000E+03  0.7546771E-02  0.1235069E+00
         21   -1    0    0  502  501  0.00000000000E+00  0.00000000000E+00  0.15580861772E+02  0.15580861772E+02  0.00000000000E+00 0.  1.
         21   -1    0    0  501  502 -0.00000000000E+00 -0.00000000000E+00 -0.25070821224E+03  0.25070821224E+03  0.00000000000E+00 0.  1.
         25    1    1    2    0    0  0.00000000000E+00  0.00000000000E+00 -0.23512735047E+03  0.26628907401E+03  0.12500000000E+03 0.  0.
<mgrwt>
<rscale>  2 0.12500000E+03</rscale>
<asrwt>0</asrwt>
<pdfrwt beam="1">  1       21 0.23970557E-02 0.12500000E+03</pdfrwt>
<pdfrwt beam="2">  1       21 0.38570493E-01 0.12500000E+03</pdfrwt>
<totfact> 0.58377597E+06</totfact>
</mgrwt>
</event>
<event>
 3    0  0.1535308E+001  0.1250000E+03  0.7546771E-02  0.1235069E+00
         21   -1    0    0  502  501  0.00000000000E+00  0.00000000000E+00  0.34896452621E+03  0.34896452621E+03  0.00000000000E+00 0.  1.
         21   -1    0    0  501  502 -0.00000000000E+00 -0.00000000000E+00 -0.11193831197E+02  0.11193831197E+02  0.00000000000E+00 0.  1.
         25    1    1    2    0    0  0.00000000000E+00  0.00000000000E+00  0.33777069502E+03  0.36015835741E+03  0.12500000000E+03 0.  0.
<mgrwt>
<rscale>  2 0.12500000E+03</rscale>
<asrwt>0</asrwt>
<pdfrwt beam="1">  1       21 0.53686842E-01 0.12500000E+03</pdfrwt>
<pdfrwt beam="2">  1       21 0.17221281E-02 0.12500000E+03</pdfrwt>
<totfact> 0.50796852E+06</totfact>
</mgrwt>
</event>
<event>
 3    0  0.1703117E+001  0.1250000E+03  0.7546771E-02  0.1235069E+00
         21   -1    0    0  502  501  0.00000000000E+00  0.00000000000E+00  0.35629459768E+02  0.35629459768E+02  0.00000000000E+00 0.  1.
         21   -1    0    0  501  502 -0.00000000000E+00 -0.00000000000E+00 -0.10963539794E+03  0.10963539794E+03  0.00000000000E+00 0.  1.
         25    1    1    2    0    0  0.00000000000E+00  0.00000000000E+00 -0.74005938172E+02  0.14526485771E+03  0.12500000000E+03 0.  0.
<mgrwt>
<rscale>  2 0.12500000E+03</rscale>
<asrwt>0</asrwt>
<pdfrwt beam="1">  1       21 0.54814554E-02 0.12500000E+03</pdfrwt>
<pdfrwt beam="2">  1       21 0.16866984E-01 0.12500000E+03</pdfrwt>
<totfact> 0.71359221E+06</totfact>
</mgrwt>
</event>
<event>
 3    0  0.1714517E+001  0.1250000E+03  0.7546771E-02  0.1235069E+00
         21   -1    0    0  502  501  0.00000000000E+00  0.00000000000E+00  0.10084167158E+03  0.10084167158E+03  0.00000000000E+00 0.  1.
         21   -1    0    0  501  502 -0.00000000000E+00 -0.00000000000E+00 -0.38736466175E+02  0.38736466175E+02  0.00000000000E+00 0.  1.
         25    1    1    2    0    0  0.00000000000E+00  0.00000000000E+00  0.62105205401E+02  0.13957813775E+03  0.12500000000E+03 0.  0.
<mgrwt>
<rscale>  2 0.12500000E+03</rscale>
<asrwt>0</asrwt>
<pdfrwt beam="1">  1       21 0.15514103E-01 0.12500000E+03</pdfrwt>
<pdfrwt beam="2">  1       21 0.59594564E-02 0.12500000E+03</pdfrwt>
<totfact> 0.72094429E+06</totfact>
</mgrwt>
</event>
<event>
 3    0  0.1368989E+001  0.1250000E+03  0.7546771E-02  0.1235069E+00
         21   -1    0    0  502  501  0.00000000000E+00  0.00000000000E+00  0.88209909703E+03  0.88209909703E+03  0.00000000000E+00 0. -1.
         21   -1    0    0  501  502 -0.00000000000E+00 -0.00000000000E+00 -0.44283573276E+01  0.44283573276E+01  0.00000000000E+00 0. -1.
         25    1    1    2    0    0  0.00000000000E+00  0.00000000000E+00  0.87767073970E+03  0.88652745436E+03  0.12500000000E+03 0.  0.
<mgrwt>
<rscale>  2 0.12500000E+03</rscale>
<asrwt>0</asrwt>
<pdfrwt beam="1">  1       21 0.13570741E+00 0.12500000E+03</pdfrwt>
<pdfrwt beam="2">  1       21 0.68128644E-03 0.12500000E+03</pdfrwt>
<totfact> 0.26687279E+06</totfact>
</mgrwt>
</event>
<event>
 3    0  0.1409153E+001  0.1250000E+03  0.7546771E-02  0.1235069E+00
         21   -1    0    0  502  501  0.00000000000E+00  0.00000000000E+00  0.61818528750E+01  0.61818528750E+01  0.00000000000E+00 0.  1.
         21   -1    0    0  501  502 -0.00000000000E+00 -0.00000000000E+00 -0.63188983611E+03  0.63188983611E+03  0.00000000000E+00 0.  1.
         25    1    1    2    0    0  0.00000000000E+00  0.00000000000E+00 -0.62570798323E+03  0.63807168898E+03  0.12500000000E+03 0.  0.
<mgrwt>
<rscale>  2 0.12500000E+03</rscale>
<asrwt>0</asrwt>
<pdfrwt beam="1">  1       21 0.95105443E-03 0.12500000E+03</pdfrwt>
<pdfrwt beam="2">  1       21 0.97213807E-01 0.12500000E+03</pdfrwt>
<totfact> 0.35425545E+06</totfact>
</mgrwt>
</event>
<event>
 3    0  0.1641749E+001  0.1250000E+03  0.7546771E-02  0.1235069E+00
         21   -1    0    0  502  501  0.00000000000E+00  0.00000000000E+00  0.18884121439E+02  0.18884121439E+02  0.00000000000E+00 0.  1.
         21   -1    0    0  501  502 -0.00000000000E+00 -0.00000000000E+00 -0.20685367930E+03  0.20685367930E+03  0.00000000000E+00 0.  1.
         25    1    1    2    0    0  0.00000000000E+00  0.00000000000E+00 -0.18796955787E+03  0.22573780074E+03  0.12500000000E+03 0.  0.
<mgrwt>
<rscale>  2 0.12500000E+03</rscale>
<asrwt>0</asrwt>
<pdfrwt beam="1">  1       21 0.29052494E-02 0.12500000E+03</pdfrwt>
<pdfrwt beam="2">  1       21 0.31823644E-01 0.12500000E+03</pdfrwt>
<totfact> 0.62240715E+06</totfact>
</mgrwt>
</event>
<event>
 3    0  0.1700452E+001  0.1250000E+03  0.7546771E-02  0.1235069E+00
         21   -1    0    0  502  501  0.00000000000E+00  0.00000000000E+00  0.32069578351E+02  0.32069578351E+02  0.00000000000E+00 0.  1.
         21   -1    0    0  501  502 -0.00000000000E+00 -0.00000000000E+00 -0.12180546801E+03  0.12180546801E+03  0.00000000000E+00 0.  1.
         25    1    1    2    0    0  0.00000000000E+00  0.00000000000E+00 -0.89735889662E+02  0.15387504636E+03  0.12500000000E+03 0.  0.
<mgrwt>
<rscale>  2 0.12500000E+03</rscale>
<asrwt>0</asrwt>
<pdfrwt beam="1">  1       21 0.49337812E-02 0.12500000E+03</pdfrwt>
<pdfrwt beam="2">  1       21 0.18739303E-01 0.12500000E+03</pdfrwt>
<totfact> 0.70275746E+06</totfact>
</mgrwt>
</event>
<event>
 3    0  0.1368989E+001  0.1250000E+03  0.7546771E-02  0.1235069E+00
         21   -1    0    0  502  501  0.00000000000E+00  0.00000000000E+00  0.16113756159E+04  0.16113756159E+04  0.00000000000E+00 0.  1.
         21   -1    0    0  501  502 -0.00000000000E+00 -0.00000000000E+00 -0.24241709763E+01  0.24241709763E+01  0.00000000000E+00 0.  1.
         25    1    1    2    0    0  0.00000000000E+00  0.00000000000E+00  0.16089514450E+04  0.16137997869E+04  0.12500000000E+03 0.  0.
<mgrwt>
<rscale>  2 0.12500000E+03</rscale>
<asrwt>0</asrwt>
<pdfrwt beam="1">  1       21 0.24790308E+00 0.12500000E+03</pdfrwt>
<pdfrwt beam="2">  1       21 0.37295067E-03 0.12500000E+03</pdfrwt>
<totfact> 0.12387379E+06</totfact>
</mgrwt>
</event>
<event>
 3    0  0.1463698E+001  0.1250000E+03  0.7546771E-02  0.1235069E+00
         21   -1    0    0  502  501  0.00000000000E+00  0.00000000000E+00  0.52059343931E+03  0.52059343931E+03  0.00000000000E+00 0. -1.
         21   -1    0    0  501  502 -0.00000000000E+00 -0.00000000000E+00 -0.75034560658E+01  0.75034560658E+01  0.00000000000E+00 0. -1.
         25    1    1    2    0    0  0.00000000000E+00  0.00000000000E+00  0.51308998324E+03  0.52809689537E+03  0.12500000000E+03 0.  0.
<mgrwt>
<rscale>  2 0.12500000E+03</rscale>
<asrwt>0</asrwt>
<pdfrwt beam="1">  1       21 0.80091270E-01 0.12500000E+03</pdfrwt>
<pdfrwt beam="2">  1       21 0.11543783E-02 0.12500000E+03</pdfrwt>
<totfact> 0.40560196E+06</totfact>
</mgrwt>
</event>
<event>
 3    0  0.1368989E+001  0.1250000E+03  0.7546771E-02  0.1235069E+00
         21   -1    0    0  502  501  0.00000000000E+00  0.00000000000E+00  0.22046444942E+04  0.22046444942E+04  0.00000000000E+00 0.  1.
         21   -1    0    0  501  502 -0.00000000000E+00 -0.00000000000E+00 -0.17718276168E+01  0.17718276168E+01  0.00000000000E+00 0.  1.
         25    1    1    2    0    0  0.00000000000E+00  0.00000000000E+00  0.22028726666E+04  0.22064163218E+04  0.12500000000E+03 0.  0.
<mgrwt>
<rscale>  2 0.12500000E+03</rscale>
<asrwt>0</asrwt>
<pdfrwt beam="1">  1       21 0.33917388E+00 0.12500000E+03</pdfrwt>
<pdfrwt beam="2">  1       21 0.27259063E-03 0.12500000E+03</pdfrwt>
<totfact> 0.61049984E+05</totfact>
</mgrwt>
</event>
<event>
 3    0  0.1691931E+001  0.1250000E+03  0.7546771E-02  0.1235069E+00
         21   -1    0    0  502  501  0.00000000000E+00  0.00000000000E+00  0.88372807725E+02  0.88372807725E+02  0.00000000000E+00 0. -1.
         21   -1    0    0  501  502 -0.00000000000E+00 -0.00000000000E+00 -0.44201945152E+02  0.44201945152E+02  0.00000000000E+00 0. -1.
         25    1    1    2    0    0  0.00000000000E+00  0.00000000000E+00  0.44170862572E+02  0.13257475288E+03  0.12500000000E+03 0.  0.
<mgrwt>
<rscale>  2 0.12500000E+03</rscale>
<asrwt>0</asrwt>
<pdfrwt beam="1">  1       21 0.13595817E-01 0.12500000E+03</pdfrwt>
<pdfrwt beam="2">  1       21 0.68002992E-02 0.12500000E+03</pdfrwt>
<totfact> 0.73019236E+06</totfact>
</mgrwt>
</event>
<event>
 3    0  0.1368989E+001  0.1250000E+03  0.7546771E-02  0.1235069E+00
         21   -1    0    0  502  501  0.00000000000E+00  0.00000000000E+00  0.69050625931E+03  0.69050625931E+03  0.00000000000E+00 0. -1.
         21   -1    0    0  501  502 -0.00000000000E+00 -0.00000000000E+00 -0.56570812319E+01  0.56570812319E+01  0.00000000000E+00 0. -1.
         25    1    1    2    0    0  0.00000000000E+00  0.00000000000E+00  0.68484917807E+03  0.69616334054E+03  0.12500000000E+03 0.  0.
<mgrwt>
<rscale>  2 0.12500000E+03</rscale>
<asrwt>0</asrwt>
<pdfrwt beam="1">  1       21 0.10623167E+00 0.12500000E+03</pdfrwt>
<pdfrwt beam="2">  1       21 0.87032074E-03 0.12500000E+03</pdfrwt>
<totfact> 0.33058598E+06</totfact>
</mgrwt>
</event>
<event>
 3    0  0.1695298E+001  0.1250000E+03  0.7546771E-02  0.1235069E+00
         21   -1    0    0  502  501  0.00000000000E+00  0.00000000000E+00  0.12744953243E+03  0.12744953243E+03  0.00000000000E+00 0.  1.
         21   -1    0    0  501  502 -0.00000000000E+00 -0.00000000000E+00 -0.30649386666E+02  0.30649386666E+02  0.00000000000E+00 0.  1.
         25    1    1    2    0    0  0.00000000000E+00  0.00000000000E+00  0.96800145769E+02  0.15809891910E+03  0.12500000000E+03 0.  0.
<mgrwt>
<rscale>  2 0.12500000E+03</rscale>
<asrwt>0</asrwt>
<pdfrwt beam="1">  1       21 0.19607620E-01 0.12500000E+03</pdfrwt>
<pdfrwt beam="2">  1       21 0.47152903E-02 0.12500000E+03</pdfrwt>
<totfact> 0.69752537E+06</totfact>
</mgrwt>
</event>
<event>
 3    0  0.1617593E+001  0.1250000E+03  0.7546771E-02  0.1235069E+00
         21   -1    0    0  502  501  0.00000000000E+00  0.00000000000E+00  0.21569558668E+03  0.21569558668E+03  0.00000000000E+00 0. -1.
         21   -1    0    0  501  502 -0.00000000000E+00 -0.00000000000E+00 -0.18110013562E+02  0.18110013562E+02  0.00000000000E+00 0. -1.
         25    1    1    2    0    0  0.00000000000E+00  0.00000000000E+00  0.19758557311E+03  0.23380560024E+03  0.12500000000E+03 0.  0.
<mgrwt>
<rscale>  2 0.12500000E+03</rscale>
<asrwt>0</asrwt>
<pdfrwt beam="1">  1       21 0.33183935E-01 0.12500000E+03</pdfrwt>
<pdfrwt beam="2">  1       21 0.27861561E-02 0.12500000E+03</pdfrwt>
<totfact> 0.61437283E+06</totfact>
</mgrwt>
</event>
<event>
 3    0  0.1697088E+001  0.1250000E+03  0.7546771E-02  0.1235069E+00
         21   -1    0    0  502  501  0.00000000000E+00  0.00000000000E+00  0.41650166108E+02  0.41650166108E+02  0.00000000000E+00 0. -1.
         21   -1    0    0  501  502 -0.00000000000E+00 -0.00000000000E+00 -0.93787140966E+02  0.93787140966E+02  0.00000000000E+00 0. -1.
         25    1    1    2    0    0  0.00000000000E+00  0.00000000000E+00 -0.52136974858E+02  0.13543730707E+03  0.12500000000E+03 0.  0.
<mgrwt>
<rscale>  2 0.12500000E+03</rscale>
<asrwt>0</asrwt>
<pdfrwt beam="1">  1       21 0.64077179E-02 0.12500000E+03</pdfrwt>
<pdfrwt beam="2">  1       21 0.14428791E-01 0.12500000E+03</pdfrwt>
<totfact> 0.72638622E+06</totfact>
</mgrwt>
</event>
<event>
 3    0  0.1703136E+001  0.1250000E+03  0.7546771E-02  0.1235069E+00
         21   -1    0    0  502  501  0.00000000000E+00  0.00000000000E+00  0.12071600296E+03  0.12071600296E+03  0.00000000000E+00 0.  1.
         21   -1    0    0  501  502 -0.00000000000E+00 -0.00000000000E+00 -0.32359007125E+02  0.32359007125E+02  0.00000000000E+00 0.  1.
         25    1    1    2    0    0  0.00000000000E+00  0.00000000000E+00  0.88356995839E+02  0.15307501009E+03  0.12500000000E+03 0.  0.
<mgrwt>
<rscale>  2 0.12500000E+03</rscale>
<asrwt>0</asrwt>
<pdfrwt beam="1">  1       21 0.18571693E-01 0.12500000E+03</pdfrwt>
<pdfrwt beam="2">  1       21 0.49783089E-02 0.12500000E+03</pdfrwt>
<totfact> 0.70375027E+06</totfact>
</mgrwt>
</event>
<event>
 3    0  0.1701979E+001  0.1250000E+03  0.7546771E-02  0.1235069E+00
         21   -1    0    0  502  501  0.00000000000E+00  0.00000000000E+00  0.59785870343E+02  0.59785870343E+02  0.00000000000E+00 0. -1.
         21   -1    0    0  501  502 -0.00000000000E+00 -0.00000000000E+00 -0.65337344386E+02  0.65337344386E+02  0.00000000000E+00 0. -1.
         25    1    1    2    0    0  0.00000000000E+00  0.00000000000E+00 -0.55514740433E+01  0.12512321473E+03  0.12500000000E+03 0.  0.
<mgrwt>
<rscale>  2 0.12500000E+03</rscale>
<asrwt>0</asrwt>
<pdfrwt beam="1">  1       21 0.91978261E-02 0.12500000E+03</pdfrwt>
<pdfrwt beam="2">  1       21 0.10051899E-01 0.12500000E+03</pdfrwt>
<totfact> 0.74026940E+06</totfact>
</mgrwt>
</event>
<event>
 3    0  0.1672894E+001  0.1250000E+03  0.7546771E-02  0.1235069E+00
         21   -1    0    0  502  501  0.00000000000E+00  0.00000000000E+00  0.17069452438E+03  0.17069452438E+03  0.00000000000E+00 0.  1.
         21   -1    0    0  501  502 -0.00000000000E+00 -0.00000000000E+00 -0.22884448192E+02  0.22884448192E+02  0.00000000000E+00 0.  1.
         25    1    1    2    0    0  0.00000000000E+00  0.00000000000E+00  0.14781007619E+03  0.19357897258E+03  0.12500000000E+03 0.  0.
<mgrwt>
<rscale>  2 0.12500000E+03</rscale>
<asrwt>0</asrwt>
<pdfrwt beam="1">  1       21 0.26260695E-01 0.12500000E+03</pdfrwt>
<pdfrwt beam="2">  1       21 0.35206844E-02 0.12500000E+03</pdfrwt>
<totfact> 0.65626886E+06</totfact>
</mgrwt>
</event>
<event>
 3    0  0.1721800E+001  0.1250000E+03  0.7546771E-02  0.1235069E+00
         21   -1    0    0  502  501  0.00000000000E+00  0.00000000000E+00  0.84781831307E+02  0.84781831307E+02  0.00000000000E+00 0.  1.
         21   -1    0    0  501  502 -0.00000000000E+00 -0.00000000000E+00 -0.46074140412E+02  0.46074140412E+02  0.00000000000E+00 0.  1.
         25    1    1    2    0    0  0.00000000000E+00  0.00000000000E+00  0.38707690895E+02  0.13085597172E+03  0.12500000000E+03 0.  0.
<mgrwt>
<rscale>  2 0.12500000E+03</rscale>
<asrwt>0</asrwt>
<pdfrwt beam="1">  1       21 0.13043359E-01 0.12500000E+03</pdfrwt>
<pdfrwt beam="2">  1       21 0.70883293E-02 0.12500000E+03</pdfrwt>
<totfact> 0.73250087E+06</totfact>
</mgrwt>
</event>
<event>
 3    0  0.1490842E+001  0.1250000E+03  0.7546771E-02  0.1235069E+00
         21   -1    0    0  502  501  0.00000000000E+00  0.00000000000E+00  0.85046176071E+01  0.85046176071E+01  0.00000000000E+00 0.  1.
         21   -1    0    0  501  502 -0.00000000000E+00 -0.00000000000E+00 -0.45930930472E+03  0.45930930472E+03  0.00000000000E+00 0.  1.
         25    1    1    2    0    0  0.00000000000E+00  0.00000000000E+00 -0.45080468711E+03  0.46781392232E+03  0.12500000000E+03 0.  0.
<mgrwt>
<rscale>  2 0.12500000E+03</rscale>
<asrwt>0</asrwt>
<pdfrwt beam="1">  1       21 0.13084026E-02 0.12500000E+03</pdfrwt>
<pdfrwt beam="2">  1       21 0.70662974E-01 0.12500000E+03</pdfrwt>
<totfact> 0.43845160E+06</totfact>
</mgrwt>
</event>
<event>
 3    0  0.1517772E+001  0.1250000E+03  0.7546771E-02  0.1235069E+00
         21   -1    0    0  502  501  0.00000000000E+00  0.00000000000E+00  0.34688939068E+03  0.34688939068E+03  0.00000000000E+00 0. -1.
         21   -1    0    0  501  502 -0.00000000000E+00 -0.00000000000E+00 -0.11260794089E+02  0.11260794089E+02  0.00000000000E+00 0. -1.
         25    1    1    2    0    0  0.00000000000E+00  0.00000000000E+00  0.33562859659E+03  0.35815018476E+03  0.12500000000E+03 0.  0.
<mgrwt>
<rscale>  2 0.12500000E+03</rscale>
<asrwt>0</asrwt>
<pdfrwt beam="1">  1       21 0.53367590E-01 0.12500000E+03</pdfrwt>
<pdfrwt beam="2">  1       21 0.17324301E-02 0.12500000E+03</pdfrwt>
<totfact> 0.50942097E+06</totfact>
</mgrwt>
</event>
<event>
 3    0  0.1637530E+001  0.1250000E+03  0.7546771E-02  0.1235069E+00
         21   -1    0    0  502  501  0.00000000000E+00  0.00000000000E+00  0.19645100715E+02  0.19645100715E+02  0.00000000000E+00 0. -1.
         21   -1    0    0  501  502 -0.00000000000E+00 -0.00000000000E+00 -0.19884092511E+03  0.19884092511E+03  0.00000000000E+00 0. -1.
         25    1    1    2    0    0  0.00000000000E+00  0.00000000000E+00 -0.17919582439E+03  0.21848602582E+03  0.12500000000E+03 0.  0.
<mgrwt>
<rscale>  2 0.12500000E+03</rscale>
<asrwt>0</asrwt>
<pdfrwt beam="1">  1       21 0.30223232E-02 0.12500000E+03</pdfrwt>
<pdfrwt beam="2">  1       21 0.30590912E-01 0.12500000E+03</pdfrwt>
<totfact> 0.62977619E+06</totfact>
</mgrwt>
</event>
<event>
 3    0  0.1701340E+001  0.1250000E+03  0.7546771E-02  0.1235069E+00
         21   -1    0    0  502  501  0.00000000000E+00  0.00000000000E+00  0.66497665212E+02  0.66497665212E+02  0.00000000000E+00 0. -1.
         21   -1    0    0  501  502 -0.00000000000E+00 -0.00000000000E+00 -0.58742663935E+02  0.58742663935E+02  0.00000000000E+00 0. -1.
         25    1    1    2    0    0  0.00000000000E+00  0.00000000000E+00  0.77550012778E+01  0.12524032915E+03  0.12500000000E+03 0.  0.
<mgrwt>
<rscale>  2 0.12500000E+03</rscale>
<asrwt>0</asrwt>
<pdfrwt beam="1">  1       21 0.10230410E-01 0.12500000E+03</pdfrwt>
<pdfrwt beam="2">  1       21 0.90373329E-02 0.12500000E+03</pdfrwt>
<totfact> 0.74011127E+06</totfact>
</mgrwt>
</event>
<event>
 3    0  0.1724937E+001  0.1250000E+03  0.7546771E-02  0.1235069E+00
         21   -1    0    0  502  501  0.00000000000E+00  0.00000000000E+00  0.72996029728E+02  0.72996029728E+02  0.00000000000E+00 0.  1.
         21   -1    0    0  501  502 -0.00000000000E+00 -0.00000000000E+00 -0.53513184409E+02  0.53513184409E+02  0.00000000000E+00 0.  1.
         25    1    1    2    0    0  0.00000000000E+00  0.00000000000E+00  0.19482845319E+02  0.12650921414E+03  0.12500000000E+03 0.  0.
<mgrwt>
<rscale>  2 0.12500000E+03</rscale>
<asrwt>0</asrwt>
<pdfrwt beam="1">  1       21 0.11230158E-01 0.12500000E+03</pdfrwt>
<pdfrwt beam="2">  1       21 0.82327976E-02 0.12500000E+03</pdfrwt>
<totfact> 0.73836112E+06</totfact>
</mgrwt>
</event>
<event>
 3    0  0.1683630E+001  0.1250000E+03  0.7546771E-02  0.1235069E+00
         21   -1    0    0  502  501  0.00000000000E+00  0.00000000000E+00  0.37540235962E+02  0.37540235962E+02  0.00000000000E+00 0. -1.
         21   -1    0    0  501  502 -0.00000000000E+00 -0.00000000000E+00 -0.10405501990E+03  0.10405501990E+03  0.00000000000E+00 0. -1.
         25    1    1    2    0    0  0.00000000000E+00  0.00000000000E+00 -0.66514783935E+02  0.14159525586E+03  0.12500000000E+03 0.  0.
<mgrwt>
<rscale>  2 0.12500000E+03</rscale>
<asrwt>0</asrwt>
<pdfrwt beam="1">  1       21 0.57754211E-02 0.12500000E+03</pdfrwt>
<pdfrwt beam="2">  1       21 0.16008464E-01 0.12500000E+03</pdfrwt>
<totfact> 0.71831730E+06</totfact>
</mgrwt>
</event>
<event>
 3    0  0.1502796E+001  0.1250000E+03  0.7546771E-02  0.1235069E+00
         21   -1    0    0  502  501  0.00000000000E+00  0.00000000000E+00  0.37796180134E+03  0.37796180134E+03  0.00000000000E+00 0. -1.
         21   -1    0    0  501  502 -0.00000000000E+00 -0.00000000000E+00 -0.10335039113E+02  0.10335039113E+02  0.00000000000E+00 0. -1.
         25    1    1    2    0    0  0.00000000000E+00  0.00000000000E+00  0.36762676222E+03  0.38829684045E+03  0.12500000000E+03 0.  0.
<mgrwt>
<rscale>  2 0.12500000E+03</rscale>
<asrwt>0</asrwt>
<pdfrwt beam="1">  1       21 0.58147959E-01 0.12500000E+03</pdfrwt>
<pdfrwt beam="2">  1       21 0.15900063E-02 0.12500000E+03</pdfrwt>
<totfact> 0.48827425E+06</totfact>
</mgrwt>
</event>
<event>
 3    0  0.1690392E+001  0.1250000E+03  0.7546771E-02  0.1235069E+00
         21   -1    0    0  502  501  0.00000000000E+00  0.00000000000E+00  0.38860009847E+02  0.38860009847E+02  0.00000000000E+00 0. -1.
         21   -1    0    0  501  502 -0.00000000000E+00 -0.00000000000E+00 -0.10052107592E+03  0.10052107592E+03  0.00000000000E+00 0. -1.
         25    1    1    2    0    0  0.00000000000E+00  0.00000000000E+00 -0.61661066072E+02  0.13938108577E+03  0.12500000000E+03 0.  0.
<mgrwt>
<rscale>  2 0.12500000E+03</rscale>
<asrwt>0</asrwt>
<pdfrwt beam="1">  1       21 0.59784631E-02 0.12500000E+03</pdfrwt>
<pdfrwt beam="2">  1       21 0.15464781E-01 0.12500000E+03</pdfrwt>
<totfact> 0.72120209E+06</totfact>
</mgrwt>
</event>
<event>
 3    0  0.1691956E+001  0.1250000E+03  0.7546771E-02  0.1235069E+00
         21   -1    0    0  502  501  0.00000000000E+00  0.00000000000E+00  0.97071432277E+02  0.97071432277E+02  0.00000000000E+00 0. -1.
         21   -1    0    0  501  502 -0.00000000000E+00 -0.00000000000E+00 -0.40240984483E+02  0.40240984483E+02  0.00000000000E+00 0. -1.
         25    1    1    2    0    0  0.00000000000E+00  0.00000000000E+00  0.56830447794E+02  0.13731241676E+03  0.12500000000E+03 0.  0.
<mgrwt>
<rscale>  2 0.12500000E+03</rscale>
<asrwt>0</asrwt>
<pdfrwt beam="1">  1       21 0.14934066E-01 0.12500000E+03</pdfrwt>
<pdfrwt beam="2">  1       21 0.61909207E-02 0.12500000E+03</pdfrwt>
<totfact> 0.72391716E+06</totfact>
</mgrwt>
</event>
<event>
 3    0  0.1725099E+001  0.1250000E+03  0.7546771E-02  0.1235069E+00
         21   -1    0    0  502  501  0.00000000000E+00  0.00000000000E+00  0.72803890467E+02  0.72803890467E+02  0.00000000000E+00 0.  1.
         21   -1    0    0  501  502 -0.00000000000E+00 -0.00000000000E+00 -0.53654412902E+02  0.53654412902E+02  0.00000000000E+00 0.  1.
         25    1    1    2    0    0  0.00000000000E+00  0.00000000000E+00  0.19149477565E+02  0.12645830337E+03  0.12500000000E+03 0.  0.
<mgrwt>
<rscale>  2 0.12500000E+03</rscale>
<asrwt>0</asrwt>
<pdfrwt beam="1">  1       21 0.11200599E-01 0.12500000E+03</pdfrwt>
<pdfrwt beam="2">  1       21 0.82545251E-02 0.12500000E+03</pdfrwt>
<totfact> 0.73843081E+06</totfact>
</mgrwt>
</event>
<event>
 3    0  0.1670096E+001  0.1250000E+03  0.7546771E-02  0.1235069E+00
         21   -1    0    0  502  501  0.00000000000E+00  0.00000000000E+00  0.12792321632E+03  0.12792321632E+03  0.00000000000E+00 0. -1.
         21   -1    0    0  501  502 -0.00000000000E+00 -0.00000000000E+00 -0.30535895768E+02  0.30535895768E+02  0.00000000000E+00 0. -1.
         25    1    1    2    0    0  0.00000000000E+00  0.00000000000E+00  0.97387320556E+02  0.15845911209E+03  0.12500000000E+03 0.  0.
<mgrwt>
<rscale>  2 0.12500000E+03</rscale>
<asrwt>0</asrwt>
<pdfrwt beam="1">  1       21 0.19680494E-01 0.12500000E+03</pdfrwt>
<pdfrwt beam="2">  1       21 0.46978302E-02 0.12500000E+03</pdfrwt>
<totfact> 0.69708268E+06</totfact>
</mgrwt>
</event>
<event>
 3    0  0.1542041E+001  0.1250000E+03  0.7546771E-02  0.1235069E+00
         21   -1    0    0  502  501  0.00000000000E+00  0.00000000000E+00  0.12038856748E+02  0.12038856748E+02  0.00000000000E+00 0. -1.
         21   -1    0    0  501  502 -0.00000000000E+00 -0.00000000000E+00 -0.32447017868E+03  0.32447017868E+03  0.00000000000E+00 0. -1.
         25    1    1    2    0    0  0.00000000000E+00  0.00000000000E+00 -0.31243132193E+03  0.33650903543E+03  0.12500000000E+03 0.  0.
<mgrwt>
<rscale>  2 0.12500000E+03</rscale>
<asrwt>0</asrwt>
<pdfrwt beam="1">  1       21 0.18521319E-02 0.12500000E+03</pdfrwt>
<pdfrwt beam="2">  1       21 0.49918486E-01 0.12500000E+03</pdfrwt>
<totfact> 0.52550479E+06</totfact>
</mgrwt>
</event>
<event>
 3    0  0.1723915E+001  0.1250000E+03  0.7546771E-02  0.1235069E+00
         21   -1    0    0  502  501  0.00000000000E+00  0.00000000000E+00  0.54711355826E+02  0.54711355826E+02  0.00000000000E+00 0.  1.
         21   -1    0    0  501  502 -0.00000000000E+00 -0.00000000000E+00 -0.71397426385E+02  0.71397426385E+02  0.00000000000E+00 0.  1.
         25    1    1    2    0    0  0.00000000000E+00  0.00000000000E+00 -0.16686070558E+02  0.12610878221E+03  0.12500000000E+03 0.  0.
<mgrwt>
<rscale>  2 0.12500000E+03</rscale>
<asrwt>0</asrwt>
<pdfrwt beam="1">  1       21 0.84171316E-02 0.12500000E+03</pdfrwt>
<pdfrwt beam="2">  1       21 0.10984219E-01 0.12500000E+03</pdfrwt>
<totfact> 0.73891054E+06</totfact>
</mgrwt>
</event>
<event>
 3    0  0.1720960E+001  0.1250000E+03  0.7546771E-02  0.1235069E+00
         21   -1    0    0  502  501  0.00000000000E+00  0.00000000000E+00  0.85357500633E+02  0.85357500633E+02  0.00000000000E+00 0.  1.
         21   -1    0    0  501  502 -0.00000000000E+00 -0.00000000000E+00 -0.45763406508E+02  0.45763406508E+02  0.00000000000E+00 0.  1.
         25    1    1    2    0    0  0.00000000000E+00  0.00000000000E+00  0.39594094125E+02  0.13112090714E+03  0.12500000000E+03 0.  0.
<mgrwt>
<rscale>  2 0.12500000E+03</rscale>
<asrwt>0</asrwt>
<pdfrwt beam="1">  1       21 0.13131923E-01 0.12500000E+03</pdfrwt>
<pdfrwt beam="2">  1       21 0.70405241E-02 0.12500000E+03</pdfrwt>
<totfact> 0.73214383E+06</totfact>
</mgrwt>
</event>
<event>
 3    0  0.1591220E+001  0.1250000E+03  0.7546771E-02  0.1235069E+00
         21   -1    0    0  502  501  0.00000000000E+00  0.00000000000E+00  0.24732504330E+03  0.24732504330E+03  0.00000000000E+00 0. -1.
         21   -1    0    0  501  502 -0.00000000000E+00 -0.00000000000E+00 -0.15793992989E+02  0.15793992989E+02  0.00000000000E+00 0. -1.
         25    1    1    2    0    0  0.00000000000E+00  0.00000000000E+00  0.23153105032E+03  0.26311903629E+03  0.12500000000E+03 0.  0.
<mgrwt>
<rscale>  2 0.12500000E+03</rscale>
<asrwt>0</asrwt>
<pdfrwt beam="1">  1       21 0.38050004E-01 0.12500000E+03</pdfrwt>
<pdfrwt beam="2">  1       21 0.24298453E-02 0.12500000E+03</pdfrwt>
<totfact> 0.58664570E+06</totfact>
</mgrwt>
</event>
<event>
 3    0  0.1663768E+001  0.1250000E+03  0.7546771E-02  0.1235069E+00
         21   -1    0    0  502  501  0.00000000000E+00  0.00000000000E+00  0.16456403178E+03  0.16456403178E+03  0.00000000000E+00 0. -1.
         21   -1    0    0  501  502 -0.00000000000E+00 -0.00000000000E+00 -0.23736960974E+02  0.23736960974E+02  0.00000000000E+00 0. -1.
         25    1    1    2    0    0  0.00000000000E+00  0.00000000000E+00  0.14082707081E+03  0.18830099275E+03  0.12500000000E+03 0.  0.
<mgrwt>
<rscale>  2 0.12500000E+03</rscale>
<asrwt>0</asrwt>
<pdfrwt beam="1">  1       21 0.25317543E-01 0.12500000E+03</pdfrwt>
<pdfrwt beam="2">  1       21 0.36518403E-02 0.12500000E+03</pdfrwt>
<totfact> 0.66211792E+06</totfact>
</mgrwt>
</event>
<event>
 3    0  0.1599287E+001  0.1250000E+03  0.7546771E-02  0.1235069E+00
         21   -1    0    0  502  501  0.00000000000E+00  0.00000000000E+00  0.14635649464E+02  0.14635649464E+02  0.00000000000E+00 0.  1.
         21   -1    0    0  501  502 -0.00000000000E+00 -0.00000000000E+00 -0.26689966917E+03  0.26689966917E+03  0.00000000000E+00 0.  1.
         25    1    1    2    0    0  0.00000000000E+00  0.00000000000E+00 -0.25226401971E+03  0.28153531863E+03  0.12500000000E+03 0.  0.
<mgrwt>
<rscale>  2 0.12500000E+03</rscale>
<asrwt>0</asrwt>
<pdfrwt beam="1">  1       21 0.22516384E-02 0.12500000E+03</pdfrwt>
<pdfrwt beam="2">  1       21 0.41061486E-01 0.12500000E+03</pdfrwt>
<totfact> 0.57026441E+06</totfact>
</mgrwt>
</event>
<event>
 3    0  0.1498225E+001  0.1250000E+03  0.7546771E-02  0.1235069E+00
         21   -1    0    0  502  501  0.00000000000E+00  0.00000000000E+00  0.41736665891E+03  0.41736665891E+03  0.00000000000E+00 0. -1.
         21   -1    0    0  501  502 -0.00000000000E+00 -0.00000000000E+00 -0.93592765896E+01  0.93592765896E+01  0.00000000000E+00 0. -1.
         25    1    1    2    0    0  0.00000000000E+00  0.00000000000E+00  0.40800738232E+03  0.42672593550E+03  0.12500000000E+03 0.  0.
<mgrwt>
<rscale>  2 0.12500000E+03</rscale>
<asrwt>0</asrwt>
<pdfrwt beam="1">  1       21 0.64210241E-01 0.12500000E+03</pdfrwt>
<pdfrwt beam="2">  1       21 0.14398890E-02 0.12500000E+03</pdfrwt>
<totfact> 0.46317744E+06</totfact>
</mgrwt>
</event>
<event>
 3    0  0.1646960E+001  0.1250000E+03  0.7546771E-02  0.1235069E+00
         21   -1    0    0  502  501  0.00000000000E+00  0.00000000000E+00  0.17157740671E+03  0.17157740671E+03  0.00000000000E+00 0. -1.
         21   -1    0    0  501  502 -0.00000000000E+00 -0.00000000000E+00 -0.22766692158E+02  0.22766692158E+02  0.00000000000E+00 0. -1.
         25    1    1    2    0    0  0.00000000000E+00  0.00000000000E+00  0.14881071456E+03  0.19434409887E+03  0.12500000000E+03 0.  0.
<mgrwt>
<rscale>  2 0.12500000E+03</rscale>
<asrwt>0</asrwt>
<pdfrwt beam="1">  1       21 0.26396523E-01 0.12500000E+03</pdfrwt>
<pdfrwt beam="2">  1       21 0.35025681E-02 0.12500000E+03</pdfrwt>
<totfact> 0.65542881E+06</totfact>
</mgrwt>
</event>
<event>
 3    0  0.1719601E+001  0.1250000E+03  0.7546771E-02  0.1235069E+00
         21   -1    0    0  502  501  0.00000000000E+00  0.00000000000E+00  0.45502364012E+02  0.45502364012E+02  0.00000000000E+00 0.  1.
         21   -1    0    0  501  502 -0.00000000000E+00 -0.00000000000E+00 -0.85847188049E+02  0.85847188049E+02  0.00000000000E+00 0.  1.
         25    1    1    2    0    0  0.00000000000E+00  0.00000000000E+00 -0.40344824038E+02  0.13134955206E+03  0.12500000000E+03 0.  0.
<mgrwt>
<rscale>  2 0.12500000E+03</rscale>
<asrwt>0</asrwt>
<pdfrwt beam="1">  1       21 0.70003638E-02 0.12500000E+03</pdfrwt>
<pdfrwt beam="2">  1       21 0.13207260E-01 0.12500000E+03</pdfrwt>
<totfact> 0.73183605E+06</totfact>
</mgrwt>
</event>
<event>
 3    0  0.1369092E+001  0.1250000E+03  0.7546771E-02  0.1235069E+00
         21   -1    0    0  502  501  0.00000000000E+00  0.00000000000E+00  0.52024155022E+01  0.52024155022E+01  0.00000000000E+00 0.  1.
         21   -1    0    0  501  502 -0.00000000000E+00 -0.00000000000E+00 -0.75085313703E+03  0.75085313703E+03  0.00000000000E+00 0.  1.
         25    1    1    2    0    0  0.00000000000E+00  0.00000000000E+00 -0.74565072153E+03  0.75605555254E+03  0.12500000000E+03 0.  0.
<mgrwt>
<rscale>  2 0.12500000E+03</rscale>
<asrwt>0</asrwt>
<pdfrwt beam="1">  1       21 0.80037188E-03 0.12500000E+03</pdfrwt>
<pdfrwt beam="2">  1       21 0.11551583E+00 0.12500000E+03</pdfrwt>
<totfact> 0.30857024E+06</totfact>
</mgrwt>
</event>
<event>
 3    0  0.1368989E+001  0.1250000E+03  0.7546771E-02  0.1235069E+00
         21   -1    0    0  502  501  0.00000000000E+00  0.00000000000E+00  0.77373221782E+03  0.77373221782E+03  0.00000000000E+00 0.  1.
         21   -1    0    0  501  502 -0.00000000000E+00 -0.00000000000E+00 -0.50485812921E+01  0.50485812921E+01  0.00000000000E+00 0.  1.
         25    1    1    2    0    0  0.00000000000E+00  0.00000000000E+00  0.76868363653E+03  0.77878079911E+03  0.12500000000E+03 0.  0.
<mgrwt>
<rscale>  2 0.12500000E+03</rscale>
<asrwt>0</asrwt>
<pdfrwt beam="1">  1       21 0.11903563E+00 0.12500000E+03</pdfrwt>
<pdfrwt beam="2">  1       21 0.77670543E-03 0.12500000E+03</pdfrwt>
<totfact> 0.30078020E+06</totfact>
</mgrwt>
</event>
<event>
 3    0  0.1697216E+001  0.1250000E+03  0.7546771E-02  0.1235069E+00
         21   -1    0    0  502  501  0.00000000000E+00  0.00000000000E+00  0.12338255085E+03  0.12338255085E+03  0.00000000000E+00 0.  1.
         21   -1    0    0  501  502 -0.00000000000E+00 -0.00000000000E+00 -0.31659663163E+02  0.31659663163E+02  0.00000000000E+00 0.  1.
         25    1    1    2    0    0  0.00000000000E+00  0.00000000000E+00  0.91722887685E+02  0.15504221401E+03  0.12500000000E+03 0.  0.
<mgrwt>
<rscale>  2 0.12500000E+03</rscale>
<asrwt>0</asrwt>
<pdfrwt beam="1">  1       21 0.18981931E-01 0.12500000E+03</pdfrwt>
<pdfrwt beam="2">  1       21 0.48707175E-02 0.12500000E+03</pdfrwt>
<totfact> 0.70130413E+06</totfact>
</mgrwt>
</event>
<event>
 3    0  0.1576308E+001  0.1250000E+03  0.7546771E-02  0.1235069E+00
         21   -1    0    0  502  501  0.00000000000E+00  0.00000000000E+00  0.12982966134E+02  0.12982966134E+02  0.00000000000E+00 0.  1.
         21   -1    0    0  501  502 -0.00000000000E+00 -0.00000000000E+00 -0.30087500497E+03  0.30087500497E+03  0.00000000000E+00 0.  1.
         25    1    1    2    0    0  0.00000000000E+00  0.00000000000E+00 -0.28789203884E+03  0.31385797111E+03  0.12500000000E+03 0.  0.
<mgrwt>
<rscale>  2 0.12500000E+03</rscale>
<asrwt>0</asrwt>
<pdfrwt beam="1">  1       21 0.19973795E-02 0.12500000E+03</pdfrwt>
<pdfrwt beam="2">  1       21 0.46288460E-01 0.12500000E+03</pdfrwt>
<totfact> 0.54323685E+06</totfact>
</mgrwt>
</event>
<event>
 3    0  0.1693448E+001  0.1250000E+03  0.7546771E-02  0.1235069E+00
         21   -1    0    0  502  501  0.00000000000E+00  0.00000000000E+00  0.13378684622E+03  0.13378684622E+03  0.00000000000E+00 0.  1.
         21   -1    0    0  501  502 -0.00000000000E+00 -0.00000000000E+00 -0.29197563964E+02  0.29197563964E+02  0.00000000000E+00 0.  1.
         25    1    1    2    0    0  0.00000000000E+00  0.00000000000E+00  0.10458928225E+03  0.16298441018E+03  0.12500000000E+03 0.  0.
<mgrwt>
<rscale>  2 0.12500000E+03</rscale>
<asrwt>0</asrwt>
<pdfrwt beam="1">  1       21 0.20582591E-01 0.12500000E+03</pdfrwt>
<pdfrwt beam="2">  1       21 0.44919330E-02 0.12500000E+03</pdfrwt>
<totfact> 0.69156660E+06</totfact>
</mgrwt>
</event>
<event>
 3    0  0.1690384E+001  0.1250000E+03  0.7546771E-02  0.1235069E+00
         21   -1    0    0  502  501  0.00000000000E+00  0.00000000000E+00  0.38858309250E+02  0.38858309250E+02  0.00000000000E+00 0. -1.
         21   -1    0    0  501  502 -0.00000000000E+00 -0.00000000000E+00 -0.10052547513E+03  0.10052547513E+03  0.00000000000E+00 0. -1.
         25    1    1    2    0    0  0.00000000000E+00  0.00000000000E+00 -0.61667165877E+02  0.13938378438E+03  0.12500000000E+03 0.  0.
<mgrwt>
<rscale>  2 0.12500000E+03</rscale>
<asrwt>0</asrwt>
<pdfrwt beam="1">  1       21 0.59782015E-02 0.12500000E+03</pdfrwt>
<pdfrwt beam="2">  1       21 0.15465458E-01 0.12500000E+03</pdfrwt>
<totfact> 0.72119856E+06</totfact>
</mgrwt>
</event>
<event>
 3    0  0.1726194E+001  0.1250000E+03  0.7546771E-02  0.1235069E+00
         21   -1    0    0  502  501  0.00000000000E+00  0.00000000000E+00  0.57668637746E+02  0.57668637746E+02  0.00000000000E+00 0.  1.
         21   -1    0    0  501  502 -0.00000000000E+00 -0.00000000000E+00 -0.67736124047E+02  0.67736124047E+02  0.00000000000E+00 0.  1.
         25    1    1    2    0    0  0.00000000000E+00  0.00000000000E+00 -0.10067486302E+02  0.12540476179E+03  0.12500000000E+03 0.  0.
<mgrwt>
<rscale>  2 0.12500000E+03</rscale>
<asrwt>0</asrwt>
<pdfrwt beam="1">  1       21 0.88720981E-02 0.12500000E+03</pdfrwt>
<pdfrwt beam="2">  1       21 0.10420942E-01 0.12500000E+03</pdfrwt>
<totfact> 0.73988743E+06</totfact>
</mgrwt>
</event>
<event>
 3    0  0.1568749E+001  0.1250000E+03  0.7546771E-02  0.1235069E+00
         21   -1    0    0  502  501  0.00000000000E+00  0.00000000000E+00  0.33337076314E+03  0.33337076314E+03  0.00000000000E+00 0.  1.
         21   -1    0    0  501  502 -0.00000000000E+00 -0.00000000000E+00 -0.11717434256E+02  0.11717434256E+02  0.00000000000E+00 0.  1.
         25    1    1    2    0    0  0.00000000000E+00  0.00000000000E+00  0.32165332888E+03  0.34508819739E+03  0.12500000000E+03 0.  0.
<mgrwt>
<rscale>  2 0.12500000E+03</rscale>
<asrwt>0</asrwt>
<pdfrwt beam="1">  1       21 0.51287802E-01 0.12500000E+03</pdfrwt>
<pdfrwt beam="2">  1       21 0.18026824E-02 0.12500000E+03</pdfrwt>
<totfact> 0.51903243E+06</totfact>
</mgrwt>
</event>
<event>
 3    0  0.1508744E+001  0.1250000E+03  0.7546771E-02  0.1235069E+00
         21   -1    0    0  502  501  0.00000000000E+00  0.00000000000E+00  0.99527539574E+01  0.99527539574E+01  0.00000000000E+00 0. -1.
         21   -1    0    0  501  502 -0.00000000000E+00 -0.00000000000E+00 -0.39247930942E+03  0.39247930942E+03  0.00000000000E+00 0. -1.
         25    1    1    2    0    0  0.00000000000E+00  0.00000000000E+00 -0.38252655546E+03  0.40243206337E+03  0.12500000000E+03 0.  0.
<mgrwt>
<rscale>  2 0.12500000E+03</rscale>
<asrwt>0</asrwt>
<pdfrwt beam="1">  1       21 0.15311933E-02 0.12500000E+03</pdfrwt>
<pdfrwt beam="2">  1       21 0.60381416E-01 0.12500000E+03</pdfrwt>
<totfact> 0.47880459E+06</totfact>
</mgrwt>
</event>
<event>
 3    0  0.1724137E+001  0.1250000E+03  0.7546771E-02  0.1235069E+00
         21   -1    0    0  502  501  0.00000000000E+00  0.00000000000E+00  0.50447166556E+02  0.50447166556E+02  0.00000000000E+00 0.  1.
         21   -1    0    0  501  502 -0.00000000000E+00 -0.00000000000E+00 -0.77432495552E+02  0.77432495552E+02  0.00000000000E+00 0.  1.
         25    1    1    2    0    0  0.00000000000E+00  0.00000000000E+00 -0.26985328996E+02  0.12787966211E+03  0.12500000000E+03 0.  0.
<mgrwt>
<rscale>  2 0.12500000E+03</rscale>
<asrwt>0</asrwt>
<pdfrwt beam="1">  1       21 0.77611026E-02 0.12500000E+03</pdfrwt>
<pdfrwt beam="2">  1       21 0.11912692E-01 0.12500000E+03</pdfrwt>
<totfact> 0.73649822E+06</totfact>
</mgrwt>
</event>
<event>
 3    0  0.1551611E+001  0.1250000E+03  0.7546771E-02  0.1235069E+00
         21   -1    0    0  502  501  0.00000000000E+00  0.00000000000E+00  0.38141912823E+03  0.38141912823E+03  0.00000000000E+00 0.  1.
         21   -1    0    0  501  502 -0.00000000000E+00 -0.00000000000E+00 -0.10241358419E+02  0.10241358419E+02  0.00000000000E+00 0.  1.
         25    1    1    2    0    0  0.00000000000E+00  0.00000000000E+00  0.37117776981E+03  0.39166048665E+03  0.12500000000E+03 0.  0.
<mgrwt>
<rscale>  2 0.12500000E+03</rscale>
<asrwt>0</asrwt>
<pdfrwt beam="1">  1       21 0.58679855E-01 0.12500000E+03</pdfrwt>
<pdfrwt beam="2">  1       21 0.15755939E-02 0.12500000E+03</pdfrwt>
<totfact> 0.48599470E+06</totfact>
</mgrwt>
</event>
<event>
 3    0  0.1708835E+001  0.1250000E+03  0.7546771E-02  0.1235069E+00
         21   -1    0    0  502  501  0.00000000000E+00  0.00000000000E+00  0.10376759931E+03  0.10376759931E+03  0.00000000000E+00 0.  1.
         21   -1    0    0  501  502 -0.00000000000E+00 -0.00000000000E+00 -0.37644216748E+02  0.37644216748E+02  0.00000000000E+00 0.  1.
         25    1    1    2    0    0  0.00000000000E+00  0.00000000000E+00  0.66123382565E+02  0.14141181606E+03  0.12500000000E+03 0.  0.
<mgrwt>
<rscale>  2 0.12500000E+03</rscale>
<asrwt>0</asrwt>
<pdfrwt beam="1">  1       21 0.15964246E-01 0.12500000E+03</pdfrwt>
<pdfrwt beam="2">  1       21 0.57914180E-02 0.12500000E+03</pdfrwt>
<totfact> 0.71855531E+06</totfact>
</mgrwt>
</event>
<event>
 3    0  0.1492870E+001  0.1250000E+03  0.7546771E-02  0.1235069E+00
         21   -1    0    0  502  501  0.00000000000E+00  0.00000000000E+00  0.85241281623E+01  0.85241281623E+01  0.00000000000E+00 0.  1.
         21   -1    0    0  501  502 -0.00000000000E+00 -0.00000000000E+00 -0.45825800899E+03  0.45825800899E+03  0.00000000000E+00 0.  1.
         25    1    1    2    0    0  0.00000000000E+00  0.00000000000E+00 -0.44973388083E+03  0.46678213715E+03  0.12500000000E+03 0.  0.
<mgrwt>
<rscale>  2 0.12500000E+03</rscale>
<asrwt>0</asrwt>
<pdfrwt beam="1">  1       21 0.13114043E-02 0.12500000E+03</pdfrwt>
<pdfrwt beam="2">  1       21 0.70501236E-01 0.12500000E+03</pdfrwt>
<totfact> 0.43904798E+06</totfact>
</mgrwt>
</event>
<event>
 3    0  0.1641585E+001  0.1250000E+03  0.7546771E-02  0.1235069E+00
         21   -1    0    0  502  501  0.00000000000E+00  0.00000000000E+00  0.23865929624E+02  0.23865929624E+02  0.00000000000E+00 0. -1.
         21   -1    0    0  501  502 -0.00000000000E+00 -0.00000000000E+00 -0.16367474729E+03  0.16367474729E+03  0.00000000000E+00 0. -1.
         25    1    1    2    0    0  0.00000000000E+00  0.00000000000E+00 -0.13980881766E+03  0.18754067691E+03  0.12500000000E+03 0.  0.
<mgrwt>
<rscale>  2 0.12500000E+03</rscale>
<asrwt>0</asrwt>
<pdfrwt beam="1">  1       21 0.36716815E-02 0.12500000E+03</pdfrwt>
<pdfrwt beam="2">  1       21 0.25180731E-01 0.12500000E+03</pdfrwt>
<totfact> 0.66296843E+06</totfact>
</mgrwt>
</event>
<event>
 3    0  0.1556248E+001  0.1250000E+03  0.7546771E-02  0.1235069E+00
         21   -1    0    0  502  501  0.00000000000E+00  0.00000000000E+00  0.37921338933E+03  0.37921338933E+03  0.00000000000E+00 0.  1.
         21   -1    0    0  501  502 -0.00000000000E+00 -0.00000000000E+00 -0.10300928474E+02  0.10300928474E+02  0.00000000000E+00 0.  1.
         25    1    1    2    0    0  0.00000000000E+00  0.00000000000E+00  0.36891246086E+03  0.38951431780E+03  0.12500000000E+03 0.  0.
<mgrwt>
<rscale>  2 0.12500000E+03</rscale>
<asrwt>0</asrwt>
<pdfrwt beam="1">  1       21 0.58340511E-01 0.12500000E+03</pdfrwt>
<pdfrwt beam="2">  1       21 0.15847585E-02 0.12500000E+03</pdfrwt>
<totfact> 0.48744725E+06</totfact>
</mgrwt>
</event>
<event>
 3    0  0.1519212E+001  0.1250000E+03  0.7546771E-02  0.1235069E+00
         21   -1    0    0  502  501  0.00000000000E+00  0.00000000000E+00  0.10551885235E+02  0.10551885235E+02  0.00000000000E+00 0. -1.
         21   -1    0    0  501  502 -0.00000000000E+00 -0.00000000000E+00 -0.37019451151E+03  0.37019451151E+03  0.00000000000E+00 0. -1.
         25    1    1    2    0    0  0.00000000000E+00  0.00000000000E+00 -0.35964262628E+03  0.38074639675E+03  0.12500000000E+03 0.  0.
<mgrwt>
<rscale>  2 0.12500000E+03</rscale>
<asrwt>0</asrwt>
<pdfrwt beam="1">  1       21 0.16233668E-02 0.12500000E+03</pdfrwt>
<pdfrwt beam="2">  1       21 0.56953007E-01 0.12500000E+03</pdfrwt>
<totfact> 0.49344841E+06</totfact>
</mgrwt>
</event>
<event>
 3    0  0.1660411E+001  0.1250000E+03  0.7546771E-02  0.1235069E+00
         21   -1    0    0  502  501  0.00000000000E+00  0.00000000000E+00  0.16596187163E+03  0.16596187163E+03  0.00000000000E+00 0. -1.
         21   -1    0    0  501  502 -0.00000000000E+00 -0.00000000000E+00 -0.23537032703E+02  0.23537032703E+02  0.00000000000E+00 0. -1.
         25    1    1    2    0    0  0.00000000000E+00  0.00000000000E+00  0.14242483893E+03  0.18949890433E+03  0.12500000000E+03 0.  0.
<mgrwt>
<rscale>  2 0.12500000E+03</rscale>
<asrwt>0</asrwt>
<pdfrwt beam="1">  1       21 0.25532595E-01 0.12500000E+03</pdfrwt>
<pdfrwt beam="2">  1       21 0.36210821E-02 0.12500000E+03</pdfrwt>
<totfact> 0.66078199E+06</totfact>
</mgrwt>
</event>
<event>
 3    0  0.1662028E+001  0.1250000E+03  0.7546771E-02  0.1235069E+00
         21   -1    0    0  502  501  0.00000000000E+00  0.00000000000E+00  0.19679192504E+02  0.19679192504E+02  0.00000000000E+00 0.  1.
         21   -1    0    0  501  502 -0.00000000000E+00 -0.00000000000E+00 -0.19849645757E+03  0.19849645757E+03  0.00000000000E+00 0.  1.
         25    1    1    2    0    0  0.00000000000E+00  0.00000000000E+00 -0.17881726507E+03  0.21817565008E+03  0.12500000000E+03 0.  0.
<mgrwt>
<rscale>  2 0.12500000E+03</rscale>
<asrwt>0</asrwt>
<pdfrwt beam="1">  1       21 0.30275681E-02 0.12500000E+03</pdfrwt>
<pdfrwt beam="2">  1       21 0.30537916E-01 0.12500000E+03</pdfrwt>
<totfact> 0.63009496E+06</totfact>
</mgrwt>
</event>
<event>
 3    0  0.1599510E+001  0.1250000E+03  0.7546771E-02  0.1235069E+00
         21   -1    0    0  502  501  0.00000000000E+00  0.00000000000E+00  0.23158199983E+03  0.23158199983E+03  0.00000000000E+00 0. -1.
         21   -1    0    0  501  502 -0.00000000000E+00 -0.00000000000E+00 -0.16867675393E+02  0.16867675393E+02  0.00000000000E+00 0. -1.
         25    1    1    2    0    0  0.00000000000E+00  0.00000000000E+00  0.21471432443E+03  0.24844967522E+03  0.12500000000E+03 0.  0.
<mgrwt>
<rscale>  2 0.12500000E+03</rscale>
<asrwt>0</asrwt>
<pdfrwt beam="1">  1       21 0.35627998E-01 0.12500000E+03</pdfrwt>
<pdfrwt beam="2">  1       21 0.25950272E-02 0.12500000E+03</pdfrwt>
<totfact> 0.60024459E+06</totfact>
</mgrwt>
</event>
<event>
 3    0  0.1633634E+001  0.1250000E+03  0.7546771E-02  0.1235069E+00
         21   -1    0    0  502  501  0.00000000000E+00  0.00000000000E+00  0.21326035549E+02  0.21326035549E+02  0.00000000000E+00 0. -1.
         21   -1    0    0  501  502 -0.00000000000E+00 -0.00000000000E+00 -0.18316812757E+03  0.18316812757E+03  0.00000000000E+00 0. -1.
         25    1    1    2    0    0  0.00000000000E+00  0.00000000000E+00 -0.16184209202E+03  0.20449416312E+03  0.12500000000E+03 0.  0.
<mgrwt>
<rscale>  2 0.12500000E+03</rscale>
<asrwt>0</asrwt>
<pdfrwt beam="1">  1       21 0.32809285E-02 0.12500000E+03</pdfrwt>
<pdfrwt beam="2">  1       21 0.28179713E-01 0.12500000E+03</pdfrwt>
<totfact> 0.64443508E+06</totfact>
</mgrwt>
</event>
<event>
 3    0  0.1536437E+001  0.1250000E+03  0.7546771E-02  0.1235069E+00
         21   -1    0    0  502  501  0.00000000000E+00  0.00000000000E+00  0.33803643913E+03  0.33803643913E+03  0.00000000000E+00 0. -1.
         21   -1    0    0  501  502 -0.00000000000E+00 -0.00000000000E+00 -0.11555706864E+02  0.11555706864E+02  0.00000000000E+00 0. -1.
         25    1    1    2    0    0  0.00000000000E+00  0.00000000000E+00  0.32648073227E+03  0.34959214600E+03  0.12500000000E+03 0.  0.
<mgrwt>
<rscale>  2 0.12500000E+03</rscale>
<asrwt>0</asrwt>
<pdfrwt beam="1">  1       21 0.52005599E-01 0.12500000E+03</pdfrwt>
<pdfrwt beam="2">  1       21 0.17778013E-02 0.12500000E+03</pdfrwt>
<totfact> 0.51568570E+06</totfact>
</mgrwt>
</event>
<event>
 3    0  0.1687567E+001  0.1250000E+03  0.7546771E-02  0.1235069E+00
         21   -1    0    0  502  501  0.00000000000E+00  0.00000000000E+00  0.34901735318E+02  0.34901735318E+02  0.00000000000E+00 0. -1.
         21   -1    0    0  501  502 -0.00000000000E+00 -0.00000000000E+00 -0.11192136908E+03  0.11192136908E+03  0.00000000000E+00 0. -1.
         25    1    1    2    0    0  0.00000000000E+00  0.00000000000E+00 -0.77019633758E+02  0.14682310440E+03  0.12500000000E+03 0.  0.
<mgrwt>
<rscale>  2 0.12500000E+03</rscale>
<asrwt>0</asrwt>
<pdfrwt beam="1">  1       21 0.53694977E-02 0.12500000E+03</pdfrwt>
<pdfrwt beam="2">  1       21 0.17218672E-01 0.12500000E+03</pdfrwt>
<totfact> 0.71160596E+06</totfact>
</mgrwt>
</event>
<event>
 3    0  0.1445763E+001  0.1250000E+03  0.7546771E-02  0.1235069E+00
         21   -1    0    0  502  501  0.00000000000E+00  0.00000000000E+00  0.54205370577E+03  0.54205370577E+03  0.00000000000E+00 0.  1.
         21   -1    0    0  501  502 -0.00000000000E+00 -0.00000000000E+00 -0.72063892533E+01  0.72063892533E+01  0.00000000000E+00 0.  1.
         25    1    1    2    0    0  0.00000000000E+00  0.00000000000E+00  0.53484731652E+03  0.54926009503E+03  0.12500000000E+03 0.  0.
<mgrwt>
<rscale>  2 0.12500000E+03</rscale>
<asrwt>0</asrwt>
<pdfrwt beam="1">  1       21 0.83392846E-01 0.12500000E+03</pdfrwt>
<pdfrwt beam="2">  1       21 0.11086757E-02 0.12500000E+03</pdfrwt>
<totfact> 0.39492670E+06</totfact>
</mgrwt>
</event>
<event>
 3    0  0.1368989E+001  0.1250000E+03  0.7546771E-02  0.1235069E+00
         21   -1    0    0  502  501  0.00000000000E+00  0.00000000000E+00  0.82305810210E+03  0.82305810210E+03  0.00000000000E+00 0.  1.
         21   -1    0    0  501  502 -0.00000000000E+00 -0.00000000000E+00 -0.47460197403E+01  0.47460197403E+01  0.00000000000E+00 0.  1.
         25    1    1    2    0    0  0.00000000000E+00  0.00000000000E+00  0.81831208236E+03  0.82780412184E+03  0.12500000000E+03 0.  0.
<mgrwt>
<rscale>  2 0.12500000E+03</rscale>
<asrwt>0</asrwt>
<pdfrwt beam="1">  1       21 0.12662421E+00 0.12500000E+03</pdfrwt>
<pdfrwt beam="2">  1       21 0.73015754E-03 0.12500000E+03</pdfrwt>
<totfact> 0.28462113E+06</totfact>
</mgrwt>
</event>
<event>
 3    0  0.1725087E+001  0.1250000E+03  0.7546771E-02  0.1235069E+00
         21   -1    0    0  502  501  0.00000000000E+00  0.00000000000E+00  0.69194425749E+02  0.69194425749E+02  0.00000000000E+00 0.  1.
         21   -1    0    0  501  502 -0.00000000000E+00 -0.00000000000E+00 -0.56453246887E+02  0.56453246887E+02  0.00000000000E+00 0.  1.
         25    1    1    2    0    0  0.00000000000E+00  0.00000000000E+00  0.12741178862E+02  0.12564767264E+03  0.12500000000E+03 0.  0.
<mgrwt>
<rscale>  2 0.12500000E+03</rscale>
<asrwt>0</asrwt>
<pdfrwt beam="1">  1       21 0.10645296E-01 0.12500000E+03</pdfrwt>
<pdfrwt beam="2">  1       21 0.86851150E-02 0.12500000E+03</pdfrwt>
<totfact> 0.73954808E+06</totfact>
</mgrwt>
</event>
<event>
 3    0  0.1693007E+001  0.1250000E+03  0.7546771E-02  0.1235069E+00
         21   -1    0    0  502  501  0.00000000000E+00  0.00000000000E+00  0.87673144829E+02  0.87673144829E+02  0.00000000000E+00 0. -1.
         21   -1    0    0  501  502 -0.00000000000E+00 -0.00000000000E+00 -0.44554692405E+02  0.44554692405E+02  0.00000000000E+00 0. -1.
         25    1    1    2    0    0  0.00000000000E+00  0.00000000000E+00  0.43118452424E+02  0.13222783723E+03  0.12500000000E+03 0.  0.
<mgrwt>
<rscale>  2 0.12500000E+03</rscale>
<asrwt>0</asrwt>
<pdfrwt beam="1">  1       21 0.13488176E-01 0.12500000E+03</pdfrwt>
<pdfrwt beam="2">  1       21 0.68545681E-02 0.12500000E+03</pdfrwt>
<totfact> 0.73065684E+06</totfact>
</mgrwt>
</event>
<event>
 3    0  0.1633394E+001  0.1250000E+03  0.7546771E-02  0.1235069E+00
         21   -1    0    0  502  501  0.00000000000E+00  0.00000000000E+00  0.17817425344E+02  0.17817425344E+02  0.00000000000E+00 0.  1.
         21   -1    0    0  501  502 -0.00000000000E+00 -0.00000000000E+00 -0.21923762410E+03  0.21923762410E+03  0.00000000000E+00 0.  1.
         25    1    1    2    0    0  0.00000000000E+00  0.00000000000E+00 -0.20142019875E+03  0.23705504944E+03  0.12500000000E+03 0.  0.
<mgrwt>
<rscale>  2 0.12500000E+03</rscale>
<asrwt>0</asrwt>
<pdfrwt beam="1">  1       21 0.27411424E-02 0.12500000E+03</pdfrwt>
<pdfrwt beam="2">  1       21 0.33728864E-01 0.12500000E+03</pdfrwt>
<totfact> 0.61118809E+06</totfact>
</mgrwt>
</event>
<event>
 3    0  0.1667874E+001  0.1250000E+03  0.7546771E-02  0.1235069E+00
         21   -1    0    0  502  501  0.00000000000E+00  0.00000000000E+00  0.12891372654E+03  0.12891372654E+03  0.00000000000E+00 0. -1.
         21   -1    0    0  501  502 -0.00000000000E+00 -0.00000000000E+00 -0.30301272834E+02  0.30301272834E+02  0.00000000000E+00 0. -1.
         25    1    1    2    0    0  0.00000000000E+00  0.00000000000E+00  0.98612453706E+02  0.15921499937E+03  0.12500000000E+03 0.  0.
<mgrwt>
<rscale>  2 0.12500000E+03</rscale>
<asrwt>0</asrwt>
<pdfrwt beam="1">  1       21 0.19832881E-01 0.12500000E+03</pdfrwt>
<pdfrwt beam="2">  1       21 0.46617343E-02 0.12500000E+03</pdfrwt>
<totfact> 0.69615542E+06</totfact>
</mgrwt>
</event>
<event>
 3    0  0.1534648E+001  0.1250000E+03  0.7546771E-02  0.1235069E+00
         21   -1    0    0  502  501  0.00000000000E+00  0.00000000000E+00  0.34927739544E+03  0.34927739544E+03  0.00000000000E+00 0.  1.
         21   -1    0    0  501  502 -0.00000000000E+00 -0.00000000000E+00 -0.11183804194E+02  0.11183804194E+02  0.00000000000E+00 0.  1.
         25    1    1    2    0    0  0.00000000000E+00  0.00000000000E+00  0.33809359124E+03  0.36046119963E+03  0.12500000000E+03 0.  0.
<mgrwt>
<rscale>  2 0.12500000E+03</rscale>
<asrwt>0</asrwt>
<pdfrwt beam="1">  1       21 0.53734976E-01 0.12500000E+03</pdfrwt>
<pdfrwt beam="2">  1       21 0.17205855E-02 0.12500000E+03</pdfrwt>
<totfact> 0.50775005E+06</totfact>
</mgrwt>
</event>
<event>
 3    0  0.1592394E+001  0.1250000E+03  0.7546771E-02  0.1235069E+00
         21   -1    0    0  502  501  0.00000000000E+00  0.00000000000E+00  0.24681649596E+03  0.24681649596E+03  0.00000000000E+00 0. -1.
         21   -1    0    0  501  502 -0.00000000000E+00 -0.00000000000E+00 -0.15826535357E+02  0.15826535357E+02  0.00000000000E+00 0. -1.
         25    1    1    2    0    0  0.00000000000E+00  0.00000000000E+00  0.23098996060E+03  0.26264303132E+03  0.12500000000E+03 0.  0.
<mgrwt>
<rscale>  2 0.12500000E+03</rscale>
<asrwt>0</asrwt>
<pdfrwt beam="1">  1       21 0.37971766E-01 0.12500000E+03</pdfrwt>
<pdfrwt beam="2">  1       21 0.24348518E-02 0.12500000E+03</pdfrwt>
<totfact> 0.58707868E+06</totfact>
</mgrwt>
</event>
<event>
 3    0  0.1708238E+001  0.1250000E+03  0.7546771E-02  0.1235069E+00
         21   -1    0    0  502  501  0.00000000000E+00  0.00000000000E+00  0.36463252316E+02  0.36463252316E+02  0.00000000000E+00 0.  1.
         21   -1    0    0  501  502 -0.00000000000E+00 -0.00000000000E+00 -0.10712840331E+03  0.10712840331E+03  0.00000000000E+00 0.  1.
         25    1    1    2    0    0  0.00000000000E+00  0.00000000000E+00 -0.70665150990E+02  0.14359165562E+03  0.12500000000E+03 0.  0.
<mgrwt>
<rscale>  2 0.12500000E+03</rscale>
<asrwt>0</asrwt>
<pdfrwt beam="1">  1       21 0.56097312E-02 0.12500000E+03</pdfrwt>
<pdfrwt beam="2">  1       21 0.16481293E-01 0.12500000E+03</pdfrwt>
<totfact> 0.71573823E+06</totfact>
</mgrwt>
</event>
<event>
 3    0  0.1641137E+001  0.1250000E+03  0.7546771E-02  0.1235069E+00
         21   -1    0    0  502  501  0.00000000000E+00  0.00000000000E+00  0.19794188855E+02  0.19794188855E+02  0.00000000000E+00 0. -1.
         21   -1    0    0  501  502 -0.00000000000E+00 -0.00000000000E+00 -0.19734327224E+03  0.19734327224E+03  0.00000000000E+00 0. -1.
         25    1    1    2    0    0  0.00000000000E+00  0.00000000000E+00 -0.17754908339E+03  0.21713746110E+03  0.12500000000E+03 0.  0.
<mgrwt>
<rscale>  2 0.12500000E+03</rscale>
<asrwt>0</asrwt>
<pdfrwt beam="1">  1       21 0.30452597E-02 0.12500000E+03</pdfrwt>
<pdfrwt beam="2">  1       21 0.30360505E-01 0.12500000E+03</pdfrwt>
<totfact> 0.63116328E+06</totfact>
</mgrwt>
</event>
<event>
 3    0  0.1690002E+001  0.1250000E+03  0.7546771E-02  0.1235069E+00
         21   -1    0    0  502  501  0.00000000000E+00  0.00000000000E+00  0.98151419815E+02  0.98151419815E+02  0.00000000000E+00 0. -1.
         21   -1    0    0  501  502 -0.00000000000E+00 -0.00000000000E+00 -0.39798201670E+02  0.39798201670E+02  0.00000000000E+00 0. -1.
         25    1    1    2    0    0  0.00000000000E+00  0.00000000000E+00  0.58353218145E+02  0.13794962149E+03  0.12500000000E+03 0.  0.
<mgrwt>
<rscale>  2 0.12500000E+03</rscale>
<asrwt>0</asrwt>
<pdfrwt beam="1">  1       21 0.15100218E-01 0.12500000E+03</pdfrwt>
<pdfrwt beam="2">  1       21 0.61228003E-02 0.12500000E+03</pdfrwt>
<totfact> 0.72308124E+06</totfact>
</mgrwt>
</event>
<event>
 3    0  0.1570941E+001  0.1250000E+03  0.7546771E-02  0.1235069E+00
         21   -1    0    0  502  501  0.00000000000E+00  0.00000000000E+00  0.12551157660E+02  0.12551157660E+02  0.00000000000E+00 0. -1.
         21   -1    0    0  501  502 -0.00000000000E+00 -0.00000000000E+00 -0.31122627138E+03  0.31122627138E+03  0.00000000000E+00 0. -1.
         25    1    1    2    0    0  0.00000000000E+00  0.00000000000E+00 -0.29867511372E+03  0.32377742904E+03  0.12500000000E+03 0.  0.
<mgrwt>
<rscale>  2 0.12500000E+03</rscale>
<asrwt>0</asrwt>
<pdfrwt beam="1">  1       21 0.19309474E-02 0.12500000E+03</pdfrwt>
<pdfrwt beam="2">  1       21 0.47880964E-01 0.12500000E+03</pdfrwt>
<totfact> 0.53535352E+06</totfact>
</mgrwt>
</event>
<event>
 3    0  0.1697685E+001  0.1250000E+03  0.7546771E-02  0.1235069E+00
         21   -1    0    0  502  501  0.00000000000E+00  0.00000000000E+00  0.88891283133E+02  0.88891283133E+02  0.00000000000E+00 0. -1.
         21   -1    0    0  501  502 -0.00000000000E+00 -0.00000000000E+00 -0.43944128854E+02  0.43944128854E+02  0.00000000000E+00 0. -1.
         25    1    1    2    0    0  0.00000000000E+00  0.00000000000E+00  0.44947154279E+02  0.13283541199E+03  0.12500000000E+03 0.  0.
<mgrwt>
<rscale>  2 0.12500000E+03</rscale>
<asrwt>0</asrwt>
<pdfrwt beam="1">  1       21 0.13675582E-01 0.12500000E+03</pdfrwt>
<pdfrwt beam="2">  1       21 0.67606352E-02 0.12500000E+03</pdfrwt>
<totfact> 0.72984384E+06</totfact>
</mgrwt>
</event>
<event>
 3    0  0.1632258E+001  0.1250000E+03  0.7546771E-02  0.1235069E+00
         21   -1    0    0  502  501  0.00000000000E+00  0.00000000000E+00  0.19102525138E+03  0.19102525138E+03  0.00000000000E+00 0. -1.
         21   -1    0    0  501  502 -0.00000000000E+00 -0.00000000000E+00 -0.20448867215E+02  0.20448867215E+02  0.00000000000E+00 0. -1.
         25    1    1    2    0    0  0.00000000000E+00  0.00000000000E+00  0.17057638416E+03  0.21147411859E+03  0.12500000000E+03 0.  0.
<mgrwt>
<rscale>  2 0.12500000E+03</rscale>
<asrwt>0</asrwt>
<pdfrwt beam="1">  1       21 0.29388499E-01 0.12500000E+03</pdfrwt>
<pdfrwt beam="2">  1       21 0.31459797E-02 0.12500000E+03</pdfrwt>
<totfact> 0.63704775E+06</totfact>
</mgrwt>
</event>
<event>
 3    0  0.1525291E+001  0.1250000E+03  0.7546771E-02  0.1235069E+00
         21   -1    0    0  502  501  0.00000000000E+00  0.00000000000E+00  0.98882763949E+01  0.98882763949E+01  0.00000000000E+00 0.  1.
         21   -1    0    0  501  502 -0.00000000000E+00 -0.00000000000E+00 -0.39503851268E+03  0.39503851268E+03  0.00000000000E+00 0.  1.
         25    1    1    2    0    0  0.00000000000E+00  0.00000000000E+00 -0.38515023628E+03  0.40492678907E+03  0.12500000000E+03 0.  0.
<mgrwt>
<rscale>  2 0.12500000E+03</rscale>
<asrwt>0</asrwt>
<pdfrwt beam="1">  1       21 0.15212731E-02 0.12500000E+03</pdfrwt>
<pdfrwt beam="2">  1       21 0.60775162E-01 0.12500000E+03</pdfrwt>
<totfact> 0.47716267E+06</totfact>
</mgrwt>
</event>
<event>
 3    0  0.1691333E+001  0.1250000E+03  0.7546771E-02  0.1235069E+00
         21   -1    0    0  502  501  0.00000000000E+00  0.00000000000E+00  0.40244158174E+02  0.40244158174E+02  0.00000000000E+00 0. -1.
         21   -1    0    0  501  502 -0.00000000000E+00 -0.00000000000E+00 -0.97063777136E+02  0.97063777136E+02  0.00000000000E+00 0. -1.
         25    1    1    2    0    0  0.00000000000E+00  0.00000000000E+00 -0.56819618962E+02  0.13730793531E+03  0.12500000000E+03 0.  0.
<mgrwt>
<rscale>  2 0.12500000E+03</rscale>
<asrwt>0</asrwt>
<pdfrwt beam="1">  1       21 0.61914091E-02 0.12500000E+03</pdfrwt>
<pdfrwt beam="2">  1       21 0.14932889E-01 0.12500000E+03</pdfrwt>
<totfact> 0.72392304E+06</totfact>
</mgrwt>
</event>
<event>
 3    0  0.1368989E+001  0.1250000E+03  0.7546771E-02  0.1235069E+00
         21   -1    0    0  502  501  0.00000000000E+00  0.00000000000E+00  0.50150333921E+01  0.50150333921E+01  0.00000000000E+00 0.  1.
         21   -1    0    0  501  502 -0.00000000000E+00 -0.00000000000E+00 -0.77890807391E+03  0.77890807391E+03  0.00000000000E+00 0.  1.
         25    1    1    2    0    0  0.00000000000E+00  0.00000000000E+00 -0.77389304052E+03  0.78392310730E+03  0.12500000000E+03 0.  0.
<mgrwt>
<rscale>  2 0.12500000E+03</rscale>
<asrwt>0</asrwt>
<pdfrwt beam="1">  1       21 0.77154376E-03 0.12500000E+03</pdfrwt>
<pdfrwt beam="2">  1       21 0.11983199E+00 0.12500000E+03</pdfrwt>
<totfact> 0.29902452E+06</totfact>
</mgrwt>
</event>
<event>
 3    0  0.1569570E+001  0.1250000E+03  0.7546771E-02  0.1235069E+00
         21   -1    0    0  502  501  0.00000000000E+00  0.00000000000E+00  0.12526183542E+02  0.12526183542E+02  0.00000000000E+00 0. -1.
         21   -1    0    0  501  502 -0.00000000000E+00 -0.00000000000E+00 -0.31184677975E+03  0.31184677975E+03  0.00000000000E+00 0. -1.
         25    1    1    2    0    0  0.00000000000E+00  0.00000000000E+00 -0.29932059621E+03  0.32437296329E+03  0.12500000000E+03 0.  0.
<mgrwt>
<rscale>  2 0.12500000E+03</rscale>
<asrwt>0</asrwt>
<pdfrwt beam="1">  1       21 0.19271053E-02 0.12500000E+03</pdfrwt>
<pdfrwt beam="2">  1       21 0.47976425E-01 0.12500000E+03</pdfrwt>
<totfact> 0.53488618E+06</totfact>
</mgrwt>
</event>
<event>
 3    0  0.1398113E+001  0.1250000E+03  0.7546771E-02  0.1235069E+00
         21   -1    0    0  502  501  0.00000000000E+00  0.00000000000E+00  0.68092305687E+03  0.68092305687E+03  0.00000000000E+00 0.  1.
         21   -1    0    0  501  502 -0.00000000000E+00 -0.00000000000E+00 -0.57366980904E+01  0.57366980904E+01  0.00000000000E+00 0.  1.
         25    1    1    2    0    0  0.00000000000E+00  0.00000000000E+00  0.67518635878E+03  0.68665975496E+03  0.12500000000E+03 0.  0.
<mgrwt>
<rscale>  2 0.12500000E+03</rscale>
<asrwt>0</asrwt>
<pdfrwt beam="1">  1       21 0.10475733E+00 0.12500000E+03</pdfrwt>
<pdfrwt beam="2">  1       21 0.88256948E-03 0.12500000E+03</pdfrwt>
<totfact> 0.33430844E+06</totfact>
</mgrwt>
</event>
<event>
 3    0  0.1662842E+001  0.1250000E+03  0.7546771E-02  0.1235069E+00
         21   -1    0    0  502  501  0.00000000000E+00  0.00000000000E+00  0.18063606726E+03  0.18063606726E+03  0.00000000000E+00 0.  1.
         21   -1    0    0  501  502 -0.00000000000E+00 -0.00000000000E+00 -0.21624972572E+02  0.21624972572E+02  0.00000000000E+00 0.  1.
         25    1    1    2    0    0  0.00000000000E+00  0.00000000000E+00  0.15901109469E+03  0.20226103983E+03  0.12500000000E+03 0.  0.
<mgrwt>
<rscale>  2 0.12500000E+03</rscale>
<asrwt>0</asrwt>
<pdfrwt beam="1">  1       21 0.27790163E-01 0.12500000E+03</pdfrwt>
<pdfrwt beam="2">  1       21 0.33269190E-02 0.12500000E+03</pdfrwt>
<totfact> 0.64683075E+06</totfact>
</mgrwt>
</event>
<event>
 3    0  0.1613129E+001  0.1250000E+03  0.7546771E-02  0.1235069E+00
         21   -1    0    0  502  501  0.00000000000E+00  0.00000000000E+00  0.16392992264E+02  0.16392992264E+02  0.00000000000E+00 0. -1.
         21   -1    0    0  501  502 -0.00000000000E+00 -0.00000000000E+00 -0.23828779622E+03  0.23828779622E+03  0.00000000000E+00 0. -1.
         25    1    1    2    0    0  0.00000000000E+00  0.00000000000E+00 -0.22189480395E+03  0.25468078848E+03  0.12500000000E+03 0.  0.
<mgrwt>
<rscale>  2 0.12500000E+03</rscale>
<asrwt>0</asrwt>
<pdfrwt beam="1">  1       21 0.25219989E-02 0.12500000E+03</pdfrwt>
<pdfrwt beam="2">  1       21 0.36659659E-01 0.12500000E+03</pdfrwt>
<totfact> 0.59440278E+06</totfact>
</mgrwt>
</event>
<event>
 3    0  0.1377351E+001  0.1250000E+03  0.7546771E-02  0.1235069E+00
         21   -1    0    0  502  501  0.00000000000E+00  0.00000000000E+00  0.61236467129E+03  0.61236467129E+03  0.00000000000E+00 0.  1.
         21   -1    0    0  501  502 -0.00000000000E+00 -0.00000000000E+00 -0.63789604188E+01  0.63789604188E+01  0.00000000000E+00 0.  1.
         25    1    1    2    0    0  0.00000000000E+00  0.00000000000E+00  0.60598571087E+03  0.61874363170E+03  0.12500000000E+03 0.  0.
<mgrwt>
<rscale>  2 0.12500000E+03</rscale>
<asrwt>0</asrwt>
<pdfrwt beam="1">  1       21 0.94209903E-01 0.12500000E+03</pdfrwt>
<pdfrwt beam="2">  1       21 0.98137901E-03 0.12500000E+03</pdfrwt>
<totfact> 0.36258476E+06</totfact>
</mgrwt>
</event>
<event>
 3    0  0.1709892E+001  0.1250000E+03  0.7546771E-02  0.1235069E+00
         21   -1    0    0  502  501  0.00000000000E+00  0.00000000000E+00  0.10322927818E+03  0.10322927818E+03  0.00000000000E+00 0.  1.
         21   -1    0    0  501  502 -0.00000000000E+00 -0.00000000000E+00 -0.37840524208E+02  0.37840524208E+02  0.00000000000E+00 0.  1.
         25    1    1    2    0    0  0.00000000000E+00  0.00000000000E+00  0.65388753973E+02  0.14106980239E+03  0.12500000000E+03 0.  0.
<mgrwt>
<rscale>  2 0.12500000E+03</rscale>
<asrwt>0</asrwt>
<pdfrwt beam="1">  1       21 0.15881427E-01 0.12500000E+03</pdfrwt>
<pdfrwt beam="2">  1       21 0.58216191E-02 0.12500000E+03</pdfrwt>
<totfact> 0.71899954E+06</totfact>
</mgrwt>
</event>
<event>
 3    0  0.1392153E+001  0.1250000E+03  0.7546771E-02  0.1235069E+00
         21   -1    0    0  502  501  0.00000000000E+00  0.00000000000E+00  0.58112270321E+01  0.58112270321E+01  0.00000000000E+00 0. -1.
         21   -1    0    0  501  502 -0.00000000000E+00 -0.00000000000E+00 -0.67219022392E+03  0.67219022392E+03  0.00000000000E+00 0. -1.
         25    1    1    2    0    0  0.00000000000E+00  0.00000000000E+00 -0.66637899689E+03  0.67800145096E+03  0.12500000000E+03 0.  0.
<mgrwt>
<rscale>  2 0.12500000E+03</rscale>
<asrwt>0</asrwt>
<pdfrwt beam="1">  1       21 0.89403513E-03 0.12500000E+03</pdfrwt>
<pdfrwt beam="2">  1       21 0.10341386E+00 0.12500000E+03</pdfrwt>
<totfact> 0.33775646E+06</totfact>
</mgrwt>
</event>
<event>
 3    0  0.1695357E+001  0.1250000E+03  0.7546771E-02  0.1235069E+00
         21   -1    0    0  502  501  0.00000000000E+00  0.00000000000E+00  0.95153497030E+02  0.95153497030E+02  0.00000000000E+00 0. -1.
         21   -1    0    0  501  502 -0.00000000000E+00 -0.00000000000E+00 -0.41052090800E+02  0.41052090800E+02  0.00000000000E+00 0. -1.
         25    1    1    2    0    0  0.00000000000E+00  0.00000000000E+00  0.54101406231E+02  0.13620558783E+03  0.12500000000E+03 0.  0.
<mgrwt>
<rscale>  2 0.12500000E+03</rscale>
<asrwt>0</asrwt>
<pdfrwt beam="1">  1       21 0.14639000E-01 0.12500000E+03</pdfrwt>
<pdfrwt beam="2">  1       21 0.63157063E-02 0.12500000E+03</pdfrwt>
<totfact> 0.72537235E+06</totfact>
</mgrwt>
</event>
<event>
 3    0  0.1588892E+001  0.1250000E+03  0.7546771E-02  0.1235069E+00
         21   -1    0    0  502  501  0.00000000000E+00  0.00000000000E+00  0.28035349484E+03  0.28035349484E+03  0.00000000000E+00 0.  1.
         21   -1    0    0  501  502 -0.00000000000E+00 -0.00000000000E+00 -0.13933302320E+02  0.13933302320E+02  0.00000000000E+00 0.  1.
         25    1    1    2    0    0  0.00000000000E+00  0.00000000000E+00  0.26642019252E+03  0.29428679716E+03  0.12500000000E+03 0.  0.
<mgrwt>
<rscale>  2 0.12500000E+03</rscale>
<asrwt>0</asrwt>
<pdfrwt beam="1">  1       21 0.43131303E-01 0.12500000E+03</pdfrwt>
<pdfrwt beam="2">  1       21 0.21435852E-02 0.12500000E+03</pdfrwt>
<totfact> 0.55934332E+06</totfact>
</mgrwt>
</event>
<event>
 3    0  0.1494848E+001  0.1250000E+03  0.7546771E-02  0.1235069E+00
         21   -1    0    0  502  501  0.00000000000E+00  0.00000000000E+00  0.39846115466E+03  0.39846115466E+03  0.00000000000E+00 0. -1.
         21   -1    0    0  501  502 -0.00000000000E+00 -0.00000000000E+00 -0.98033395584E+01  0.98033395584E+01  0.00000000000E+00 0. -1.
         25    1    1    2    0    0  0.00000000000E+00  0.00000000000E+00  0.38865781511E+03  0.40826449422E+03  0.12500000000E+03 0.  0.
<mgrwt>
<rscale>  2 0.12500000E+03</rscale>
<asrwt>0</asrwt>
<pdfrwt beam="1">  1       21 0.61301704E-01 0.12500000E+03</pdfrwt>
<pdfrwt beam="2">  1       21 0.15082064E-02 0.12500000E+03</pdfrwt>
<totfact> 0.47497969E+06</totfact>
</mgrwt>
</event>
<event>
 3    0  0.1565440E+001  0.1250000E+03  0.7546771E-02  0.1235069E+00
         21   -1    0    0  502  501  0.00000000000E+00  0.00000000000E+00  0.10889517545E+02  0.10889517545E+02  0.00000000000E+00 0.  1.
         21   -1    0    0  501  502 -0.00000000000E+00 -0.00000000000E+00 -0.35871653487E+03  0.35871653487E+03  0.00000000000E+00 0.  1.
         25    1    1    2    0    0  0.00000000000E+00  0.00000000000E+00 -0.34782701733E+03  0.36960605241E+03  0.12500000000E+03 0.  0.
<mgrwt>
<rscale>  2 0.12500000E+03</rscale>
<asrwt>0</asrwt>
<pdfrwt beam="1">  1       21 0.16753105E-02 0.12500000E+03</pdfrwt>
<pdfrwt beam="2">  1       21 0.55187155E-01 0.12500000E+03</pdfrwt>
<totfact> 0.50122271E+06</totfact>
</mgrwt>
</event>
<event>
 3    0  0.1712797E+001  0.1250000E+03  0.7546771E-02  0.1235069E+00
         21   -1    0    0  502  501  0.00000000000E+00  0.00000000000E+00  0.35028284020E+02  0.35028284020E+02  0.00000000000E+00 0.  1.
         21   -1    0    0  501  502 -0.00000000000E+00 -0.00000000000E+00 -0.11151702429E+03  0.11151702429E+03  0.00000000000E+00 0.  1.
         25    1    1    2    0    0  0.00000000000E+00  0.00000000000E+00 -0.76488740271E+02  0.14654530831E+03  0.12500000000E+03 0.  0.
<mgrwt>
<rscale>  2 0.12500000E+03</rscale>
<asrwt>0</asrwt>
<pdfrwt beam="1">  1       21 0.53889667E-02 0.12500000E+03</pdfrwt>
<pdfrwt beam="2">  1       21 0.17156465E-01 0.12500000E+03</pdfrwt>
<totfact> 0.71195920E+06</totfact>
</mgrwt>
</event>
<event>
 3    0  0.1699492E+001  0.1250000E+03  0.7546771E-02  0.1235069E+00
         21   -1    0    0  502  501  0.00000000000E+00  0.00000000000E+00  0.80468914299E+02  0.80468914299E+02  0.00000000000E+00 0. -1.
         21   -1    0    0  501  502 -0.00000000000E+00 -0.00000000000E+00 -0.48543590205E+02  0.48543590205E+02  0.00000000000E+00 0. -1.
         25    1    1    2    0    0  0.00000000000E+00  0.00000000000E+00  0.31925324093E+02  0.12901250450E+03  0.12500000000E+03 0.  0.
<mgrwt>
<rscale>  2 0.12500000E+03</rscale>
<asrwt>0</asrwt>
<pdfrwt beam="1">  1       21 0.12379833E-01 0.12500000E+03</pdfrwt>
<pdfrwt beam="2">  1       21 0.74682446E-02 0.12500000E+03</pdfrwt>
<totfact> 0.73497201E+06</totfact>
</mgrwt>
</event>
<event>
 3    0  0.1556144E+001  0.1250000E+03  0.7546771E-02  0.1235069E+00
         21   -1    0    0  502  501  0.00000000000E+00  0.00000000000E+00  0.13698419023E+02  0.13698419023E+02  0.00000000000E+00 0. -1.
         21   -1    0    0  501  502 -0.00000000000E+00 -0.00000000000E+00 -0.28516064471E+03  0.28516064471E+03  0.00000000000E+00 0. -1.
         25    1    1    2    0    0  0.00000000000E+00  0.00000000000E+00 -0.27146222568E+03  0.29885906373E+03  0.12500000000E+03 0.  0.
<mgrwt>
<rscale>  2 0.12500000E+03</rscale>
<asrwt>0</asrwt>
<pdfrwt beam="1">  1       21 0.21074490E-02 0.12500000E+03</pdfrwt>
<pdfrwt beam="2">  1       21 0.43870871E-01 0.12500000E+03</pdfrwt>
<totfact> 0.55551122E+06</totfact>
</mgrwt>
</event>
<event>
 3    0  0.1701249E+001  0.1250000E+03  0.7546771E-02  0.1235069E+00
         21   -1    0    0  502  501  0.00000000000E+00  0.00000000000E+00  0.57943953814E+02  0.57943953814E+02  0.00000000000E+00 0. -1.
         21   -1    0    0  501  502 -0.00000000000E+00 -0.00000000000E+00 -0.67414281265E+02  0.67414281265E+02  0.00000000000E+00 0. -1.
         25    1    1    2    0    0  0.00000000000E+00  0.00000000000E+00 -0.94703274515E+01  0.12535823508E+03  0.12500000000E+03 0.  0.
<mgrwt>
<rscale>  2 0.12500000E+03</rscale>
<asrwt>0</asrwt>
<pdfrwt beam="1">  1       21 0.89144544E-02 0.12500000E+03</pdfrwt>
<pdfrwt beam="2">  1       21 0.10371428E-01 0.12500000E+03</pdfrwt>
<totfact> 0.73995211E+06</totfact>
</mgrwt>
</event>
<event>
 3    0  0.1676872E+001  0.1250000E+03  0.7546771E-02  0.1235069E+00
         21   -1    0    0  502  501  0.00000000000E+00  0.00000000000E+00  0.11056030194E+03  0.11056030194E+03  0.00000000000E+00 0. -1.
         21   -1    0    0  501  502 -0.00000000000E+00 -0.00000000000E+00 -0.35331397722E+02  0.35331397722E+02  0.00000000000E+00 0. -1.
         25    1    1    2    0    0  0.00000000000E+00  0.00000000000E+00  0.75228904213E+02  0.14589169966E+03  0.12500000000E+03 0.  0.
<mgrwt>
<rscale>  2 0.12500000E+03</rscale>
<asrwt>0</asrwt>
<pdfrwt beam="1">  1       21 0.17009277E-01 0.12500000E+03</pdfrwt>
<pdfrwt beam="2">  1       21 0.54355997E-02 0.12500000E+03</pdfrwt>
<totfact> 0.71279178E+06</totfact>
</mgrwt>
</event>
<event>
 3    0  0.1368989E+001  0.1250000E+03  0.7546771E-02  0.1235069E+00
         21   -1    0    0  502  501  0.00000000000E+00  0.00000000000E+00  0.66139425013E+03  0.66139425013E+03  0.00000000000E+00 0.  1.
         21   -1    0    0  501  502 -0.00000000000E+00 -0.00000000000E+00 -0.59060840024E+01  0.59060840024E+01  0.00000000000E+00 0.  1.
         25    1    1    2    0    0  0.00000000000E+00  0.00000000000E+00  0.65548816613E+03  0.66730033413E+03  0.12500000000E+03 0.  0.
<mgrwt>
<rscale>  2 0.12500000E+03</rscale>
<asrwt>0</asrwt>
<pdfrwt beam="1">  1       21 0.10175290E+00 0.12500000E+03</pdfrwt>
<pdfrwt beam="2">  1       21 0.90862883E-03 0.12500000E+03</pdfrwt>
<totfact> 0.34209318E+06</totfact>
</mgrwt>
</event>
<event>
 3    0  0.1700874E+001  0.1250000E+03  0.7546771E-02  0.1235069E+00
         21   -1    0    0  502  501  0.00000000000E+00  0.00000000000E+00  0.67635244613E+02  0.67635244613E+02  0.00000000000E+00 0. -1.
         21   -1    0    0  501  502 -0.00000000000E+00 -0.00000000000E+00 -0.57754651770E+02  0.57754651770E+02  0.00000000000E+00 0. -1.
         25    1    1    2    0    0  0.00000000000E+00  0.00000000000E+00  0.98805928428E+01  0.12538989638E+03  0.12500000000E+03 0.  0.
<mgrwt>
<rscale>  2 0.12500000E+03</rscale>
<asrwt>0</asrwt>
<pdfrwt beam="1">  1       21 0.10405422E-01 0.12500000E+03</pdfrwt>
<pdfrwt beam="2">  1       21 0.88853310E-02 0.12500000E+03</pdfrwt>
<totfact> 0.73990832E+06</totfact>
</mgrwt>
</event>
<event>
 3    0  0.1684894E+001  0.1250000E+03  0.7546771E-02  0.1235069E+00
         21   -1    0    0  502  501  0.00000000000E+00  0.00000000000E+00  0.34505666086E+02  0.34505666086E+02  0.00000000000E+00 0. -1.
         21   -1    0    0  501  502 -0.00000000000E+00 -0.00000000000E+00 -0.11320604536E+03  0.11320604536E+03  0.00000000000E+00 0. -1.
         25    1    1    2    0    0  0.00000000000E+00  0.00000000000E+00 -0.78700379272E+02  0.14771171144E+03  0.12500000000E+03 0.  0.
<mgrwt>
<rscale>  2 0.12500000E+03</rscale>
<asrwt>0</asrwt>
<pdfrwt beam="1">  1       21 0.53085641E-02 0.12500000E+03</pdfrwt>
<pdfrwt beam="2">  1       21 0.17416314E-01 0.12500000E+03</pdfrwt>
<totfact> 0.71047849E+06</totfact>
</mgrwt>
</event>
<event>
 3    0  0.1671260E+001  0.1250000E+03  0.7546771E-02  0.1235069E+00
         21   -1    0    0  502  501  0.00000000000E+00  0.00000000000E+00  0.13294189553E+03  0.13294189553E+03  0.00000000000E+00 0. -1.
         21   -1    0    0  501  502 -0.00000000000E+00 -0.00000000000E+00 -0.29383137532E+02  0.29383137532E+02  0.00000000000E+00 0. -1.
         25    1    1    2    0    0  0.00000000000E+00  0.00000000000E+00  0.10355875800E+03  0.16232503306E+03  0.12500000000E+03 0.  0.
<mgrwt>
<rscale>  2 0.12500000E+03</rscale>
<asrwt>0</asrwt>
<pdfrwt beam="1">  1       21 0.20452599E-01 0.12500000E+03</pdfrwt>
<pdfrwt beam="2">  1       21 0.45204828E-02 0.12500000E+03</pdfrwt>
<totfact> 0.69236512E+06</totfact>
</mgrwt>
</event>
<event>
 3    0  0.1639318E+001  0.1250000E+03  0.7546771E-02  0.1235069E+00
         21   -1    0    0  502  501  0.00000000000E+00  0.00000000000E+00  0.18792574622E+02  0.18792574622E+02  0.00000000000E+00 0.  1.
         21   -1    0    0  501  502 -0.00000000000E+00 -0.00000000000E+00 -0.20786135368E+03  0.20786135368E+03  0.00000000000E+00 0.  1.
         25    1    1    2    0    0  0.00000000000E+00  0.00000000000E+00 -0.18906877906E+03  0.22665392830E+03  0.12500000000E+03 0.  0.
<mgrwt>
<rscale>  2 0.12500000E+03</rscale>
<asrwt>0</asrwt>
<pdfrwt beam="1">  1       21 0.28911655E-02 0.12500000E+03</pdfrwt>
<pdfrwt beam="2">  1       21 0.31978668E-01 0.12500000E+03</pdfrwt>
<totfact> 0.62148557E+06</totfact>
</mgrwt>
</event>
<event>
 3    0  0.1368989E+001  0.1250000E+03  0.7546771E-02  0.1235069E+00
         21   -1    0    0  502  501  0.00000000000E+00  0.00000000000E+00  0.91827461311E+03  0.91827461311E+03  0.00000000000E+00 0.  1.
         21   -1    0    0  501  502 -0.00000000000E+00 -0.00000000000E+00 -0.42539017678E+01  0.42539017678E+01  0.00000000000E+00 0.  1.
         25    1    1    2    0    0  0.00000000000E+00  0.00000000000E+00  0.91402071134E+03  0.92252851488E+03  0.12500000000E+03 0.  0.
<mgrwt>
<rscale>  2 0.12500000E+03</rscale>
<asrwt>0</asrwt>
<pdfrwt beam="1">  1       21 0.14127286E+00 0.12500000E+03</pdfrwt>
<pdfrwt beam="2">  1       21 0.65444716E-03 0.12500000E+03</pdfrwt>
<totfact> 0.25661635E+06</totfact>
</mgrwt>
</event>
<event>
 3    0  0.1712981E+001  0.1250000E+03  0.7546771E-02  0.1235069E+00
         21   -1    0    0  502  501  0.00000000000E+00  0.00000000000E+00  0.39626697255E+02  0.39626697255E+02  0.00000000000E+00 0.  1.
         21   -1    0    0  501  502 -0.00000000000E+00 -0.00000000000E+00 -0.98576219332E+02  0.98576219332E+02  0.00000000000E+00 0.  1.
         25    1    1    2    0    0  0.00000000000E+00  0.00000000000E+00 -0.58949522077E+02  0.13820291659E+03  0.12500000000E+03 0.  0.
<mgrwt>
<rscale>  2 0.12500000E+03</rscale>
<asrwt>0</asrwt>
<pdfrwt beam="1">  1       21 0.60964150E-02 0.12500000E+03</pdfrwt>
<pdfrwt beam="2">  1       21 0.15165572E-01 0.12500000E+03</pdfrwt>
<totfact> 0.72274791E+06</totfact>
</mgrwt>
</event>
<event>
 3    0  0.1368989E+001  0.1250000E+03  0.7546771E-02  0.1235069E+00
         21   -1    0    0  502  501  0.00000000000E+00  0.00000000000E+00  0.16745476049E+04  0.16745476049E+04  0.00000000000E+00 0.  1.
         21   -1    0    0  501  502 -0.00000000000E+00 -0.00000000000E+00 -0.23327195886E+01  0.23327195886E+01  0.00000000000E+00 0.  1.
         25    1    1    2    0    0  0.00000000000E+00  0.00000000000E+00  0.16722148853E+04  0.16768803245E+04  0.12500000000E+03 0.  0.
<mgrwt>
<rscale>  2 0.12500000E+03</rscale>
<asrwt>0</asrwt>
<pdfrwt beam="1">  1       21 0.25762175E+00 0.12500000E+03</pdfrwt>
<pdfrwt beam="2">  1       21 0.35888128E-03 0.12500000E+03</pdfrwt>
<totfact> 0.11561492E+06</totfact>
</mgrwt>
</event>
<event>
 3    0  0.1676553E+001  0.1250000E+03  0.7546771E-02  0.1235069E+00
         21   -1    0    0  502  501  0.00000000000E+00  0.00000000000E+00  0.27817601351E+02  0.27817601351E+02  0.00000000000E+00 0. -1.
         21   -1    0    0  501  502 -0.00000000000E+00 -0.00000000000E+00 -0.14042368178E+03  0.14042368178E+03  0.00000000000E+00 0. -1.
         25    1    1    2    0    0  0.00000000000E+00  0.00000000000E+00 -0.11260608043E+03  0.16824128313E+03  0.12500000000E+03 0.  0.
<mgrwt>
<rscale>  2 0.12500000E+03</rscale>
<asrwt>0</asrwt>
<pdfrwt beam="1">  1       21 0.42796310E-02 0.12500000E+03</pdfrwt>
<pdfrwt beam="2">  1       21 0.21603643E-01 0.12500000E+03</pdfrwt>
<totfact> 0.68526258E+06</totfact>
</mgrwt>
</event>
<event>
 3    0  0.1701689E+001  0.1250000E+03  0.7546771E-02  0.1235069E+00
         21   -1    0    0  502  501  0.00000000000E+00  0.00000000000E+00  0.54584247155E+02  0.54584247155E+02  0.00000000000E+00 0. -1.
         21   -1    0    0  501  502 -0.00000000000E+00 -0.00000000000E+00 -0.71563687393E+02  0.71563687393E+02  0.00000000000E+00 0. -1.
         25    1    1    2    0    0  0.00000000000E+00  0.00000000000E+00 -0.16979440238E+02  0.12614793455E+03  0.12500000000E+03 0.  0.
<mgrwt>
<rscale>  2 0.12500000E+03</rscale>
<asrwt>0</asrwt>
<pdfrwt beam="1">  1       21 0.83975765E-02 0.12500000E+03</pdfrwt>
<pdfrwt beam="2">  1       21 0.11009798E-01 0.12500000E+03</pdfrwt>
<totfact> 0.73885667E+06</totfact>
</mgrwt>
</event>
<event>
 3    0  0.1645983E+001  0.1250000E+03  0.7546771E-02  0.1235069E+00
         21   -1    0    0  502  501  0.00000000000E+00  0.00000000000E+00  0.20491822211E+03  0.20491822211E+03  0.00000000000E+00 0.  1.
         21   -1    0    0  501  502 -0.00000000000E+00 -0.00000000000E+00 -0.19062482389E+02  0.19062482389E+02  0.00000000000E+00 0.  1.
         25    1    1    2    0    0  0.00000000000E+00  0.00000000000E+00  0.18585573972E+03  0.22398070449E+03  0.12500000000E+03 0.  0.
<mgrwt>
<rscale>  2 0.12500000E+03</rscale>
<asrwt>0</asrwt>
<pdfrwt beam="1">  1       21 0.31525879E-01 0.12500000E+03</pdfrwt>
<pdfrwt beam="2">  1       21 0.29326897E-02 0.12500000E+03</pdfrwt>
<totfact> 0.62417957E+06</totfact>
</mgrwt>
</event>
<event>
 3    0  0.1633881E+001  0.1250000E+03  0.7546771E-02  0.1235069E+00
         21   -1    0    0  502  501  0.00000000000E+00  0.00000000000E+00  0.19496175713E+02  0.19496175713E+02  0.00000000000E+00 0. -1.
         21   -1    0    0  501  502 -0.00000000000E+00 -0.00000000000E+00 -0.20035980684E+03  0.20035980684E+03  0.00000000000E+00 0. -1.
         25    1    1    2    0    0  0.00000000000E+00  0.00000000000E+00 -0.18086363112E+03  0.21985598255E+03  0.12500000000E+03 0.  0.
<mgrwt>
<rscale>  2 0.12500000E+03</rscale>
<asrwt>0</asrwt>
<pdfrwt beam="1">  1       21 0.29994118E-02 0.12500000E+03</pdfrwt>
<pdfrwt beam="2">  1       21 0.30824585E-01 0.12500000E+03</pdfrwt>
<totfact> 0.62837259E+06</totfact>
</mgrwt>
</event>
<event>
 3    0  0.1590355E+001  0.1250000E+03  0.7546771E-02  0.1235069E+00
         21   -1    0    0  502  501  0.00000000000E+00  0.00000000000E+00  0.12492380637E+02  0.12492380637E+02  0.00000000000E+00 0.  1.
         21   -1    0    0  501  502 -0.00000000000E+00 -0.00000000000E+00 -0.31269060025E+03  0.31269060025E+03  0.00000000000E+00 0.  1.
         25    1    1    2    0    0  0.00000000000E+00  0.00000000000E+00 -0.30019821961E+03  0.32518298089E+03  0.12500000000E+03 0.  0.
<mgrwt>
<rscale>  2 0.12500000E+03</rscale>
<asrwt>0</asrwt>
<pdfrwt beam="1">  1       21 0.19219047E-02 0.12500000E+03</pdfrwt>
<pdfrwt beam="2">  1       21 0.48106246E-01 0.12500000E+03</pdfrwt>
<totfact> 0.53425157E+06</totfact>
</mgrwt>
</event>
<event>
 3    0  0.1368989E+001  0.1250000E+03  0.7546771E-02  0.1235069E+00
         21   -1    0    0  502  501  0.00000000000E+00  0.00000000000E+00  0.13441791008E+04  0.13441791008E+04  0.00000000000E+00 0. -1.
         21   -1    0    0  501  502 -0.00000000000E+00 -0.00000000000E+00 -0.29060487532E+01  0.29060487532E+01  0.00000000000E+00 0. -1.
         25    1    1    2    0    0  0.00000000000E+00  0.00000000000E+00  0.13412730521E+04  0.13470851496E+04  0.12500000000E+03 0.  0.
<mgrwt>
<rscale>  2 0.12500000E+03</rscale>
<asrwt>0</asrwt>
<pdfrwt beam="1">  1       21 0.20679629E+00 0.12500000E+03</pdfrwt>
<pdfrwt beam="2">  1       21 0.44708550E-03 0.12500000E+03</pdfrwt>
<totfact> 0.16427591E+06</totfact>
</mgrwt>
</event>
<event>
 3    0  0.1658120E+001  0.1250000E+03  0.7546771E-02  0.1235069E+00
         21   -1    0    0  502  501  0.00000000000E+00  0.00000000000E+00  0.15679548124E+03  0.15679548124E+03  0.00000000000E+00 0. -1.
         21   -1    0    0  501  502 -0.00000000000E+00 -0.00000000000E+00 -0.24913026633E+02  0.24913026633E+02  0.00000000000E+00 0. -1.
         25    1    1    2    0    0  0.00000000000E+00  0.00000000000E+00  0.13188245461E+03  0.18170850787E+03  0.12500000000E+03 0.  0.
<mgrwt>
<rscale>  2 0.12500000E+03</rscale>
<asrwt>0</asrwt>
<pdfrwt beam="1">  1       21 0.24122381E-01 0.12500000E+03</pdfrwt>
<pdfrwt beam="2">  1       21 0.38327734E-02 0.12500000E+03</pdfrwt>
<totfact> 0.66956081E+06</totfact>
</mgrwt>
</event>
<event>
 3    0  0.1445269E+001  0.1250000E+03  0.7546771E-02  0.1235069E+00
         21   -1    0    0  502  501  0.00000000000E+00  0.00000000000E+00  0.49432992167E+03  0.49432992167E+03  0.00000000000E+00 0. -1.
         21   -1    0    0  501  502 -0.00000000000E+00 -0.00000000000E+00 -0.79021111786E+01  0.79021111786E+01  0.00000000000E+00 0. -1.
         25    1    1    2    0    0  0.00000000000E+00  0.00000000000E+00  0.48642781050E+03  0.50223203285E+03  0.12500000000E+03 0.  0.
<mgrwt>
<rscale>  2 0.12500000E+03</rscale>
<asrwt>0</asrwt>
<pdfrwt beam="1">  1       21 0.76050733E-01 0.12500000E+03</pdfrwt>
<pdfrwt beam="2">  1       21 0.12157098E-02 0.12500000E+03</pdfrwt>
<totfact> 0.41923289E+06</totfact>
</mgrwt>
</event>
<event>
 3    0  0.1505608E+001  0.1250000E+03  0.7546771E-02  0.1235069E+00
         21   -1    0    0  502  501  0.00000000000E+00  0.00000000000E+00  0.45247561322E+03  0.45247561322E+03  0.00000000000E+00 0.  1.
         21   -1    0    0  501  502 -0.00000000000E+00 -0.00000000000E+00 -0.86330619505E+01  0.86330619505E+01  0.00000000000E+00 0.  1.
         25    1    1    2    0    0  0.00000000000E+00  0.00000000000E+00  0.44384255127E+03  0.46110867517E+03  0.12500000000E+03 0.  0.
<mgrwt>
<rscale>  2 0.12500000E+03</rscale>
<asrwt>0</asrwt>
<pdfrwt beam="1">  1       21 0.69611614E-01 0.12500000E+03</pdfrwt>
<pdfrwt beam="2">  1       21 0.13281637E-02 0.12500000E+03</pdfrwt>
<totfact> 0.44234933E+06</totfact>
</mgrwt>
</event>
<event>
 3    0  0.1368989E+001  0.1250000E+03  0.7546771E-02  0.1235069E+00
         21   -1    0    0  502  501  0.00000000000E+00  0.00000000000E+00  0.51013410532E+01  0.51013410532E+01  0.00000000000E+00 0. -1.
         21   -1    0    0  501  502 -0.00000000000E+00 -0.00000000000E+00 -0.76573002260E+03  0.76573002260E+03  0.00000000000E+00 0. -1.
         25    1    1    2    0    0  0.00000000000E+00  0.00000000000E+00 -0.76062868155E+03  0.77083136366E+03  0.12500000000E+03 0.  0.
<mgrwt>
<rscale>  2 0.12500000E+03</rscale>
<asrwt>0</asrwt>
<pdfrwt beam="1">  1       21 0.78482138E-03 0.12500000E+03</pdfrwt>
<pdfrwt beam="2">  1       21 0.11780467E+00 0.12500000E+03</pdfrwt>
<totfact> 0.30349344E+06</totfact>
</mgrwt>
</event>
<event>
 3    0  0.1368989E+001  0.1250000E+03  0.7546771E-02  0.1235069E+00
         21   -1    0    0  502  501  0.00000000000E+00  0.00000000000E+00  0.64957014787E+03  0.64957014787E+03  0.00000000000E+00 0. -1.
         21   -1    0    0  501  502 -0.00000000000E+00 -0.00000000000E+00 -0.60135922391E+01  0.60135922391E+01  0.00000000000E+00 0. -1.
         25    1    1    2    0    0  0.00000000000E+00  0.00000000000E+00  0.64355655564E+03  0.65558374011E+03  0.12500000000E+03 0.  0.
<mgrwt>
<rscale>  2 0.12500000E+03</rscale>
<asrwt>0</asrwt>
<pdfrwt beam="1">  1       21 0.99933813E-01 0.12500000E+03</pdfrwt>
<pdfrwt beam="2">  1       21 0.92516855E-03 0.12500000E+03</pdfrwt>
<totfact> 0.34693386E+06</totfact>
</mgrwt>
</event>
<event>
 3    0  0.1368989E+001  0.1250000E+03  0.7546771E-02  0.1235069E+00
         21   -1    0    0  502  501  0.00000000000E+00  0.00000000000E+00  0.50691242620E+01  0.50691242620E+01  0.00000000000E+00 0.  1.
         21   -1    0    0  501  502 -0.00000000000E+00 -0.00000000000E+00 -0.77059661553E+03  0.77059661553E+03  0.00000000000E+00 0.  1.
         25    1    1    2    0    0  0.00000000000E+00  0.00000000000E+00 -0.76552749127E+03  0.77566573979E+03  0.12500000000E+03 0.  0.
<mgrwt>
<rscale>  2 0.12500000E+03</rscale>
<asrwt>0</asrwt>
<pdfrwt beam="1">  1       21 0.77986560E-03 0.12500000E+03</pdfrwt>
<pdfrwt beam="2">  1       21 0.11855328E+00 0.12500000E+03</pdfrwt>
<totfact> 0.30185051E+06</totfact>
</mgrwt>
</event>
<event>
 3    0  0.1548106E+001  0.1250000E+03  0.7546771E-02  0.1235069E+00
         21   -1    0    0  502  501  0.00000000000E+00  0.00000000000E+00  0.12143990181E+02  0.12143990181E+02  0.00000000000E+00 0. -1.
         21   -1    0    0  501  502 -0.00000000000E+00 -0.00000000000E+00 -0.32166116258E+03  0.32166116258E+03  0.00000000000E+00 0. -1.
         25    1    1    2    0    0  0.00000000000E+00  0.00000000000E+00 -0.30951717240E+03  0.33380515276E+03  0.12500000000E+03 0.  0.
<mgrwt>
<rscale>  2 0.12500000E+03</rscale>
<asrwt>0</asrwt>
<pdfrwt beam="1">  1       21 0.18683063E-02 0.12500000E+03</pdfrwt>
<pdfrwt beam="2">  1       21 0.49486329E-01 0.12500000E+03</pdfrwt>
<totfact> 0.52757173E+06</totfact>
</mgrwt>
</event>
<event>
 3    0  0.1638180E+001  0.1250000E+03  0.7546771E-02  0.1235069E+00
         21   -1    0    0  502  501  0.00000000000E+00  0.00000000000E+00  0.21549097508E+02  0.21549097508E+02  0.00000000000E+00 0. -1.
         21   -1    0    0  501  502 -0.00000000000E+00 -0.00000000000E+00 -0.18127209265E+03  0.18127209265E+03  0.00000000000E+00 0. -1.
         25    1    1    2    0    0  0.00000000000E+00  0.00000000000E+00 -0.15972299514E+03  0.20282119016E+03  0.12500000000E+03 0.  0.
<mgrwt>
<rscale>  2 0.12500000E+03</rscale>
<asrwt>0</asrwt>
<pdfrwt beam="1">  1       21 0.33152459E-02 0.12500000E+03</pdfrwt>
<pdfrwt beam="2">  1       21 0.27888013E-01 0.12500000E+03</pdfrwt>
<totfact> 0.64622834E+06</totfact>
</mgrwt>
</event>
<event>
 3    0  0.1385456E+001  0.1250000E+03  0.7546771E-02  0.1235069E+00
         21   -1    0    0  502  501  0.00000000000E+00  0.00000000000E+00  0.61603320656E+01  0.61603320656E+01  0.00000000000E+00 0. -1.
         21   -1    0    0  501  502 -0.00000000000E+00 -0.00000000000E+00 -0.63409731138E+03  0.63409731138E+03  0.00000000000E+00 0. -1.
         25    1    1    2    0    0  0.00000000000E+00  0.00000000000E+00 -0.62793697931E+03  0.64025764344E+03  0.12500000000E+03 0.  0.
<mgrwt>
<rscale>  2 0.12500000E+03</rscale>
<asrwt>0</asrwt>
<pdfrwt beam="1">  1       21 0.94774301E-03 0.12500000E+03</pdfrwt>
<pdfrwt beam="2">  1       21 0.97553472E-01 0.12500000E+03</pdfrwt>
<totfact> 0.35332973E+06</totfact>
</mgrwt>
</event>
<event>
 3    0  0.1368989E+001  0.1250000E+03  0.7546771E-02  0.1235069E+00
         21   -1    0    0  502  501  0.00000000000E+00  0.00000000000E+00  0.42257042651E+01  0.42257042651E+01  0.00000000000E+00 0. -1.
         21   -1    0    0  501  502 -0.00000000000E+00 -0.00000000000E+00 -0.92440212446E+03  0.92440212446E+03  0.00000000000E+00 0. -1.
         25    1    1    2    0    0  0.00000000000E+00  0.00000000000E+00 -0.92017642020E+03  0.92862782873E+03  0.12500000000E+03 0.  0.
<mgrwt>
<rscale>  2 0.12500000E+03</rscale>
<asrwt>0</asrwt>
<pdfrwt beam="1">  1       21 0.65010863E-03 0.12500000E+03</pdfrwt>
<pdfrwt beam="2">  1       21 0.14221565E+00 0.12500000E+03</pdfrwt>
<totfact> 0.25492489E+06</totfact>
</mgrwt>
</event>
<event>
 3    0  0.1368989E+001  0.1250000E+03  0.7546771E-02  0.1235069E+00
         21   -1    0    0  502  501  0.00000000000E+00  0.00000000000E+00  0.10024052220E+04  0.10024052220E+04  0.00000000000E+00 0. -1.
         21   -1    0    0  501  502 -0.00000000000E+00 -0.00000000000E+00 -0.38968771455E+01  0.38968771455E+01  0.00000000000E+00 0. -1.
         25    1    1    2    0    0  0.00000000000E+00  0.00000000000E+00  0.99850834481E+03  0.10063020991E+04  0.12500000000E+03 0.  0.
<mgrwt>
<rscale>  2 0.12500000E+03</rscale>
<asrwt>0</asrwt>
<pdfrwt beam="1">  1       21 0.15421598E+00 0.12500000E+03</pdfrwt>
<pdfrwt beam="2">  1       21 0.59952036E-03 0.12500000E+03</pdfrwt>
<totfact> 0.23461975E+06</totfact>
</mgrwt>
</event>
<event>
 3    0  0.1631209E+001  0.1250000E+03  0.7546771E-02  0.1235069E+00
         21   -1    0    0  502  501  0.00000000000E+00  0.00000000000E+00  0.18395430291E+03  0.18395430291E+03  0.00000000000E+00 0. -1.
         21   -1    0    0  501  502 -0.00000000000E+00 -0.00000000000E+00 -0.21234893330E+02  0.21234893330E+02  0.00000000000E+00 0. -1.
         25    1    1    2    0    0  0.00000000000E+00  0.00000000000E+00  0.16271940958E+03  0.20518919624E+03  0.12500000000E+03 0.  0.
<mgrwt>
<rscale>  2 0.12500000E+03</rscale>
<asrwt>0</asrwt>
<pdfrwt beam="1">  1       21 0.28300661E-01 0.12500000E+03</pdfrwt>
<pdfrwt beam="2">  1       21 0.32669068E-02 0.12500000E+03</pdfrwt>
<totfact> 0.64369269E+06</totfact>
</mgrwt>
</event>
<event>
 3    0  0.1723744E+001  0.1250000E+03  0.7546771E-02  0.1235069E+00
         21   -1    0    0  502  501  0.00000000000E+00  0.00000000000E+00  0.80707744727E+02  0.80707744727E+02  0.00000000000E+00 0.  1.
         21   -1    0    0  501  502 -0.00000000000E+00 -0.00000000000E+00 -0.48399939971E+02  0.48399939971E+02  0.00000000000E+00 0.  1.
         25    1    1    2    0    0  0.00000000000E+00  0.00000000000E+00  0.32307804755E+02  0.12910768470E+03  0.12500000000E+03 0.  0.
<mgrwt>
<rscale>  2 0.12500000E+03</rscale>
<asrwt>0</asrwt>
<pdfrwt beam="1">  1       21 0.12416576E-01 0.12500000E+03</pdfrwt>
<pdfrwt beam="2">  1       21 0.74461446E-02 0.12500000E+03</pdfrwt>
<totfact> 0.73484423E+06</totfact>
</mgrwt>
</event>
<event>
 3    0  0.1606571E+001  0.1250000E+03  0.7546771E-02  0.1235069E+00
         21   -1    0    0  502  501  0.00000000000E+00  0.00000000000E+00  0.15564709925E+02  0.15564709925E+02  0.00000000000E+00 0.  1.
         21   -1    0    0  501  502 -0.00000000000E+00 -0.00000000000E+00 -0.25096837775E+03  0.25096837775E+03  0.00000000000E+00 0.  1.
         25    1    1    2    0    0  0.00000000000E+00  0.00000000000E+00 -0.23540366782E+03  0.26653308767E+03  0.12500000000E+03 0.  0.
<mgrwt>
<rscale>  2 0.12500000E+03</rscale>
<asrwt>0</asrwt>
<pdfrwt beam="1">  1       21 0.23945707E-02 0.12500000E+03</pdfrwt>
<pdfrwt beam="2">  1       21 0.38610521E-01 0.12500000E+03</pdfrwt>
<totfact> 0.58355605E+06</totfact>
</mgrwt>
</event>
<event>
 3    0  0.1724240E+001  0.1250000E+03  0.7546771E-02  0.1235069E+00
         21   -1    0    0  502  501  0.00000000000E+00  0.00000000000E+00  0.70509151770E+02  0.70509151770E+02  0.00000000000E+00 0.  1.
         21   -1    0    0  501  502 -0.00000000000E+00 -0.00000000000E+00 -0.55400609736E+02  0.55400609736E+02  0.00000000000E+00 0.  1.
         25    1    1    2    0    0  0.00000000000E+00  0.00000000000E+00  0.15108542034E+02  0.12590976151E+03  0.12500000000E+03 0.  0.
<mgrwt>
<rscale>  2 0.12500000E+03</rscale>
<asrwt>0</asrwt>
<pdfrwt beam="1">  1       21 0.10847562E-01 0.12500000E+03</pdfrwt>
<pdfrwt beam="2">  1       21 0.85231707E-02 0.12500000E+03</pdfrwt>
<totfact> 0.73918492E+06</totfact>
</mgrwt>
</event>
<event>
 3    0  0.1695382E+001  0.1250000E+03  0.7546771E-02  0.1235069E+00
         21   -1    0    0  502  501  0.00000000000E+00  0.00000000000E+00  0.13295141215E+03  0.13295141215E+03  0.00000000000E+00 0.  1.
         21   -1    0    0  501  502 -0.00000000000E+00 -0.00000000000E+00 -0.29381034296E+02  0.29381034296E+02  0.00000000000E+00 0.  1.
         25    1    1    2    0    0  0.00000000000E+00  0.00000000000E+00  0.10357037785E+03  0.16233244644E+03  0.12500000000E+03 0.  0.
<mgrwt>
<rscale>  2 0.12500000E+03</rscale>
<asrwt>0</asrwt>
<pdfrwt beam="1">  1       21 0.20454063E-01 0.12500000E+03</pdfrwt>
<pdfrwt beam="2">  1       21 0.45201592E-02 0.12500000E+03</pdfrwt>
<totfact> 0.69235614E+06</totfact>
</mgrwt>
</event>
<event>
 3    0  0.1725964E+001  0.1250000E+03  0.7546771E-02  0.1235069E+00
         21   -1    0    0  502  501  0.00000000000E+00  0.00000000000E+00  0.66371666595E+02  0.66371666595E+02  0.00000000000E+00 0.  1.
         21   -1    0    0  501  502 -0.00000000000E+00 -0.00000000000E+00 -0.58854179809E+02  0.58854179809E+02  0.00000000000E+00 0.  1.
         25    1    1    2    0    0  0.00000000000E+00  0.00000000000E+00  0.75174867855E+01  0.12522584640E+03  0.12500000000E+03 0.  0.
<mgrwt>
<rscale>  2 0.12500000E+03</rscale>
<asrwt>0</asrwt>
<pdfrwt beam="1">  1       21 0.10211026E-01 0.12500000E+03</pdfrwt>
<pdfrwt beam="2">  1       21 0.90544891E-02 0.12500000E+03</pdfrwt>
<totfact> 0.74013082E+06</totfact>
</mgrwt>
</event>
<event>
 3    0  0.1368989E+001  0.1250000E+03  0.7546771E-02  0.1235069E+00
         21   -1    0    0  502  501  0.00000000000E+00  0.00000000000E+00  0.77829978815E+03  0.77829978815E+03  0.00000000000E+00 0. -1.
         21   -1    0    0  501  502 -0.00000000000E+00 -0.00000000000E+00 -0.50189529273E+01  0.50189529273E+01  0.00000000000E+00 0. -1.
         25    1    1    2    0    0  0.00000000000E+00  0.00000000000E+00  0.77328083522E+03  0.78331874107E+03  0.12500000000E+03 0.  0.
<mgrwt>
<rscale>  2 0.12500000E+03</rscale>
<asrwt>0</asrwt>
<pdfrwt beam="1">  1       21 0.11973833E+00 0.12500000E+03</pdfrwt>
<pdfrwt beam="2">  1       21 0.77214722E-03 0.12500000E+03</pdfrwt>
<totfact> 0.29923026E+06</totfact>
</mgrwt>
</event>
<event>
 3    0  0.1368989E+001  0.1250000E+03  0.7546771E-02  0.1235069E+00
         21   -1    0    0  502  501  0.00000000000E+00  0.00000000000E+00  0.60879113361E+03  0.60879113361E+03  0.00000000000E+00 0. -1.
         21   -1    0    0  501  502 -0.00000000000E+00 -0.00000000000E+00 -0.64164042220E+01  0.64164042220E+01  0.00000000000E+00 0. -1.
         25    1    1    2    0    0  0.00000000000E+00  0.00000000000E+00  0.60237472939E+03  0.61520753783E+03  0.12500000000E+03 0.  0.
<mgrwt>
<rscale>  2 0.12500000E+03</rscale>
<asrwt>0</asrwt>
<pdfrwt beam="1">  1       21 0.93660129E-01 0.12500000E+03</pdfrwt>
<pdfrwt beam="2">  1       21 0.98713959E-03 0.12500000E+03</pdfrwt>
<totfact> 0.36413810E+06</totfact>
</mgrwt>
</event>
<event>
 3    0  0.1676882E+001  0.1250000E+03  0.7546771E-02  0.1235069E+00
         21   -1    0    0  502  501  0.00000000000E+00  0.00000000000E+00  0.32147943637E+02  0.32147943637E+02  0.00000000000E+00 0. -1.
         21   -1    0    0  501  502 -0.00000000000E+00 -0.00000000000E+00 -0.12150854948E+03  0.12150854948E+03  0.00000000000E+00 0. -1.
         25    1    1    2    0    0  0.00000000000E+00  0.00000000000E+00 -0.89360605838E+02  0.15365649311E+03  0.12500000000E+03 0.  0.
<mgrwt>
<rscale>  2 0.12500000E+03</rscale>
<asrwt>0</asrwt>
<pdfrwt beam="1">  1       21 0.49458374E-02 0.12500000E+03</pdfrwt>
<pdfrwt beam="2">  1       21 0.18693623E-01 0.12500000E+03</pdfrwt>
<totfact> 0.70302844E+06</totfact>
</mgrwt>
</event>
<event>
 3    0  0.1586340E+001  0.1250000E+03  0.7546771E-02  0.1235069E+00
         21   -1    0    0  502  501  0.00000000000E+00  0.00000000000E+00  0.27148158292E+03  0.27148158292E+03  0.00000000000E+00 0. -1.
         21   -1    0    0  501  502 -0.00000000000E+00 -0.00000000000E+00 -0.14388637189E+02  0.14388637189E+02  0.00000000000E+00 0. -1.
         25    1    1    2    0    0  0.00000000000E+00  0.00000000000E+00  0.25709294573E+03  0.28587022010E+03  0.12500000000E+03 0.  0.
<mgrwt>
<rscale>  2 0.12500000E+03</rscale>
<asrwt>0</asrwt>
<pdfrwt beam="1">  1       21 0.41766394E-01 0.12500000E+03</pdfrwt>
<pdfrwt beam="2">  1       21 0.22136367E-02 0.12500000E+03</pdfrwt>
<totfact> 0.56651245E+06</totfact>
</mgrwt>
</event>
<event>
 3    0  0.1680347E+001  0.1250000E+03  0.7546771E-02  0.1235069E+00
         21   -1    0    0  502  501  0.00000000000E+00  0.00000000000E+00  0.16762662041E+03  0.16762662041E+03  0.00000000000E+00 0.  1.
         21   -1    0    0  501  502 -0.00000000000E+00 -0.00000000000E+00 -0.23303279577E+02  0.23303279577E+02  0.00000000000E+00 0.  1.
         25    1    1    2    0    0  0.00000000000E+00  0.00000000000E+00  0.14432334084E+03  0.19092989999E+03  0.12500000000E+03 0.  0.
<mgrwt>
<rscale>  2 0.12500000E+03</rscale>
<asrwt>0</asrwt>
<pdfrwt beam="1">  1       21 0.25788710E-01 0.12500000E+03</pdfrwt>
<pdfrwt beam="2">  1       21 0.35851200E-02 0.12500000E+03</pdfrwt>
<totfact> 0.65919264E+06</totfact>
</mgrwt>
</event>
<event>
 3    0  0.1724671E+001  0.1250000E+03  0.7546771E-02  0.1235069E+00
         21   -1    0    0  502  501  0.00000000000E+00  0.00000000000E+00  0.53141503078E+02  0.53141503078E+02  0.00000000000E+00 0.  1.
         21   -1    0    0  501  502 -0.00000000000E+00 -0.00000000000E+00 -0.73506577227E+02  0.73506577227E+02  0.00000000000E+00 0.  1.
         25    1    1    2    0    0  0.00000000000E+00  0.00000000000E+00 -0.20365074149E+02  0.12664808031E+03  0.12500000000E+03 0.  0.
<mgrwt>
<rscale>  2 0.12500000E+03</rscale>
<asrwt>0</asrwt>
<pdfrwt beam="1">  1       21 0.81756158E-02 0.12500000E+03</pdfrwt>
<pdfrwt beam="2">  1       21 0.11308704E-01 0.12500000E+03</pdfrwt>
<totfact> 0.73817126E+06</totfact>
</mgrwt>
</event>
<event>
 3    0  0.1489163E+001  0.1250000E+03  0.7546771E-02  0.1235069E+00
         21   -1    0    0  502  501  0.00000000000E+00  0.00000000000E+00  0.48208260127E+03  0.48208260127E+03  0.00000000000E+00 0.  1.
         21   -1    0    0  501  502 -0.00000000000E+00 -0.00000000000E+00 -0.81028645085E+01  0.81028645085E+01  0.00000000000E+00 0.  1.
         25    1    1    2    0    0  0.00000000000E+00  0.00000000000E+00  0.47397973676E+03  0.49018546578E+03  0.12500000000E+03 0.  0.
<mgrwt>
<rscale>  2 0.12500000E+03</rscale>
<asrwt>0</asrwt>
<pdfrwt beam="1">  1       21 0.74166532E-01 0.12500000E+03</pdfrwt>
<pdfrwt beam="2">  1       21 0.12465949E-02 0.12500000E+03</pdfrwt>
<totfact> 0.42581393E+06</totfact>
</mgrwt>
</event>
<event>
 3    0  0.1527399E+001  0.1250000E+03  0.7546771E-02  0.1235069E+00
         21   -1    0    0  502  501  0.00000000000E+00  0.00000000000E+00  0.36600110951E+03  0.36600110951E+03  0.00000000000E+00 0. -1.
         21   -1    0    0  501  502 -0.00000000000E+00 -0.00000000000E+00 -0.10672781854E+02  0.10672781854E+02  0.00000000000E+00 0. -1.
         25    1    1    2    0    0  0.00000000000E+00  0.00000000000E+00  0.35532832766E+03  0.37667389137E+03  0.12500000000E+03 0.  0.
<mgrwt>
<rscale>  2 0.12500000E+03</rscale>
<asrwt>0</asrwt>
<pdfrwt beam="1">  1       21 0.56307853E-01 0.12500000E+03</pdfrwt>
<pdfrwt beam="2">  1       21 0.16419667E-02 0.12500000E+03</pdfrwt>
<totfact> 0.49626833E+06</totfact>
</mgrwt>
</event>
<event>
 3    0  0.1664562E+001  0.1250000E+03  0.7546771E-02  0.1235069E+00
         21   -1    0    0  502  501  0.00000000000E+00  0.00000000000E+00  0.26838732594E+02  0.26838732594E+02  0.00000000000E+00 0. -1.
         21   -1    0    0  501  502 -0.00000000000E+00 -0.00000000000E+00 -0.14554524832E+03  0.14554524832E+03  0.00000000000E+00 0. -1.
         25    1    1    2    0    0  0.00000000000E+00  0.00000000000E+00 -0.11870651573E+03  0.17238398091E+03  0.12500000000E+03 0.  0.
<mgrwt>
<rscale>  2 0.12500000E+03</rscale>
<asrwt>0</asrwt>
<pdfrwt beam="1">  1       21 0.41290358E-02 0.12500000E+03</pdfrwt>
<pdfrwt beam="2">  1       21 0.22391577E-01 0.12500000E+03</pdfrwt>
<totfact> 0.68036146E+06</totfact>
</mgrwt>
</event>
<event>
 3    0  0.1594796E+001  0.1250000E+03  0.7546771E-02  0.1235069E+00
         21   -1    0    0  502  501  0.00000000000E+00  0.00000000000E+00  0.15086615446E+02  0.15086615446E+02  0.00000000000E+00 0. -1.
         21   -1    0    0  501  502 -0.00000000000E+00 -0.00000000000E+00 -0.25892155957E+03  0.25892155957E+03  0.00000000000E+00 0. -1.
         25    1    1    2    0    0  0.00000000000E+00  0.00000000000E+00 -0.24383494413E+03  0.27400817502E+03  0.12500000000E+03 0.  0.
<mgrwt>
<rscale>  2 0.12500000E+03</rscale>
<asrwt>0</asrwt>
<pdfrwt beam="1">  1       21 0.23210177E-02 0.12500000E+03</pdfrwt>
<pdfrwt beam="2">  1       21 0.39834088E-01 0.12500000E+03</pdfrwt>
<totfact> 0.57687813E+06</totfact>
</mgrwt>
</event>
<event>
 3    0  0.1723690E+001  0.1250000E+03  0.7546771E-02  0.1235069E+00
         21   -1    0    0  502  501  0.00000000000E+00  0.00000000000E+00  0.77798922697E+02  0.77798922697E+02  0.00000000000E+00 0.  1.
         21   -1    0    0  501  502 -0.00000000000E+00 -0.00000000000E+00 -0.50209564150E+02  0.50209564150E+02  0.00000000000E+00 0.  1.
         25    1    1    2    0    0  0.00000000000E+00  0.00000000000E+00  0.27589358547E+02  0.12800848685E+03  0.12500000000E+03 0.  0.
<mgrwt>
<rscale>  2 0.12500000E+03</rscale>
<asrwt>0</asrwt>
<pdfrwt beam="1">  1       21 0.11969065E-01 0.12500000E+03</pdfrwt>
<pdfrwt beam="2">  1       21 0.77245483E-02 0.12500000E+03</pdfrwt>
<totfact> 0.73632413E+06</totfact>
</mgrwt>
</event>
<event>
 3    0  0.1701958E+001  0.1250000E+03  0.7546771E-02  0.1235069E+00
         21   -1    0    0  502  501  0.00000000000E+00  0.00000000000E+00  0.62349732584E+02  0.62349732584E+02  0.00000000000E+00 0. -1.
         21   -1    0    0  501  502 -0.00000000000E+00 -0.00000000000E+00 -0.62650629571E+02  0.62650629571E+02  0.00000000000E+00 0. -1.
         25    1    1    2    0    0  0.00000000000E+00  0.00000000000E+00 -0.30089698743E+00  0.12500036216E+03  0.12500000000E+03 0.  0.
<mgrwt>
<rscale>  2 0.12500000E+03</rscale>
<asrwt>0</asrwt>
<pdfrwt beam="1">  1       21 0.95922666E-02 0.12500000E+03</pdfrwt>
<pdfrwt beam="2">  1       21 0.96385583E-02 0.12500000E+03</pdfrwt>
<totfact> 0.74043533E+06</totfact>
</mgrwt>
</event>
<event>
 3    0  0.1675494E+001  0.1250000E+03  0.7546771E-02  0.1235069E+00
         21   -1    0    0  502  501  0.00000000000E+00  0.00000000000E+00  0.13108180760E+03  0.13108180760E+03  0.00000000000E+00 0. -1.
         21   -1    0    0  501  502 -0.00000000000E+00 -0.00000000000E+00 -0.29800092565E+02  0.29800092565E+02  0.00000000000E+00 0. -1.
         25    1    1    2    0    0  0.00000000000E+00  0.00000000000E+00  0.10128171503E+03  0.16088190016E+03  0.12500000000E+03 0.  0.
<mgrwt>
<rscale>  2 0.12500000E+03</rscale>
<asrwt>0</asrwt>
<pdfrwt beam="1">  1       21 0.20166432E-01 0.12500000E+03</pdfrwt>
<pdfrwt beam="2">  1       21 0.45846297E-02 0.12500000E+03</pdfrwt>
<totfact> 0.69411898E+06</totfact>
</mgrwt>
</event>
<event>
 3    0  0.1608906E+001  0.1250000E+03  0.7546771E-02  0.1235069E+00
         21   -1    0    0  502  501  0.00000000000E+00  0.00000000000E+00  0.21936545642E+03  0.21936545642E+03  0.00000000000E+00 0. -1.
         21   -1    0    0  501  502 -0.00000000000E+00 -0.00000000000E+00 -0.17807042475E+02  0.17807042475E+02  0.00000000000E+00 0. -1.
         25    1    1    2    0    0  0.00000000000E+00  0.00000000000E+00  0.20155841395E+03  0.23717249890E+03  0.12500000000E+03 0.  0.
<mgrwt>
<rscale>  2 0.12500000E+03</rscale>
<asrwt>0</asrwt>
<pdfrwt beam="1">  1       21 0.33748530E-01 0.12500000E+03</pdfrwt>
<pdfrwt beam="2">  1       21 0.27395451E-02 0.12500000E+03</pdfrwt>
<totfact> 0.61107352E+06</totfact>
</mgrwt>
</event>
<event>
 3    0  0.1629275E+001  0.1250000E+03  0.7546771E-02  0.1235069E+00
         21   -1    0    0  502  501  0.00000000000E+00  0.00000000000E+00  0.18476305955E+03  0.18476305955E+03  0.00000000000E+00 0. -1.
         21   -1    0    0  501  502 -0.00000000000E+00 -0.00000000000E+00 -0.21141942602E+02  0.21141942602E+02  0.00000000000E+00 0. -1.
         25    1    1    2    0    0  0.00000000000E+00  0.00000000000E+00  0.16362111695E+03  0.20590500216E+03  0.12500000000E+03 0.  0.
<mgrwt>
<rscale>  2 0.12500000E+03</rscale>
<asrwt>0</asrwt>
<pdfrwt beam="1">  1       21 0.28425085E-01 0.12500000E+03</pdfrwt>
<pdfrwt beam="2">  1       21 0.32526067E-02 0.12500000E+03</pdfrwt>
<totfact> 0.64292969E+06</totfact>
</mgrwt>
</event>
<event>
 3    0  0.1368989E+001  0.1250000E+03  0.7546771E-02  0.1235069E+00
         21   -1    0    0  502  501  0.00000000000E+00  0.00000000000E+00  0.36482001395E+01  0.36482001395E+01  0.00000000000E+00 0.  1.
         21   -1    0    0  501  502 -0.00000000000E+00 -0.00000000000E+00 -0.10707334715E+04  0.10707334715E+04  0.00000000000E+00 0.  1.
         25    1    1    2    0    0  0.00000000000E+00  0.00000000000E+00 -0.10670852713E+04  0.10743816716E+04  0.12500000000E+03 0.  0.
<mgrwt>
<rscale>  2 0.12500000E+03</rscale>
<asrwt>0</asrwt>
<pdfrwt beam="1">  1       21 0.56126205E-03 0.12500000E+03</pdfrwt>
<pdfrwt beam="2">  1       21 0.16472808E+00 0.12500000E+03</pdfrwt>
<totfact> 0.21830360E+06</totfact>
</mgrwt>
</event>
<event>
 3    0  0.1698239E+001  0.1250000E+03  0.7546771E-02  0.1235069E+00
         21   -1    0    0  502  501  0.00000000000E+00  0.00000000000E+00  0.31810201726E+02  0.31810201726E+02  0.00000000000E+00 0.  1.
         21   -1    0    0  501  502 -0.00000000000E+00 -0.00000000000E+00 -0.12279865540E+03  0.12279865540E+03  0.00000000000E+00 0.  1.
         25    1    1    2    0    0  0.00000000000E+00  0.00000000000E+00 -0.90988453675E+02  0.15460885713E+03  0.12500000000E+03 0.  0.
<mgrwt>
<rscale>  2 0.12500000E+03</rscale>
<asrwt>0</asrwt>
<pdfrwt beam="1">  1       21 0.48938772E-02 0.12500000E+03</pdfrwt>
<pdfrwt beam="2">  1       21 0.18892101E-01 0.12500000E+03</pdfrwt>
<totfact> 0.70184305E+06</totfact>
</mgrwt>
</event>
<event>
 3    0  0.1472575E+001  0.1250000E+03  0.7546771E-02  0.1235069E+00
         21   -1    0    0  502  501  0.00000000000E+00  0.00000000000E+00  0.49088226307E+03  0.49088226307E+03  0.00000000000E+00 0.  1.
         21   -1    0    0  501  502 -0.00000000000E+00 -0.00000000000E+00 -0.79576108038E+01  0.79576108038E+01  0.00000000000E+00 0.  1.
         25    1    1    2    0    0  0.00000000000E+00  0.00000000000E+00  0.48292465226E+03  0.49883987387E+03  0.12500000000E+03 0.  0.
<mgrwt>
<rscale>  2 0.12500000E+03</rscale>
<asrwt>0</asrwt>
<pdfrwt beam="1">  1       21 0.75520324E-01 0.12500000E+03</pdfrwt>
<pdfrwt beam="2">  1       21 0.12242482E-02 0.12500000E+03</pdfrwt>
<totfact> 0.42107065E+06</totfact>
</mgrwt>
</event>
<event>
 3    0  0.1378407E+001  0.1250000E+03  0.7546771E-02  0.1235069E+00
         21   -1    0    0  502  501  0.00000000000E+00  0.00000000000E+00  0.68079671335E+03  0.68079671335E+03  0.00000000000E+00 0. -1.
         21   -1    0    0  501  502 -0.00000000000E+00 -0.00000000000E+00 -0.57377627174E+01  0.57377627174E+01  0.00000000000E+00 0. -1.
         25    1    1    2    0    0  0.00000000000E+00  0.00000000000E+00  0.67505895063E+03  0.68653447607E+03  0.12500000000E+03 0.  0.
<mgrwt>
<rscale>  2 0.12500000E+03</rscale>
<asrwt>0</asrwt>
<pdfrwt beam="1">  1       21 0.10473789E+00 0.12500000E+03</pdfrwt>
<pdfrwt beam="2">  1       21 0.88273326E-03 0.12500000E+03</pdfrwt>
<totfact> 0.33435795E+06</totfact>
</mgrwt>
</event>
<event>
 3    0  0.1668445E+001  0.1250000E+03  0.7546771E-02  0.1235069E+00
         21   -1    0    0  502  501  0.00000000000E+00  0.00000000000E+00  0.22623788850E+02  0.22623788850E+02  0.00000000000E+00 0.  1.
         21   -1    0    0  501  502 -0.00000000000E+00 -0.00000000000E+00 -0.17266117651E+03  0.17266117651E+03  0.00000000000E+00 0.  1.
         25    1    1    2    0    0  0.00000000000E+00  0.00000000000E+00 -0.15003738766E+03  0.19528496536E+03  0.12500000000E+03 0.  0.
<mgrwt>
<rscale>  2 0.12500000E+03</rscale>
<asrwt>0</asrwt>
<pdfrwt beam="1">  1       21 0.34805829E-02 0.12500000E+03</pdfrwt>
<pdfrwt beam="2">  1       21 0.26563258E-01 0.12500000E+03</pdfrwt>
<totfact> 0.65439847E+06</totfact>
</mgrwt>
</event>
<event>
 3    0  0.1701880E+001  0.1250000E+03  0.7546771E-02  0.1235069E+00
         21   -1    0    0  502  501  0.00000000000E+00  0.00000000000E+00  0.63773108891E+02  0.63773108891E+02  0.00000000000E+00 0. -1.
         21   -1    0    0  501  502 -0.00000000000E+00 -0.00000000000E+00 -0.61252306307E+02  0.61252306307E+02  0.00000000000E+00 0. -1.
         25    1    1    2    0    0  0.00000000000E+00  0.00000000000E+00  0.25208025840E+01  0.12502541520E+03  0.12500000000E+03 0.  0.
<mgrwt>
<rscale>  2 0.12500000E+03</rscale>
<asrwt>0</asrwt>
<pdfrwt beam="1">  1       21 0.98112475E-02 0.12500000E+03</pdfrwt>
<pdfrwt beam="2">  1       21 0.94234318E-02 0.12500000E+03</pdfrwt>
<totfact> 0.74040149E+06</totfact>
</mgrwt>
</event>
<event>
 3    0  0.1468314E+001  0.1250000E+03  0.7546771E-02  0.1235069E+00
         21   -1    0    0  502  501  0.00000000000E+00  0.00000000000E+00  0.49316556353E+03  0.49316556353E+03  0.00000000000E+00 0.  1.
         21   -1    0    0  501  502 -0.00000000000E+00 -0.00000000000E+00 -0.79207679710E+01  0.79207679710E+01  0.00000000000E+00 0.  1.
         25    1    1    2    0    0  0.00000000000E+00  0.00000000000E+00  0.48524479556E+03  0.50108633150E+03  0.12500000000E+03 0.  0.
<mgrwt>
<rscale>  2 0.12500000E+03</rscale>
<asrwt>0</asrwt>
<pdfrwt beam="1">  1       21 0.75871601E-01 0.12500000E+03</pdfrwt>
<pdfrwt beam="2">  1       21 0.12185801E-02 0.12500000E+03</pdfrwt>
<totfact> 0.41985226E+06</totfact>
</mgrwt>
</event>
<event>
 3    0  0.1368989E+001  0.1250000E+03  0.7546771E-02  0.1235069E+00
         21   -1    0    0  502  501  0.00000000000E+00  0.00000000000E+00  0.97355623735E+03  0.97355623735E+03  0.00000000000E+00 0.  1.
         21   -1    0    0  501  502 -0.00000000000E+00 -0.00000000000E+00 -0.40123516754E+01  0.40123516754E+01  0.00000000000E+00 0.  1.
         25    1    1    2    0    0  0.00000000000E+00  0.00000000000E+00  0.96954388567E+03  0.97756858902E+03  0.12500000000E+03 0.  0.
<mgrwt>
<rscale>  2 0.12500000E+03</rscale>
<asrwt>0</asrwt>
<pdfrwt beam="1">  1       21 0.14977769E+00 0.12500000E+03</pdfrwt>
<pdfrwt beam="2">  1       21 0.61728565E-03 0.12500000E+03</pdfrwt>
<totfact> 0.24187567E+06</totfact>
</mgrwt>
</event>
<event>
 3    0  0.1651137E+001  0.1250000E+03  0.7546771E-02  0.1235069E+00
         21   -1    0    0  502  501  0.00000000000E+00  0.00000000000E+00  0.15371889745E+03  0.15371889745E+03  0.00000000000E+00 0. -1.
         21   -1    0    0  501  502 -0.00000000000E+00 -0.00000000000E+00 -0.25411644663E+02  0.25411644663E+02  0.00000000000E+00 0. -1.
         25    1    1    2    0    0  0.00000000000E+00  0.00000000000E+00  0.12830725279E+03  0.17913054211E+03  0.12500000000E+03 0.  0.
<mgrwt>
<rscale>  2 0.12500000E+03</rscale>
<asrwt>0</asrwt>
<pdfrwt beam="1">  1       21 0.23649061E-01 0.12500000E+03</pdfrwt>
<pdfrwt beam="2">  1       21 0.39094839E-02 0.12500000E+03</pdfrwt>
<totfact> 0.67251418E+06</totfact>
</mgrwt>
</event>
<event>
 3    0  0.1554079E+001  0.1250000E+03  0.7546771E-02  0.1235069E+00
         21   -1    0    0  502  501  0.00000000000E+00  0.00000000000E+00  0.34015171558E+03  0.34015171558E+03  0.00000000000E+00 0.  1.
         21   -1    0    0  501  502 -0.00000000000E+00 -0.00000000000E+00 -0.11483846240E+02  0.11483846240E+02  0.00000000000E+00 0.  1.
         25    1    1    2    0    0  0.00000000000E+00  0.00000000000E+00  0.32866786934E+03  0.35163556182E+03  0.12500000000E+03 0.  0.
<mgrwt>
<rscale>  2 0.12500000E+03</rscale>
<asrwt>0</asrwt>
<pdfrwt beam="1">  1       21 0.52331025E-01 0.12500000E+03</pdfrwt>
<pdfrwt beam="2">  1       21 0.17667458E-02 0.12500000E+03</pdfrwt>
<totfact> 0.51417871E+06</totfact>
</mgrwt>
</event>
<event>
 3    0  0.1585790E+001  0.1250000E+03  0.7546771E-02  0.1235069E+00
         21   -1    0    0  502  501  0.00000000000E+00  0.00000000000E+00  0.31505145885E+03  0.31505145885E+03  0.00000000000E+00 0.  1.
         21   -1    0    0  501  502 -0.00000000000E+00 -0.00000000000E+00 -0.12398768170E+02  0.12398768170E+02  0.00000000000E+00 0.  1.
         25    1    1    2    0    0  0.00000000000E+00  0.00000000000E+00  0.30265269068E+03  0.32745022702E+03  0.12500000000E+03 0.  0.
<mgrwt>
<rscale>  2 0.12500000E+03</rscale>
<asrwt>0</asrwt>
<pdfrwt beam="1">  1       21 0.48469449E-01 0.12500000E+03</pdfrwt>
<pdfrwt beam="2">  1       21 0.19075030E-02 0.12500000E+03</pdfrwt>
<totfact> 0.53248184E+06</totfact>
</mgrwt>
</event>
<event>
 3    0  0.1605306E+001  0.1250000E+03  0.7546771E-02  0.1235069E+00
         21   -1    0    0  502  501  0.00000000000E+00  0.00000000000E+00  0.22089321813E+03  0.22089321813E+03  0.00000000000E+00 0. -1.
         21   -1    0    0  501  502 -0.00000000000E+00 -0.00000000000E+00 -0.17683883793E+02  0.17683883793E+02  0.00000000000E+00 0. -1.
         25    1    1    2    0    0  0.00000000000E+00  0.00000000000E+00  0.20320933434E+03  0.23857710192E+03  0.12500000000E+03 0.  0.
<mgrwt>
<rscale>  2 0.12500000E+03</rscale>
<asrwt>0</asrwt>
<pdfrwt beam="1">  1       21 0.33983570E-01 0.12500000E+03</pdfrwt>
<pdfrwt beam="2">  1       21 0.27205977E-02 0.12500000E+03</pdfrwt>
<totfact> 0.60970627E+06</totfact>
</mgrwt>
</event>
<event>
 3    0  0.1446450E+001  0.1250000E+03  0.7546771E-02  0.1235069E+00
         21   -1    0    0  502  501  0.00000000000E+00  0.00000000000E+00  0.82822309668E+01  0.82822309668E+01  0.00000000000E+00 0. -1.
         21   -1    0    0  501  502 -0.00000000000E+00 -0.00000000000E+00 -0.47164224418E+03  0.47164224418E+03  0.00000000000E+00 0. -1.
         25    1    1    2    0    0  0.00000000000E+00  0.00000000000E+00 -0.46336001321E+03  0.47992447514E+03  0.12500000000E+03 0.  0.
<mgrwt>
<rscale>  2 0.12500000E+03</rscale>
<asrwt>0</asrwt>
<pdfrwt beam="1">  1       21 0.12741896E-02 0.12500000E+03</pdfrwt>
<pdfrwt beam="2">  1       21 0.72560334E-01 0.12500000E+03</pdfrwt>
<totfact> 0.43154168E+06</totfact>
</mgrwt>
</event>
<event>
 3    0  0.1699776E+001  0.1250000E+03  0.7546771E-02  0.1235069E+00
         21   -1    0    0  502  501  0.00000000000E+00  0.00000000000E+00  0.50562409761E+02  0.50562409761E+02  0.00000000000E+00 0. -1.
         21   -1    0    0  501  502 -0.00000000000E+00 -0.00000000000E+00 -0.77256009326E+02  0.77256009326E+02  0.00000000000E+00 0. -1.
         25    1    1    2    0    0  0.00000000000E+00  0.00000000000E+00 -0.26693599565E+02  0.12781841909E+03  0.12500000000E+03 0.  0.
<mgrwt>
<rscale>  2 0.12500000E+03</rscale>
<asrwt>0</asrwt>
<pdfrwt beam="1">  1       21 0.77788323E-02 0.12500000E+03</pdfrwt>
<pdfrwt beam="2">  1       21 0.11885540E-01 0.12500000E+03</pdfrwt>
<totfact> 0.73658103E+06</totfact>
</mgrwt>
</event>
<event>
 3    0  0.1368989E+001  0.1250000E+03  0.7546771E-02  0.1235069E+00
         21   -1    0    0  502  501  0.00000000000E+00  0.00000000000E+00  0.10743705138E+04  0.10743705138E+04  0.00000000000E+00 0.  1.
         21   -1    0    0  501  502 -0.00000000000E+00 -0.00000000000E+00 -0.36358499697E+01  0.36358499697E+01  0.00000000000E+00 0.  1.
         25    1    1    2    0    0  0.00000000000E+00  0.00000000000E+00  0.10707346638E+04  0.10780063637E+04  0.12500000000E+03 0.  0.
<mgrwt>
<rscale>  2 0.12500000E+03</rscale>
<asrwt>0</asrwt>
<pdfrwt beam="1">  1       21 0.16528752E+00 0.12500000E+03</pdfrwt>
<pdfrwt beam="2">  1       21 0.55936239E-03 0.12500000E+03</pdfrwt>
<totfact> 0.21747328E+06</totfact>
</mgrwt>
</event>
<event>
 3    0  0.1541427E+001  0.1250000E+03  0.7546771E-02  0.1235069E+00
         21   -1    0    0  502  501  0.00000000000E+00  0.00000000000E+00  0.34607472658E+03  0.34607472658E+03  0.00000000000E+00 0.  1.
         21   -1    0    0  501  502 -0.00000000000E+00 -0.00000000000E+00 -0.11287302134E+02  0.11287302134E+02  0.00000000000E+00 0.  1.
         25    1    1    2    0    0  0.00000000000E+00  0.00000000000E+00  0.33478742444E+03  0.35736202871E+03  0.12500000000E+03 0.  0.
<mgrwt>
<rscale>  2 0.12500000E+03</rscale>
<asrwt>0</asrwt>
<pdfrwt beam="1">  1       21 0.53242258E-01 0.12500000E+03</pdfrwt>
<pdfrwt beam="2">  1       21 0.17365083E-02 0.12500000E+03</pdfrwt>
<totfact> 0.50999283E+06</totfact>
</mgrwt>
</event>
<event>
 3    0  0.1368989E+001  0.1250000E+03  0.7546771E-02  0.1235069E+00
         21   -1    0    0  502  501  0.00000000000E+00  0.00000000000E+00  0.12086042528E+04  0.12086042528E+04  0.00000000000E+00 0.  1.
         21   -1    0    0  501  502 -0.00000000000E+00 -0.00000000000E+00 -0.32320339688E+01  0.32320339688E+01  0.00000000000E+00 0.  1.
         25    1    1    2    0    0  0.00000000000E+00  0.00000000000E+00  0.12053722189E+04  0.12118362868E+04  0.12500000000E+03 0.  0.
<mgrwt>
<rscale>  2 0.12500000E+03</rscale>
<asrwt>0</asrwt>
<pdfrwt beam="1">  1       21 0.18593876E+00 0.12500000E+03</pdfrwt>
<pdfrwt beam="2">  1       21 0.49723696E-03 0.12500000E+03</pdfrwt>
<totfact> 0.18909124E+06</totfact>
</mgrwt>
</event>
<event>
 3    0  0.1413497E+001  0.1250000E+03  0.7546771E-02  0.1235069E+00
         21   -1    0    0  502  501  0.00000000000E+00  0.00000000000E+00  0.69900039480E+01  0.69900039480E+01  0.00000000000E+00 0.  1.
         21   -1    0    0  501  502 -0.00000000000E+00 -0.00000000000E+00 -0.55883373300E+03  0.55883373300E+03  0.00000000000E+00 0.  1.
         25    1    1    2    0    0  0.00000000000E+00  0.00000000000E+00 -0.55184372906E+03  0.56582373695E+03  0.12500000000E+03 0.  0.
<mgrwt>
<rscale>  2 0.12500000E+03</rscale>
<asrwt>0</asrwt>
<pdfrwt beam="1">  1       21 0.10753855E-02 0.12500000E+03</pdfrwt>
<pdfrwt beam="2">  1       21 0.85974399E-01 0.12500000E+03</pdfrwt>
<totfact> 0.38685281E+06</totfact>
</mgrwt>
</event>
<event>
 3    0  0.1698006E+001  0.1250000E+03  0.7546771E-02  0.1235069E+00
         21   -1    0    0  502  501  0.00000000000E+00  0.00000000000E+00  0.14102336320E+03  0.14102336320E+03  0.00000000000E+00 0.  1.
         21   -1    0    0  501  502 -0.00000000000E+00 -0.00000000000E+00 -0.27699311031E+02  0.27699311031E+02  0.00000000000E+00 0.  1.
         25    1    1    2    0    0  0.00000000000E+00  0.00000000000E+00  0.11332405217E+03  0.16872267423E+03  0.12500000000E+03 0.  0.
<mgrwt>
<rscale>  2 0.12500000E+03</rscale>
<asrwt>0</asrwt>
<pdfrwt beam="1">  1       21 0.21695902E-01 0.12500000E+03</pdfrwt>
<pdfrwt beam="2">  1       21 0.42614325E-02 0.12500000E+03</pdfrwt>
<totfact> 0.68469074E+06</totfact>
</mgrwt>
</event>
<event>
 3    0  0.1376498E+001  0.1250000E+03  0.7546771E-02  0.1235069E+00
         21   -1    0    0  502  501  0.00000000000E+00  0.00000000000E+00  0.69427420053E+03  0.69427420053E+03  0.00000000000E+00 0.  1.
         21   -1    0    0  501  502 -0.00000000000E+00 -0.00000000000E+00 -0.56263793139E+01  0.56263793139E+01  0.00000000000E+00 0.  1.
         25    1    1    2    0    0  0.00000000000E+00  0.00000000000E+00  0.68864782121E+03  0.69990057984E+03  0.12500000000E+03 0.  0.
<mgrwt>
<rscale>  2 0.12500000E+03</rscale>
<asrwt>0</asrwt>
<pdfrwt beam="1">  1       21 0.10681135E+00 0.12500000E+03</pdfrwt>
<pdfrwt beam="2">  1       21 0.86559737E-03 0.12500000E+03</pdfrwt>
<totfact> 0.32913989E+06</totfact>
</mgrwt>
</event>
<event>
 3    0  0.1532170E+001  0.1250000E+03  0.7546771E-02  0.1235069E+00
         21   -1    0    0  502  501  0.00000000000E+00  0.00000000000E+00  0.38013659368E+03  0.38013659368E+03  0.00000000000E+00 0. -1.
         21   -1    0    0  501  502 -0.00000000000E+00 -0.00000000000E+00 -0.10275911514E+02  0.10275911514E+02  0.00000000000E+00 0. -1.
         25    1    1    2    0    0  0.00000000000E+00  0.00000000000E+00  0.36986068217E+03  0.39041250520E+03  0.12500000000E+03 0.  0.
<mgrwt>
<rscale>  2 0.12500000E+03</rscale>
<asrwt>0</asrwt>
<pdfrwt beam="1">  1       21 0.58482542E-01 0.12500000E+03</pdfrwt>
<pdfrwt beam="2">  1       21 0.15809098E-02 0.12500000E+03</pdfrwt>
<totfact> 0.48683853E+06</totfact>
</mgrwt>
</event>
<event>
 3    0  0.1697290E+001  0.1250000E+03  0.7546771E-02  0.1235069E+00
         21   -1    0    0  502  501  0.00000000000E+00  0.00000000000E+00  0.31700520255E+02  0.31700520255E+02  0.00000000000E+00 0.  1.
         21   -1    0    0  501  502 -0.00000000000E+00 -0.00000000000E+00 -0.12322352973E+03  0.12322352973E+03  0.00000000000E+00 0.  1.
         25    1    1    2    0    0  0.00000000000E+00  0.00000000000E+00 -0.91523009472E+02  0.15492404998E+03  0.12500000000E+03 0.  0.
<mgrwt>
<rscale>  2 0.12500000E+03</rscale>
<asrwt>0</asrwt>
<pdfrwt beam="1">  1       21 0.48770031E-02 0.12500000E+03</pdfrwt>
<pdfrwt beam="2">  1       21 0.18957466E-01 0.12500000E+03</pdfrwt>
<totfact> 0.70145100E+06</totfact>
</mgrwt>
</event>
<event>
 3    0  0.1415943E+001  0.1250000E+03  0.7546771E-02  0.1235069E+00
         21   -1    0    0  502  501  0.00000000000E+00  0.00000000000E+00  0.71573806724E+01  0.71573806724E+01  0.00000000000E+00 0. -1.
         21   -1    0    0  501  502 -0.00000000000E+00 -0.00000000000E+00 -0.54576529862E+03  0.54576529862E+03  0.00000000000E+00 0. -1.
         25    1    1    2    0    0  0.00000000000E+00  0.00000000000E+00 -0.53860791795E+03  0.55292267929E+03  0.12500000000E+03 0.  0.
<mgrwt>
<rscale>  2 0.12500000E+03</rscale>
<asrwt>0</asrwt>
<pdfrwt beam="1">  1       21 0.11011353E-02 0.12500000E+03</pdfrwt>
<pdfrwt beam="2">  1       21 0.83963908E-01 0.12500000E+03</pdfrwt>
<totfact> 0.39312039E+06</totfact>
</mgrwt>
</event>
<event>
 3    0  0.1368989E+001  0.1250000E+03  0.7546771E-02  0.1235069E+00
         21   -1    0    0  502  501  0.00000000000E+00  0.00000000000E+00  0.44819194454E+01  0.44819194454E+01  0.00000000000E+00 0.  1.
         21   -1    0    0  501  502 -0.00000000000E+00 -0.00000000000E+00 -0.87155738687E+03  0.87155738687E+03  0.00000000000E+00 0.  1.
         25    1    1    2    0    0  0.00000000000E+00  0.00000000000E+00 -0.86707546742E+03  0.87603930631E+03  0.12500000000E+03 0.  0.
<mgrwt>
<rscale>  2 0.12500000E+03</rscale>
<asrwt>0</asrwt>
<pdfrwt beam="1">  1       21 0.68952587E-03 0.12500000E+03</pdfrwt>
<pdfrwt beam="2">  1       21 0.13408579E+00 0.12500000E+03</pdfrwt>
<totfact> 0.26992389E+06</totfact>
</mgrwt>
</event>
<event>
 3    0  0.1723556E+001  0.1250000E+03  0.7546771E-02  0.1235069E+00
         21   -1    0    0  502  501  0.00000000000E+00  0.00000000000E+00  0.74530650333E+02  0.74530650333E+02  0.00000000000E+00 0.  1.
         21   -1    0    0  501  502 -0.00000000000E+00 -0.00000000000E+00 -0.52411323161E+02  0.52411323161E+02  0.00000000000E+00 0.  1.
         25    1    1    2    0    0  0.00000000000E+00  0.00000000000E+00  0.22119327172E+02  0.12694197349E+03  0.12500000000E+03 0.  0.
<mgrwt>
<rscale>  2 0.12500000E+03</rscale>
<asrwt>0</asrwt>
<pdfrwt beam="1">  1       21 0.11466254E-01 0.12500000E+03</pdfrwt>
<pdfrwt beam="2">  1       21 0.80632805E-02 0.12500000E+03</pdfrwt>
<totfact> 0.73777037E+06</totfact>
</mgrwt>
</event>
<event>
 3    0  0.1661502E+001  0.1250000E+03  0.7546771E-02  0.1235069E+00
         21   -1    0    0  502  501  0.00000000000E+00  0.00000000000E+00  0.14932244788E+03  0.14932244788E+03  0.00000000000E+00 0. -1.
         21   -1    0    0  501  502 -0.00000000000E+00 -0.00000000000E+00 -0.26159830993E+02  0.26159830993E+02  0.00000000000E+00 0. -1.
         25    1    1    2    0    0  0.00000000000E+00  0.00000000000E+00  0.12316261688E+03  0.17548227887E+03  0.12500000000E+03 0.  0.
<mgrwt>
<rscale>  2 0.12500000E+03</rscale>
<asrwt>0</asrwt>
<pdfrwt beam="1">  1       21 0.22972684E-01 0.12500000E+03</pdfrwt>
<pdfrwt beam="2">  1       21 0.40245895E-02 0.12500000E+03</pdfrwt>
<totfact> 0.67673613E+06</totfact>
</mgrwt>
</event>
<event>
 3    0  0.1656451E+001  0.1250000E+03  0.7546771E-02  0.1235069E+00
         21   -1    0    0  502  501  0.00000000000E+00  0.00000000000E+00  0.25726068220E+02  0.25726068220E+02  0.00000000000E+00 0. -1.
         21   -1    0    0  501  502 -0.00000000000E+00 -0.00000000000E+00 -0.15184014777E+03  0.15184014777E+03  0.00000000000E+00 0. -1.
         25    1    1    2    0    0  0.00000000000E+00  0.00000000000E+00 -0.12611407955E+03  0.17756621599E+03  0.12500000000E+03 0.  0.
<mgrwt>
<rscale>  2 0.12500000E+03</rscale>
<asrwt>0</asrwt>
<pdfrwt beam="1">  1       21 0.39578566E-02 0.12500000E+03</pdfrwt>
<pdfrwt beam="2">  1       21 0.23360023E-01 0.12500000E+03</pdfrwt>
<totfact> 0.67431835E+06</totfact>
</mgrwt>
</event>
<event>
 3    0  0.1706122E+001  0.1250000E+03  0.7546771E-02  0.1235069E+00
         21   -1    0    0  502  501  0.00000000000E+00  0.00000000000E+00  0.34065181997E+02  0.34065181997E+02  0.00000000000E+00 0.  1.
         21   -1    0    0  501  502 -0.00000000000E+00 -0.00000000000E+00 -0.11466987026E+03  0.11466987026E+03  0.00000000000E+00 0.  1.
         25    1    1    2    0    0  0.00000000000E+00  0.00000000000E+00 -0.80604688263E+02  0.14873505226E+03  0.12500000000E+03 0.  0.
<mgrwt>
<rscale>  2 0.12500000E+03</rscale>
<asrwt>0</asrwt>
<pdfrwt beam="1">  1       21 0.52407972E-02 0.12500000E+03</pdfrwt>
<pdfrwt beam="2">  1       21 0.17641519E-01 0.12500000E+03</pdfrwt>
<totfact> 0.70918465E+06</totfact>
</mgrwt>
</event>
<event>
 3    0  0.1388894E+001  0.1250000E+03  0.7546771E-02  0.1235069E+00
         21   -1    0    0  502  501  0.00000000000E+00  0.00000000000E+00  0.61807175563E+01  0.61807175563E+01  0.00000000000E+00 0. -1.
         21   -1    0    0  501  502 -0.00000000000E+00 -0.00000000000E+00 -0.63200590618E+03  0.63200590618E+03  0.00000000000E+00 0. -1.
         25    1    1    2    0    0  0.00000000000E+00  0.00000000000E+00 -0.62582518862E+03  0.63818662374E+03  0.12500000000E+03 0.  0.
<mgrwt>
<rscale>  2 0.12500000E+03</rscale>
<asrwt>0</asrwt>
<pdfrwt beam="1">  1       21 0.95087967E-03 0.12500000E+03</pdfrwt>
<pdfrwt beam="2">  1       21 0.97231673E-01 0.12500000E+03</pdfrwt>
<totfact> 0.35420667E+06</totfact>
</mgrwt>
</event>
<event>
 3    0  0.1687614E+001  0.1250000E+03  0.7546771E-02  0.1235069E+00
         21   -1    0    0  502  501  0.00000000000E+00  0.00000000000E+00  0.26248544663E+02  0.26248544663E+02  0.00000000000E+00 0.  1.
         21   -1    0    0  501  502 -0.00000000000E+00 -0.00000000000E+00 -0.14881777448E+03  0.14881777448E+03  0.00000000000E+00 0.  1.
         25    1    1    2    0    0  0.00000000000E+00  0.00000000000E+00 -0.12256922982E+03  0.17506631914E+03  0.12500000000E+03 0.  0.
<mgrwt>
<rscale>  2 0.12500000E+03</rscale>
<asrwt>0</asrwt>
<pdfrwt beam="1">  1       21 0.40382376E-02 0.12500000E+03</pdfrwt>
<pdfrwt beam="2">  1       21 0.22895043E-01 0.12500000E+03</pdfrwt>
<totfact> 0.67722069E+06</totfact>
</mgrwt>
</event>
<event>
 3    0  0.1653850E+001  0.1250000E+03  0.7546771E-02  0.1235069E+00
         21   -1    0    0  502  501  0.00000000000E+00  0.00000000000E+00  0.18433547831E+03  0.18433547831E+03  0.00000000000E+00 0.  1.
         21   -1    0    0  501  502 -0.00000000000E+00 -0.00000000000E+00 -0.21190983069E+02  0.21190983069E+02  0.00000000000E+00 0.  1.
         25    1    1    2    0    0  0.00000000000E+00  0.00000000000E+00  0.16314449524E+03  0.20552646138E+03  0.12500000000E+03 0.  0.
<mgrwt>
<rscale>  2 0.12500000E+03</rscale>
<asrwt>0</asrwt>
<pdfrwt beam="1">  1       21 0.28359303E-01 0.12500000E+03</pdfrwt>
<pdfrwt beam="2">  1       21 0.32601514E-02 0.12500000E+03</pdfrwt>
<totfact> 0.64333299E+06</totfact>
</mgrwt>
</event>
<event>
 3    0  0.1650345E+001  0.1250000E+03  0.7546771E-02  0.1235069E+00
         21   -1    0    0  502  501  0.00000000000E+00  0.00000000000E+00  0.18407968060E+02  0.18407968060E+02  0.00000000000E+00 0.  1.
         21   -1    0    0  501  502 -0.00000000000E+00 -0.00000000000E+00 -0.21220430127E+03  0.21220430127E+03  0.00000000000E+00 0.  1.
         25    1    1    2    0    0  0.00000000000E+00  0.00000000000E+00 -0.19379633321E+03  0.23061226933E+03  0.12500000000E+03 0.  0.
<mgrwt>
<rscale>  2 0.12500000E+03</rscale>
<asrwt>0</asrwt>
<pdfrwt beam="1">  1       21 0.28319950E-02 0.12500000E+03</pdfrwt>
<pdfrwt beam="2">  1       21 0.32646817E-01 0.12500000E+03</pdfrwt>
<totfact> 0.61753100E+06</totfact>
</mgrwt>
</event>
<event>
 3    0  0.1660413E+001  0.1250000E+03  0.7546771E-02  0.1235069E+00
         21   -1    0    0  502  501  0.00000000000E+00  0.00000000000E+00  0.28351155985E+02  0.28351155985E+02  0.00000000000E+00 0. -1.
         21   -1    0    0  501  502 -0.00000000000E+00 -0.00000000000E+00 -0.13778097803E+03  0.13778097803E+03  0.00000000000E+00 0. -1.
         25    1    1    2    0    0  0.00000000000E+00  0.00000000000E+00 -0.10942982205E+03  0.16613213402E+03  0.12500000000E+03 0.  0.
<mgrwt>
<rscale>  2 0.12500000E+03</rscale>
<asrwt>0</asrwt>
<pdfrwt beam="1">  1       21 0.43617163E-02 0.12500000E+03</pdfrwt>
<pdfrwt beam="2">  1       21 0.21197074E-01 0.12500000E+03</pdfrwt>
<totfact> 0.68777870E+06</totfact>
</mgrwt>
</event>
<event>
 3    0  0.1701306E+001  0.1250000E+03  0.7546771E-02  0.1235069E+00
         21   -1    0    0  502  501  0.00000000000E+00  0.00000000000E+00  0.66589868782E+02  0.66589868782E+02  0.00000000000E+00 0. -1.
         21   -1    0    0  501  502 -0.00000000000E+00 -0.00000000000E+00 -0.58661325986E+02  0.58661325986E+02  0.00000000000E+00 0. -1.
         25    1    1    2    0    0  0.00000000000E+00  0.00000000000E+00  0.79285427962E+01  0.12525119477E+03  0.12500000000E+03 0.  0.
<mgrwt>
<rscale>  2 0.12500000E+03</rscale>
<asrwt>0</asrwt>
<pdfrwt beam="1">  1       21 0.10244595E-01 0.12500000E+03</pdfrwt>
<pdfrwt beam="2">  1       21 0.90248193E-02 0.12500000E+03</pdfrwt>
<totfact> 0.74009660E+06</totfact>
</mgrwt>
</event>
<event>
 3    0  0.1368989E+001  0.1250000E+03  0.7546771E-02  0.1235069E+00
         21   -1    0    0  502  501  0.00000000000E+00  0.00000000000E+00  0.88000781011E+03  0.88000781011E+03  0.00000000000E+00 0.  1.
         21   -1    0    0  501  502 -0.00000000000E+00 -0.00000000000E+00 -0.44388810589E+01  0.44388810589E+01  0.00000000000E+00 0.  1.
         25    1    1    2    0    0  0.00000000000E+00  0.00000000000E+00  0.87556892905E+03  0.88444669117E+03  0.12500000000E+03 0.  0.
<mgrwt>
<rscale>  2 0.12500000E+03</rscale>
<asrwt>0</asrwt>
<pdfrwt beam="1">  1       21 0.13538568E+00 0.12500000E+03</pdfrwt>
<pdfrwt beam="2">  1       21 0.68290548E-03 0.12500000E+03</pdfrwt>
<totfact> 0.26747435E+06</totfact>
</mgrwt>
</event>
<event>
 3    0  0.1690530E+001  0.1250000E+03  0.7546771E-02  0.1235069E+00
         21   -1    0    0  502  501  0.00000000000E+00  0.00000000000E+00  0.97861813233E+02  0.97861813233E+02  0.00000000000E+00 0. -1.
         21   -1    0    0  501  502 -0.00000000000E+00 -0.00000000000E+00 -0.39915978163E+02  0.39915978163E+02  0.00000000000E+00 0. -1.
         25    1    1    2    0    0  0.00000000000E+00  0.00000000000E+00  0.57945835070E+02  0.13777779140E+03  0.12500000000E+03 0.  0.
<mgrwt>
<rscale>  2 0.12500000E+03</rscale>
<asrwt>0</asrwt>
<pdfrwt beam="1">  1       21 0.15055664E-01 0.12500000E+03</pdfrwt>
<pdfrwt beam="2">  1       21 0.61409197E-02 0.12500000E+03</pdfrwt>
<totfact> 0.72330719E+06</totfact>
</mgrwt>
</event>
<event>
 3    0  0.1677124E+001  0.1250000E+03  0.7546771E-02  0.1235069E+00
         21   -1    0    0  502  501  0.00000000000E+00  0.00000000000E+00  0.25497500233E+02  0.25497500233E+02  0.00000000000E+00 0.  1.
         21   -1    0    0  501  502 -0.00000000000E+00 -0.00000000000E+00 -0.15320129284E+03  0.15320129284E+03  0.00000000000E+00 0.  1.
         25    1    1    2    0    0  0.00000000000E+00  0.00000000000E+00 -0.12770379261E+03  0.17869879308E+03  0.12500000000E+03 0.  0.
<mgrwt>
<rscale>  2 0.12500000E+03</rscale>
<asrwt>0</asrwt>
<pdfrwt beam="1">  1       21 0.39226923E-02 0.12500000E+03</pdfrwt>
<pdfrwt beam="2">  1       21 0.23569430E-01 0.12500000E+03</pdfrwt>
<totfact> 0.67301121E+06</totfact>
</mgrwt>
</event>
<event>
 3    0  0.1719057E+001  0.1250000E+03  0.7546771E-02  0.1235069E+00
         21   -1    0    0  502  501  0.00000000000E+00  0.00000000000E+00  0.46495410426E+02  0.46495410426E+02  0.00000000000E+00 0.  1.
         21   -1    0    0  501  502 -0.00000000000E+00 -0.00000000000E+00 -0.84013668536E+02  0.84013668536E+02  0.00000000000E+00 0.  1.
         25    1    1    2    0    0  0.00000000000E+00  0.00000000000E+00 -0.37518258109E+02  0.13050907896E+03  0.12500000000E+03 0.  0.
<mgrwt>
<rscale>  2 0.12500000E+03</rscale>
<asrwt>0</asrwt>
<pdfrwt beam="1">  1       21 0.71531400E-02 0.12500000E+03</pdfrwt>
<pdfrwt beam="2">  1       21 0.12925180E-01 0.12500000E+03</pdfrwt>
<totfact> 0.73296905E+06</totfact>
</mgrwt>
</event>
<event>
 3    0  0.1446122E+001  0.1250000E+03  0.7546771E-02  0.1235069E+00
         21   -1    0    0  502  501  0.00000000000E+00  0.00000000000E+00  0.77591714292E+01  0.77591714292E+01  0.00000000000E+00 0.  1.
         21   -1    0    0  501  502 -0.00000000000E+00 -0.00000000000E+00 -0.50343648618E+03  0.50343648618E+03  0.00000000000E+00 0.  1.
         25    1    1    2    0    0  0.00000000000E+00  0.00000000000E+00 -0.49567731475E+03  0.51119565761E+03  0.12500000000E+03 0.  0.
<mgrwt>
<rscale>  2 0.12500000E+03</rscale>
<asrwt>0</asrwt>
<pdfrwt beam="1">  1       21 0.11937183E-02 0.12500000E+03</pdfrwt>
<pdfrwt beam="2">  1       21 0.77451792E-01 0.12500000E+03</pdfrwt>
<totfact> 0.41443333E+06</totfact>
</mgrwt>
</event>
<event>
 3    0  0.1676968E+001  0.1250000E+03  0.7546771E-02  0.1235069E+00
         21   -1    0    0  502  501  0.00000000000E+00  0.00000000000E+00  0.12484393324E+03  0.12484393324E+03  0.00000000000E+00 0. -1.
         21   -1    0    0  501  502 -0.00000000000E+00 -0.00000000000E+00 -0.31289065465E+02  0.31289065465E+02  0.00000000000E+00 0. -1.
         25    1    1    2    0    0  0.00000000000E+00  0.00000000000E+00  0.93554867774E+02  0.15613299870E+03  0.12500000000E+03 0.  0.
<mgrwt>
<rscale>  2 0.12500000E+03</rscale>
<asrwt>0</asrwt>
<pdfrwt beam="1">  1       21 0.19206759E-01 0.12500000E+03</pdfrwt>
<pdfrwt beam="2">  1       21 0.48137025E-02 0.12500000E+03</pdfrwt>
<totfact> 0.69995115E+06</totfact>
</mgrwt>
</event>
<event>
 3    0  0.1655985E+001  0.1250000E+03  0.7546771E-02  0.1235069E+00
         21   -1    0    0  502  501  0.00000000000E+00  0.00000000000E+00  0.23259922605E+02  0.23259922605E+02  0.00000000000E+00 0. -1.
         21   -1    0    0  501  502 -0.00000000000E+00 -0.00000000000E+00 -0.16793907986E+03  0.16793907986E+03  0.00000000000E+00 0. -1.
         25    1    1    2    0    0  0.00000000000E+00  0.00000000000E+00 -0.14467915726E+03  0.19119900247E+03  0.12500000000E+03 0.  0.
<mgrwt>
<rscale>  2 0.12500000E+03</rscale>
<asrwt>0</asrwt>
<pdfrwt beam="1">  1       21 0.35784497E-02 0.12500000E+03</pdfrwt>
<pdfrwt beam="2">  1       21 0.25836781E-01 0.12500000E+03</pdfrwt>
<totfact> 0.65889454E+06</totfact>
</mgrwt>
</event>
<event>
 3    0  0.1368989E+001  0.1250000E+03  0.7546771E-02  0.1235069E+00
         21   -1    0    0  502  501  0.00000000000E+00  0.00000000000E+00  0.49495351495E+01  0.49495351495E+01  0.00000000000E+00 0. -1.
         21   -1    0    0  501  502 -0.00000000000E+00 -0.00000000000E+00 -0.78921552873E+03  0.78921552873E+03  0.00000000000E+00 0. -1.
         25    1    1    2    0    0  0.00000000000E+00  0.00000000000E+00 -0.78426599358E+03  0.79416506388E+03  0.12500000000E+03 0.  0.
<mgrwt>
<rscale>  2 0.12500000E+03</rscale>
<asrwt>0</asrwt>
<pdfrwt beam="1">  1       21 0.76146681E-03 0.12500000E+03</pdfrwt>
<pdfrwt beam="2">  1       21 0.12141780E+00 0.12500000E+03</pdfrwt>
<totfact> 0.29557053E+06</totfact>
</mgrwt>
</event>
<event>
 3    0  0.1523604E+001  0.1250000E+03  0.7546771E-02  0.1235069E+00
         21   -1    0    0  502  501  0.00000000000E+00  0.00000000000E+00  0.10612820190E+02  0.10612820190E+02  0.00000000000E+00 0. -1.
         21   -1    0    0  501  502 -0.00000000000E+00 -0.00000000000E+00 -0.36806898922E+03  0.36806898922E+03  0.00000000000E+00 0. -1.
         25    1    1    2    0    0  0.00000000000E+00  0.00000000000E+00 -0.35745616903E+03  0.37868180941E+03  0.12500000000E+03 0.  0.
<mgrwt>
<rscale>  2 0.12500000E+03</rscale>
<asrwt>0</asrwt>
<pdfrwt beam="1">  1       21 0.16327419E-02 0.12500000E+03</pdfrwt>
<pdfrwt beam="2">  1       21 0.56625988E-01 0.12500000E+03</pdfrwt>
<totfact> 0.49487488E+06</totfact>
</mgrwt>
</event>
<event>
 3    0  0.1663843E+001  0.1250000E+03  0.7546771E-02  0.1235069E+00
         21   -1    0    0  502  501  0.00000000000E+00  0.00000000000E+00  0.23722359857E+02  0.23722359857E+02  0.00000000000E+00 0. -1.
         21   -1    0    0  501  502 -0.00000000000E+00 -0.00000000000E+00 -0.16466532097E+03  0.16466532097E+03  0.00000000000E+00 0. -1.
         25    1    1    2    0    0  0.00000000000E+00  0.00000000000E+00 -0.14094296111E+03  0.18838768083E+03  0.12500000000E+03 0.  0.
<mgrwt>
<rscale>  2 0.12500000E+03</rscale>
<asrwt>0</asrwt>
<pdfrwt beam="1">  1       21 0.36495938E-02 0.12500000E+03</pdfrwt>
<pdfrwt beam="2">  1       21 0.25333127E-01 0.12500000E+03</pdfrwt>
<totfact> 0.66202107E+06</totfact>
</mgrwt>
</event>
<event>
 3    0  0.1704898E+001  0.1250000E+03  0.7546771E-02  0.1235069E+00
         21   -1    0    0  502  501  0.00000000000E+00  0.00000000000E+00  0.11991434310E+03  0.11991434310E+03  0.00000000000E+00 0.  1.
         21   -1    0    0  501  502 -0.00000000000E+00 -0.00000000000E+00 -0.32575335852E+02  0.32575335852E+02  0.00000000000E+00 0.  1.
         25    1    1    2    0    0  0.00000000000E+00  0.00000000000E+00  0.87339007250E+02  0.15248967895E+03  0.12500000000E+03 0.  0.
<mgrwt>
<rscale>  2 0.12500000E+03</rscale>
<asrwt>0</asrwt>
<pdfrwt beam="1">  1       21 0.18448360E-01 0.12500000E+03</pdfrwt>
<pdfrwt beam="2">  1       21 0.50115902E-02 0.12500000E+03</pdfrwt>
<totfact> 0.70447836E+06</totfact>
</mgrwt>
</event>
<event>
 3    0  0.1368989E+001  0.1250000E+03  0.7546771E-02  0.1235069E+00
         21   -1    0    0  502  501  0.00000000000E+00  0.00000000000E+00  0.21755896646E+04  0.21755896646E+04  0.00000000000E+00 0.  1.
         21   -1    0    0  501  502 -0.00000000000E+00 -0.00000000000E+00 -0.17954902359E+01  0.17954902359E+01  0.00000000000E+00 0.  1.
         25    1    1    2    0    0  0.00000000000E+00  0.00000000000E+00  0.21737941743E+04  0.21773851548E+04  0.12500000000E+03 0.  0.
<mgrwt>
<rscale>  2 0.12500000E+03</rscale>
<asrwt>0</asrwt>
<pdfrwt beam="1">  1       21 0.33470399E+00 0.12500000E+03</pdfrwt>
<pdfrwt beam="2">  1       21 0.27623101E-03 0.12500000E+03</pdfrwt>
<totfact> 0.63443138E+05</totfact>
</mgrwt>
</event>
<event>
 3    0  0.1533339E+001  0.1250000E+03  0.7546771E-02  0.1235069E+00
         21   -1    0    0  502  501  0.00000000000E+00  0.00000000000E+00  0.36315088996E+03  0.36315088996E+03  0.00000000000E+00 0. -1.
         21   -1    0    0  501  502 -0.00000000000E+00 -0.00000000000E+00 -0.10756548058E+02  0.10756548058E+02  0.00000000000E+00 0. -1.
         25    1    1    2    0    0  0.00000000000E+00  0.00000000000E+00  0.35239434190E+03  0.37390743802E+03  0.12500000000E+03 0.  0.
<mgrwt>
<rscale>  2 0.12500000E+03</rscale>
<asrwt>0</asrwt>
<pdfrwt beam="1">  1       21 0.55869358E-01 0.12500000E+03</pdfrwt>
<pdfrwt beam="2">  1       21 0.16548538E-02 0.12500000E+03</pdfrwt>
<totfact> 0.49819832E+06</totfact>
</mgrwt>
</event>
<event>
 3    0  0.1712181E+001  0.1250000E+03  0.7546771E-02  0.1235069E+00
         21   -1    0    0  502  501  0.00000000000E+00  0.00000000000E+00  0.10205414275E+03  0.10205414275E+03  0.00000000000E+00 0.  1.
         21   -1    0    0  501  502 -0.00000000000E+00 -0.00000000000E+00 -0.38276251161E+02  0.38276251161E+02  0.00000000000E+00 0.  1.
         25    1    1    2    0    0  0.00000000000E+00  0.00000000000E+00  0.63777891592E+02  0.14033039391E+03  0.12500000000E+03 0.  0.
<mgrwt>
<rscale>  2 0.12500000E+03</rscale>
<asrwt>0</asrwt>
<pdfrwt beam="1">  1       21 0.15700637E-01 0.12500000E+03</pdfrwt>
<pdfrwt beam="2">  1       21 0.58886541E-02 0.12500000E+03</pdfrwt>
<totfact> 0.71996205E+06</totfact>
</mgrwt>
</event>
<event>
 3    0  0.1368989E+001  0.1250000E+03  0.7546771E-02  0.1235069E+00
         21   -1    0    0  502  501  0.00000000000E+00  0.00000000000E+00  0.55917104974E+01  0.55917104974E+01  0.00000000000E+00 0. -1.
         21   -1    0    0  501  502 -0.00000000000E+00 -0.00000000000E+00 -0.69857872681E+03  0.69857872681E+03  0.00000000000E+00 0. -1.
         25    1    1    2    0    0  0.00000000000E+00  0.00000000000E+00 -0.69298701632E+03  0.70417043731E+03  0.12500000000E+03 0.  0.
<mgrwt>
<rscale>  2 0.12500000E+03</rscale>
<asrwt>0</asrwt>
<pdfrwt beam="1">  1       21 0.86026290E-03 0.12500000E+03</pdfrwt>
<pdfrwt beam="2">  1       21 0.10747368E+00 0.12500000E+03</pdfrwt>
<totfact> 0.32749966E+06</totfact>
</mgrwt>
</event>
<event>
 3    0  0.1368989E+001  0.1250000E+03  0.7546771E-02  0.1235069E+00
         21   -1    0    0  502  501  0.00000000000E+00  0.00000000000E+00  0.30626432716E+01  0.30626432716E+01  0.00000000000E+00 0. -1.
         21   -1    0    0  501  502 -0.00000000000E+00 -0.00000000000E+00 -0.12754505353E+04  0.12754505353E+04  0.00000000000E+00 0. -1.
         25    1    1    2    0    0  0.00000000000E+00  0.00000000000E+00 -0.12723878920E+04  0.12785131785E+04  0.12500000000E+03 0.  0.
<mgrwt>
<rscale>  2 0.12500000E+03</rscale>
<asrwt>0</asrwt>
<pdfrwt beam="1">  1       21 0.47117403E-03 0.12500000E+03</pdfrwt>
<pdfrwt beam="2">  1       21 0.19622393E+00 0.12500000E+03</pdfrwt>
<totfact> 0.17642522E+06</totfact>
</mgrwt>
</event>
<event>
 3    0  0.1460567E+001  0.1250000E+03  0.7546771E-02  0.1235069E+00
         21   -1    0    0  502  501  0.00000000000E+00  0.00000000000E+00  0.80660268230E+01  0.80660268230E+01  0.00000000000E+00 0. -1.
         21   -1    0    0  501  502 -0.00000000000E+00 -0.00000000000E+00 -0.48428428094E+03  0.48428428094E+03  0.00000000000E+00 0. -1.
         25    1    1    2    0    0  0.00000000000E+00  0.00000000000E+00 -0.47621825411E+03  0.49235030776E+03  0.12500000000E+03 0.  0.
<mgrwt>
<rscale>  2 0.12500000E+03</rscale>
<asrwt>0</asrwt>
<pdfrwt beam="1">  1       21 0.12409272E-02 0.12500000E+03</pdfrwt>
<pdfrwt beam="2">  1       21 0.74505276E-01 0.12500000E+03</pdfrwt>
<totfact> 0.42461991E+06</totfact>
</mgrwt>
</event>
<event>
 3    0  0.1592987E+001  0.1250000E+03  0.7546771E-02  0.1235069E+00
         21   -1    0    0  502  501  0.00000000000E+00  0.00000000000E+00  0.15041090835E+02  0.15041090835E+02  0.00000000000E+00 0. -1.
         21   -1    0    0  501  502 -0.00000000000E+00 -0.00000000000E+00 -0.25970523300E+03  0.25970523300E+03  0.00000000000E+00 0. -1.
         25    1    1    2    0    0  0.00000000000E+00  0.00000000000E+00 -0.24466414217E+03  0.27474632384E+03  0.12500000000E+03 0.  0.
<mgrwt>
<rscale>  2 0.12500000E+03</rscale>
<asrwt>0</asrwt>
<pdfrwt beam="1">  1       21 0.23140142E-02 0.12500000E+03</pdfrwt>
<pdfrwt beam="2">  1       21 0.39954648E-01 0.12500000E+03</pdfrwt>
<totfact> 0.57622395E+06</totfact>
</mgrwt>
</event>
<event>
 3    0  0.1649862E+001  0.1250000E+03  0.7546771E-02  0.1235069E+00
         21   -1    0    0  502  501  0.00000000000E+00  0.00000000000E+00  0.22911132857E+02  0.22911132857E+02  0.00000000000E+00 0. -1.
         21   -1    0    0  501  502 -0.00000000000E+00 -0.00000000000E+00 -0.17049571596E+03  0.17049571596E+03  0.00000000000E+00 0. -1.
         25    1    1    2    0    0  0.00000000000E+00  0.00000000000E+00 -0.14758458311E+03  0.19340684882E+03  0.12500000000E+03 0.  0.
<mgrwt>
<rscale>  2 0.12500000E+03</rscale>
<asrwt>0</asrwt>
<pdfrwt beam="1">  1       21 0.35247898E-02 0.12500000E+03</pdfrwt>
<pdfrwt beam="2">  1       21 0.26230109E-01 0.12500000E+03</pdfrwt>
<totfact> 0.65645812E+06</totfact>
</mgrwt>
</event>
<event>
 3    0  0.1724014E+001  0.1250000E+03  0.7546771E-02  0.1235069E+00
         21   -1    0    0  502  501  0.00000000000E+00  0.00000000000E+00  0.54813313638E+02  0.54813313638E+02  0.00000000000E+00 0.  1.
         21   -1    0    0  501  502 -0.00000000000E+00 -0.00000000000E+00 -0.71264620596E+02  0.71264620596E+02  0.00000000000E+00 0.  1.
         25    1    1    2    0    0  0.00000000000E+00  0.00000000000E+00 -0.16451306958E+02  0.12607793423E+03  0.12500000000E+03 0.  0.
<mgrwt>
<rscale>  2 0.12500000E+03</rscale>
<asrwt>0</asrwt>
<pdfrwt beam="1">  1       21 0.84328175E-02 0.12500000E+03</pdfrwt>
<pdfrwt beam="2">  1       21 0.10963788E-01 0.12500000E+03</pdfrwt>
<totfact> 0.73895300E+06</totfact>
</mgrwt>
</event>
<event>
 3    0  0.1368989E+001  0.1250000E+03  0.7546771E-02  0.1235069E+00
         21   -1    0    0  502  501  0.00000000000E+00  0.00000000000E+00  0.15086878082E+04  0.15086878082E+04  0.00000000000E+00 0.  1.
         21   -1    0    0  501  502 -0.00000000000E+00 -0.00000000000E+00 -0.25891705221E+01  0.25891705221E+01  0.00000000000E+00 0.  1.
         25    1    1    2    0    0  0.00000000000E+00  0.00000000000E+00  0.15060986376E+04  0.15112769787E+04  0.12500000000E+03 0.  0.
<mgrwt>
<rscale>  2 0.12500000E+03</rscale>
<asrwt>0</asrwt>
<pdfrwt beam="1">  1       21 0.23210511E+00 0.12500000E+03</pdfrwt>
<pdfrwt beam="2">  1       21 0.39833513E-03 0.12500000E+03</pdfrwt>
<totfact> 0.13826591E+06</totfact>
</mgrwt>
</event>
<event>
 3    0  0.1417168E+001  0.1250000E+03  0.7546771E-02  0.1235069E+00
         21   -1    0    0  502  501  0.00000000000E+00  0.00000000000E+00  0.61543037054E+03  0.61543037054E+03  0.00000000000E+00 0. -1.
         21   -1    0    0  501  502 -0.00000000000E+00 -0.00000000000E+00 -0.63471843234E+01  0.63471843234E+01  0.00000000000E+00 0. -1.
         25    1    1    2    0    0  0.00000000000E+00  0.00000000000E+00  0.60908318622E+03  0.62177755486E+03  0.12500000000E+03 0.  0.
<mgrwt>
<rscale>  2 0.12500000E+03</rscale>
<asrwt>0</asrwt>
<pdfrwt beam="1">  1       21 0.94681548E-01 0.12500000E+03</pdfrwt>
<pdfrwt beam="2">  1       21 0.97649038E-03 0.12500000E+03</pdfrwt>
<totfact> 0.36125941E+06</totfact>
</mgrwt>
</event>
<event>
 3    0  0.1368989E+001  0.1250000E+03  0.7546771E-02  0.1235069E+00
         21   -1    0    0  502  501  0.00000000000E+00  0.00000000000E+00  0.14201459523E+04  0.14201459523E+04  0.00000000000E+00 0.  1.
         21   -1    0    0  501  502 -0.00000000000E+00 -0.00000000000E+00 -0.27505975663E+01  0.27505975663E+01  0.00000000000E+00 0.  1.
         25    1    1    2    0    0  0.00000000000E+00  0.00000000000E+00  0.14173953547E+04  0.14228965498E+04  0.12500000000E+03 0.  0.
<mgrwt>
<rscale>  2 0.12500000E+03</rscale>
<asrwt>0</asrwt>
<pdfrwt beam="1">  1       21 0.21848341E+00 0.12500000E+03</pdfrwt>
<pdfrwt beam="2">  1       21 0.42316999E-03 0.12500000E+03</pdfrwt>
<totfact> 0.15176362E+06</totfact>
</mgrwt>
</event>
<event>
 3    0  0.1700463E+001  0.1250000E+03  0.7546771E-02  0.1235069E+00
         21   -1    0    0  502  501  0.00000000000E+00  0.00000000000E+00  0.72888440483E+02  0.72888440483E+02  0.00000000000E+00 0. -1.
         21   -1    0    0  501  502 -0.00000000000E+00 -0.00000000000E+00 -0.53592174206E+02  0.53592174206E+02  0.00000000000E+00 0. -1.
         25    1    1    2    0    0  0.00000000000E+00  0.00000000000E+00  0.19296266277E+02  0.12648061469E+03  0.12500000000E+03 0.  0.
<mgrwt>
<rscale>  2 0.12500000E+03</rscale>
<asrwt>0</asrwt>
<pdfrwt beam="1">  1       21 0.11213606E-01 0.12500000E+03</pdfrwt>
<pdfrwt beam="2">  1       21 0.82449499E-02 0.12500000E+03</pdfrwt>
<totfact> 0.73840026E+06</totfact>
</mgrwt>
</event>
<event>
 3    0  0.1570640E+001  0.1250000E+03  0.7546771E-02  0.1235069E+00
         21   -1    0    0  502  501  0.00000000000E+00  0.00000000000E+00  0.12545662745E+02  0.12545662745E+02  0.00000000000E+00 0. -1.
         21   -1    0    0  501  502 -0.00000000000E+00 -0.00000000000E+00 -0.31136258638E+03  0.31136258638E+03  0.00000000000E+00 0. -1.
         25    1    1    2    0    0  0.00000000000E+00  0.00000000000E+00 -0.29881692363E+03  0.32390824912E+03  0.12500000000E+03 0.  0.
<mgrwt>
<rscale>  2 0.12500000E+03</rscale>
<asrwt>0</asrwt>
<pdfrwt beam="1">  1       21 0.19301022E-02 0.12500000E+03</pdfrwt>
<pdfrwt beam="2">  1       21 0.47901932E-01 0.12500000E+03</pdfrwt>
<totfact> 0.53525082E+06</totfact>
</mgrwt>
</event>
<event>
 3    0  0.1622493E+001  0.1250000E+03  0.7546771E-02  0.1235069E+00
         21   -1    0    0  502  501  0.00000000000E+00  0.00000000000E+00  0.20012497986E+02  0.20012497986E+02  0.00000000000E+00 0. -1.
         21   -1    0    0  501  502 -0.00000000000E+00 -0.00000000000E+00 -0.19519052558E+03  0.19519052558E+03  0.00000000000E+00 0. -1.
         25    1    1    2    0    0  0.00000000000E+00  0.00000000000E+00 -0.17517802760E+03  0.21520302357E+03  0.12500000000E+03 0.  0.
<mgrwt>
<rscale>  2 0.12500000E+03</rscale>
<asrwt>0</asrwt>
<pdfrwt beam="1">  1       21 0.30788457E-02 0.12500000E+03</pdfrwt>
<pdfrwt beam="2">  1       21 0.30029313E-01 0.12500000E+03</pdfrwt>
<totfact> 0.63316241E+06</totfact>
</mgrwt>
</event>
<event>
 3    0  0.1696315E+001  0.1250000E+03  0.7546771E-02  0.1235069E+00
         21   -1    0    0  502  501  0.00000000000E+00  0.00000000000E+00  0.85452339527E+02  0.85452339527E+02  0.00000000000E+00 0. -1.
         21   -1    0    0  501  502 -0.00000000000E+00 -0.00000000000E+00 -0.45712616198E+02  0.45712616198E+02  0.00000000000E+00 0. -1.
         25    1    1    2    0    0  0.00000000000E+00  0.00000000000E+00  0.39739723330E+02  0.13116495572E+03  0.12500000000E+03 0.  0.
<mgrwt>
<rscale>  2 0.12500000E+03</rscale>
<asrwt>0</asrwt>
<pdfrwt beam="1">  1       21 0.13146514E-01 0.12500000E+03</pdfrwt>
<pdfrwt beam="2">  1       21 0.70327102E-02 0.12500000E+03</pdfrwt>
<totfact> 0.73208451E+06</totfact>
</mgrwt>
</event>
<event>
 3    0  0.1368989E+001  0.1250000E+03  0.7546771E-02  0.1235069E+00
         21   -1    0    0  502  501  0.00000000000E+00  0.00000000000E+00  0.27287758747E+01  0.27287758747E+01  0.00000000000E+00 0.  1.
         21   -1    0    0  501  502 -0.00000000000E+00 -0.00000000000E+00 -0.14315026882E+04  0.14315026882E+04  0.00000000000E+00 0.  1.
         25    1    1    2    0    0  0.00000000000E+00  0.00000000000E+00 -0.14287739123E+04  0.14342314640E+04  0.12500000000E+03 0.  0.
<mgrwt>
<rscale>  2 0.12500000E+03</rscale>
<asrwt>0</asrwt>
<pdfrwt beam="1">  1       21 0.41981292E-03 0.12500000E+03</pdfrwt>
<pdfrwt beam="2">  1       21 0.22023053E+00 0.12500000E+03</pdfrwt>
<totfact> 0.14996997E+06</totfact>
</mgrwt>
</event>
<event>
 3    0  0.1713912E+001  0.1250000E+03  0.7546771E-02  0.1235069E+00
         21   -1    0    0  502  501  0.00000000000E+00  0.00000000000E+00  0.39829043154E+02  0.39829043154E+02  0.00000000000E+00 0.  1.
         21   -1    0    0  501  502 -0.00000000000E+00 -0.00000000000E+00 -0.98075416596E+02  0.98075416596E+02  0.00000000000E+00 0.  1.
         25    1    1    2    0    0  0.00000000000E+00  0.00000000000E+00 -0.58246373442E+02  0.13790445975E+03  0.12500000000E+03 0.  0.
<mgrwt>
<rscale>  2 0.12500000E+03</rscale>
<asrwt>0</asrwt>
<pdfrwt beam="1">  1       21 0.61275451E-02 0.12500000E+03</pdfrwt>
<pdfrwt beam="2">  1       21 0.15088526E-01 0.12500000E+03</pdfrwt>
<totfact> 0.72314071E+06</totfact>
</mgrwt>
</event>
<event>
 3    0  0.1592394E+001  0.1250000E+03  0.7546771E-02  0.1235069E+00
         21   -1    0    0  502  501  0.00000000000E+00  0.00000000000E+00  0.16611772032E+02  0.16611772032E+02  0.00000000000E+00 0. -1.
         21   -1    0    0  501  502 -0.00000000000E+00 -0.00000000000E+00 -0.23514950677E+03  0.23514950677E+03  0.00000000000E+00 0. -1.
         25    1    1    2    0    0  0.00000000000E+00  0.00000000000E+00 -0.21853773474E+03  0.25176127880E+03  0.12500000000E+03 0.  0.
<mgrwt>
<rscale>  2 0.12500000E+03</rscale>
<asrwt>0</asrwt>
<pdfrwt beam="1">  1       21 0.25556572E-02 0.12500000E+03</pdfrwt>
<pdfrwt beam="2">  1       21 0.36176848E-01 0.12500000E+03</pdfrwt>
<totfact> 0.59712762E+06</totfact>
</mgrwt>
</event>
<event>
 3    0  0.1717045E+001  0.1250000E+03  0.7546771E-02  0.1235069E+00
         21   -1    0    0  502  501  0.00000000000E+00  0.00000000000E+00  0.96715739674E+02  0.96715739674E+02  0.00000000000E+00 0.  1.
         21   -1    0    0  501  502 -0.00000000000E+00 -0.00000000000E+00 -0.40388979221E+02  0.40388979221E+02  0.00000000000E+00 0.  1.
         25    1    1    2    0    0  0.00000000000E+00  0.00000000000E+00  0.56326760453E+02  0.13710471889E+03  0.12500000000E+03 0.  0.
<mgrwt>
<rscale>  2 0.12500000E+03</rscale>
<asrwt>0</asrwt>
<pdfrwt beam="1">  1       21 0.14879344E-01 0.12500000E+03</pdfrwt>
<pdfrwt beam="2">  1       21 0.62136891E-02 0.12500000E+03</pdfrwt>
<totfact> 0.72418975E+06</totfact>
</mgrwt>
</event>
<event>
 3    0  0.1674809E+001  0.1250000E+03  0.7546771E-02  0.1235069E+00
         21   -1    0    0  502  501  0.00000000000E+00  0.00000000000E+00  0.31899253541E+02  0.31899253541E+02  0.00000000000E+00 0. -1.
         21   -1    0    0  501  502 -0.00000000000E+00 -0.00000000000E+00 -0.12245584352E+03  0.12245584352E+03  0.00000000000E+00 0. -1.
         25    1    1    2    0    0  0.00000000000E+00  0.00000000000E+00 -0.90556589979E+02  0.15435509706E+03  0.12500000000E+03 0.  0.
<mgrwt>
<rscale>  2 0.12500000E+03</rscale>
<asrwt>0</asrwt>
<pdfrwt beam="1">  1       21 0.49075774E-02 0.12500000E+03</pdfrwt>
<pdfrwt beam="2">  1       21 0.18839361E-01 0.12500000E+03</pdfrwt>
<totfact> 0.70215900E+06</totfact>
</mgrwt>
</event>
<event>
 3    0  0.1676155E+001  0.1250000E+03  0.7546771E-02  0.1235069E+00
         21   -1    0    0  502  501  0.00000000000E+00  0.00000000000E+00  0.16935121721E+03  0.16935121721E+03  0.00000000000E+00 0.  1.
         21   -1    0    0  501  502 -0.00000000000E+00 -0.00000000000E+00 -0.23065969436E+02  0.23065969436E+02  0.00000000000E+00 0.  1.
         25    1    1    2    0    0  0.00000000000E+00  0.00000000000E+00  0.14628524777E+03  0.19241718664E+03  0.12500000000E+03 0.  0.
<mgrwt>
<rscale>  2 0.12500000E+03</rscale>
<asrwt>0</asrwt>
<pdfrwt beam="1">  1       21 0.26054033E-01 0.12500000E+03</pdfrwt>
<pdfrwt beam="2">  1       21 0.35486108E-02 0.12500000E+03</pdfrwt>
<totfact> 0.65754819E+06</totfact>
</mgrwt>
</event>
<event>
 3    0  0.1681839E+001  0.1250000E+03  0.7546771E-02  0.1235069E+00
         21   -1    0    0  502  501  0.00000000000E+00  0.00000000000E+00  0.10810885813E+03  0.10810885813E+03  0.00000000000E+00 0. -1.
         21   -1    0    0  501  502 -0.00000000000E+00 -0.00000000000E+00 -0.36132561824E+02  0.36132561824E+02  0.00000000000E+00 0. -1.
         25    1    1    2    0    0  0.00000000000E+00  0.00000000000E+00  0.71976296304E+02  0.14424141995E+03  0.12500000000E+03 0.  0.
<mgrwt>
<rscale>  2 0.12500000E+03</rscale>
<asrwt>0</asrwt>
<pdfrwt beam="1">  1       21 0.16632132E-01 0.12500000E+03</pdfrwt>
<pdfrwt beam="2">  1       21 0.55588557E-02 0.12500000E+03</pdfrwt>
<totfact> 0.71490320E+06</totfact>
</mgrwt>
</event>
<event>
 3    0  0.1569876E+001  0.1250000E+03  0.7546771E-02  0.1235069E+00
         21   -1    0    0  502  501  0.00000000000E+00  0.00000000000E+00  0.31202273120E+03  0.31202273120E+03  0.00000000000E+00 0. -1.
         21   -1    0    0  501  502 -0.00000000000E+00 -0.00000000000E+00 -0.12519119953E+02  0.12519119953E+02  0.00000000000E+00 0. -1.
         25    1    1    2    0    0  0.00000000000E+00  0.00000000000E+00  0.29950361125E+03  0.32454185115E+03  0.12500000000E+03 0.  0.
<mgrwt>
<rscale>  2 0.12500000E+03</rscale>
<asrwt>0</asrwt>
<pdfrwt beam="1">  1       21 0.48003491E-01 0.12500000E+03</pdfrwt>
<pdfrwt beam="2">  1       21 0.19260187E-02 0.12500000E+03</pdfrwt>
<totfact> 0.53475378E+06</totfact>
</mgrwt>
</event>
<event>
 3    0  0.1626592E+001  0.1250000E+03  0.7546771E-02  0.1235069E+00
         21   -1    0    0  502  501  0.00000000000E+00  0.00000000000E+00  0.22169164395E+03  0.22169164395E+03  0.00000000000E+00 0.  1.
         21   -1    0    0  501  502 -0.00000000000E+00 -0.00000000000E+00 -0.17620195017E+02  0.17620195017E+02  0.00000000000E+00 0.  1.
         25    1    1    2    0    0  0.00000000000E+00  0.00000000000E+00  0.20407144894E+03  0.23931183897E+03  0.12500000000E+03 0.  0.
<mgrwt>
<rscale>  2 0.12500000E+03</rscale>
<asrwt>0</asrwt>
<pdfrwt beam="1">  1       21 0.34106405E-01 0.12500000E+03</pdfrwt>
<pdfrwt beam="2">  1       21 0.27107994E-02 0.12500000E+03</pdfrwt>
<totfact> 0.60899319E+06</totfact>
</mgrwt>
</event>
<event>
 3    0  0.1696705E+001  0.1250000E+03  0.7546771E-02  0.1235069E+00
         21   -1    0    0  502  501  0.00000000000E+00  0.00000000000E+00  0.82648764918E+02  0.82648764918E+02  0.00000000000E+00 0. -1.
         21   -1    0    0  501  502 -0.00000000000E+00 -0.00000000000E+00 -0.47263259214E+02  0.47263259214E+02  0.00000000000E+00 0. -1.
         25    1    1    2    0    0  0.00000000000E+00  0.00000000000E+00  0.35385505704E+02  0.12991202413E+03  0.12500000000E+03 0.  0.
<mgrwt>
<rscale>  2 0.12500000E+03</rscale>
<asrwt>0</asrwt>
<pdfrwt beam="1">  1       21 0.12715195E-01 0.12500000E+03</pdfrwt>
<pdfrwt beam="2">  1       21 0.72712707E-02 0.12500000E+03</pdfrwt>
<totfact> 0.73376675E+06</totfact>
</mgrwt>
</event>
<event>
 3    0  0.1690502E+001  0.1250000E+03  0.7546771E-02  0.1235069E+00
         21   -1    0    0  502  501  0.00000000000E+00  0.00000000000E+00  0.38882637640E+02  0.38882637640E+02  0.00000000000E+00 0. -1.
         21   -1    0    0  501  502 -0.00000000000E+00 -0.00000000000E+00 -0.10046257757E+03  0.10046257757E+03  0.00000000000E+00 0. -1.
         25    1    1    2    0    0  0.00000000000E+00  0.00000000000E+00 -0.61579939929E+02  0.13934521521E+03  0.12500000000E+03 0.  0.
<mgrwt>
<rscale>  2 0.12500000E+03</rscale>
<asrwt>0</asrwt>
<pdfrwt beam="1">  1       21 0.59819443E-02 0.12500000E+03</pdfrwt>
<pdfrwt beam="2">  1       21 0.15455781E-01 0.12500000E+03</pdfrwt>
<totfact> 0.72124904E+06</totfact>
</mgrwt>
</event>
<event>
 3    0  0.1600174E+001  0.1250000E+03  0.7546771E-02  0.1235069E+00
         21   -1    0    0  502  501  0.00000000000E+00  0.00000000000E+00  0.25632831374E+03  0.25632831374E+03  0.00000000000E+00 0. -1.
         21   -1    0    0  501  502 -0.00000000000E+00 -0.00000000000E+00 -0.15239245103E+02  0.15239245103E+02  0.00000000000E+00 0. -1.
         25    1    1    2    0    0  0.00000000000E+00  0.00000000000E+00  0.24108906864E+03  0.27156755885E+03  0.12500000000E+03 0.  0.
<mgrwt>
<rscale>  2 0.12500000E+03</rscale>
<asrwt>0</asrwt>
<pdfrwt beam="1">  1       21 0.39435122E-01 0.12500000E+03</pdfrwt>
<pdfrwt beam="2">  1       21 0.23444994E-02 0.12500000E+03</pdfrwt>
<totfact> 0.57904989E+06</totfact>
</mgrwt>
</event>
<event>
 3    0  0.1570036E+001  0.1250000E+03  0.7546771E-02  0.1235069E+00
         21   -1    0    0  502  501  0.00000000000E+00  0.00000000000E+00  0.11752672218E+02  0.11752672218E+02  0.00000000000E+00 0.  1.
         21   -1    0    0  501  502 -0.00000000000E+00 -0.00000000000E+00 -0.33237121971E+03  0.33237121971E+03  0.00000000000E+00 0.  1.
         25    1    1    2    0    0  0.00000000000E+00  0.00000000000E+00 -0.32061854750E+03  0.34412389193E+03  0.12500000000E+03 0.  0.
<mgrwt>
<rscale>  2 0.12500000E+03</rscale>
<asrwt>0</asrwt>
<pdfrwt beam="1">  1       21 0.18081036E-02 0.12500000E+03</pdfrwt>
<pdfrwt beam="2">  1       21 0.51134030E-01 0.12500000E+03</pdfrwt>
<totfact> 0.51975349E+06</totfact>
</mgrwt>
</event>
<event>
 3    0  0.1368989E+001  0.1250000E+03  0.7546771E-02  0.1235069E+00
         21   -1    0    0  502  501  0.00000000000E+00  0.00000000000E+00  0.25666650061E+04  0.25666650061E+04  0.00000000000E+00 0. -1.
         21   -1    0    0  501  502 -0.00000000000E+00 -0.00000000000E+00 -0.15219165690E+01  0.15219165690E+01  0.00000000000E+00 0. -1.
         25    1    1    2    0    0  0.00000000000E+00  0.00000000000E+00  0.25651430896E+04  0.25681869227E+04  0.12500000000E+03 0.  0.
<mgrwt>
<rscale>  2 0.12500000E+03</rscale>
<asrwt>0</asrwt>
<pdfrwt beam="1">  1       21 0.39486808E+00 0.12500000E+03</pdfrwt>
<pdfrwt beam="2">  1       21 0.23414306E-03 0.12500000E+03</pdfrwt>
<totfact> 0.36225721E+05</totfact>
</mgrwt>
</event>
<event>
 3    0  0.1636164E+001  0.1250000E+03  0.7546771E-02  0.1235069E+00
         21   -1    0    0  502  501  0.00000000000E+00  0.00000000000E+00  0.18188518503E+03  0.18188518503E+03  0.00000000000E+00 0. -1.
         21   -1    0    0  501  502 -0.00000000000E+00 -0.00000000000E+00 -0.21476460545E+02  0.21476460545E+02  0.00000000000E+00 0. -1.
         25    1    1    2    0    0  0.00000000000E+00  0.00000000000E+00  0.16040872449E+03  0.20336164558E+03  0.12500000000E+03 0.  0.
<mgrwt>
<rscale>  2 0.12500000E+03</rscale>
<asrwt>0</asrwt>
<pdfrwt beam="1">  1       21 0.27982335E-01 0.12500000E+03</pdfrwt>
<pdfrwt beam="2">  1       21 0.33040710E-02 0.12500000E+03</pdfrwt>
<totfact> 0.64564806E+06</totfact>
</mgrwt>
</event>
<event>
 3    0  0.1368989E+001  0.1250000E+03  0.7546771E-02  0.1235069E+00
         21   -1    0    0  502  501  0.00000000000E+00  0.00000000000E+00  0.51502701587E+01  0.51502701587E+01  0.00000000000E+00 0. -1.
         21   -1    0    0  501  502 -0.00000000000E+00 -0.00000000000E+00 -0.75845535857E+03  0.75845535857E+03  0.00000000000E+00 0. -1.
         25    1    1    2    0    0  0.00000000000E+00  0.00000000000E+00 -0.75330508841E+03  0.76360562873E+03  0.12500000000E+03 0.  0.
<mgrwt>
<rscale>  2 0.12500000E+03</rscale>
<asrwt>0</asrwt>
<pdfrwt beam="1">  1       21 0.79234902E-03 0.12500000E+03</pdfrwt>
<pdfrwt beam="2">  1       21 0.11668547E+00 0.12500000E+03</pdfrwt>
<totfact> 0.30596002E+06</totfact>
</mgrwt>
</event>
<event>
 3    0  0.1586857E+001  0.1250000E+03  0.7546771E-02  0.1235069E+00
         21   -1    0    0  502  501  0.00000000000E+00  0.00000000000E+00  0.26210017848E+03  0.26210017848E+03  0.00000000000E+00 0. -1.
         21   -1    0    0  501  502 -0.00000000000E+00 -0.00000000000E+00 -0.14903652575E+02  0.14903652575E+02  0.00000000000E+00 0. -1.
         25    1    1    2    0    0  0.00000000000E+00  0.00000000000E+00  0.24719652591E+03  0.27700383106E+03  0.12500000000E+03 0.  0.
<mgrwt>
<rscale>  2 0.12500000E+03</rscale>
<asrwt>0</asrwt>
<pdfrwt beam="1">  1       21 0.40323101E-01 0.12500000E+03</pdfrwt>
<pdfrwt beam="2">  1       21 0.22928698E-02 0.12500000E+03</pdfrwt>
<totfact> 0.57423082E+06</totfact>
</mgrwt>
</event>
<event>
 3    0  0.1368989E+001  0.1250000E+03  0.7546771E-02  0.1235069E+00
         21   -1    0    0  502  501  0.00000000000E+00  0.00000000000E+00  0.58599298957E+01  0.58599298957E+01  0.00000000000E+00 0.  1.
         21   -1    0    0  501  502 -0.00000000000E+00 -0.00000000000E+00 -0.66660353784E+03  0.66660353784E+03  0.00000000000E+00 0.  1.
         25    1    1    2    0    0  0.00000000000E+00  0.00000000000E+00 -0.66074360795E+03  0.67246346774E+03  0.12500000000E+03 0.  0.
<mgrwt>
<rscale>  2 0.12500000E+03</rscale>
<asrwt>0</asrwt>
<pdfrwt beam="1">  1       21 0.90152769E-03 0.12500000E+03</pdfrwt>
<pdfrwt beam="2">  1       21 0.10255439E+00 0.12500000E+03</pdfrwt>
<totfact> 0.33999032E+06</totfact>
</mgrwt>
</event>
<event>
 3    0  0.1701918E+001  0.1250000E+03  0.7546771E-02  0.1235069E+00
         21   -1    0    0  502  501  0.00000000000E+00  0.00000000000E+00  0.61591591739E+02  0.61591591739E+02  0.00000000000E+00 0. -1.
         21   -1    0    0  501  502 -0.00000000000E+00 -0.00000000000E+00 -0.63421806284E+02  0.63421806284E+02  0.00000000000E+00 0. -1.
         25    1    1    2    0    0  0.00000000000E+00  0.00000000000E+00 -0.18302145445E+01  0.12501339802E+03  0.12500000000E+03 0.  0.
<mgrwt>
<rscale>  2 0.12500000E+03</rscale>
<asrwt>0</asrwt>
<pdfrwt beam="1">  1       21 0.94756295E-02 0.12500000E+03</pdfrwt>
<pdfrwt beam="2">  1       21 0.97572009E-02 0.12500000E+03</pdfrwt>
<totfact> 0.74041772E+06</totfact>
</mgrwt>
</event>
<event>
 3    0  0.1582971E+001  0.1250000E+03  0.7546771E-02  0.1235069E+00
         21   -1    0    0  502  501  0.00000000000E+00  0.00000000000E+00  0.29800524764E+03  0.29800524764E+03  0.00000000000E+00 0.  1.
         21   -1    0    0  501  502 -0.00000000000E+00 -0.00000000000E+00 -0.13107990651E+02  0.13107990651E+02  0.00000000000E+00 0.  1.
         25    1    1    2    0    0  0.00000000000E+00  0.00000000000E+00  0.28489725699E+03  0.31111323829E+03  0.12500000000E+03 0.  0.
<mgrwt>
<rscale>  2 0.12500000E+03</rscale>
<asrwt>0</asrwt>
<pdfrwt beam="1">  1       21 0.45846956E-01 0.12500000E+03</pdfrwt>
<pdfrwt beam="2">  1       21 0.20166142E-02 0.12500000E+03</pdfrwt>
<totfact> 0.54545084E+06</totfact>
</mgrwt>
</event>
<event>
 3    0  0.1564297E+001  0.1250000E+03  0.7546771E-02  0.1235069E+00
         21   -1    0    0  502  501  0.00000000000E+00  0.00000000000E+00  0.29625905150E+03  0.29625905150E+03  0.00000000000E+00 0. -1.
         21   -1    0    0  501  502 -0.00000000000E+00 -0.00000000000E+00 -0.13185251152E+02  0.13185251152E+02  0.00000000000E+00 0. -1.
         25    1    1    2    0    0  0.00000000000E+00  0.00000000000E+00  0.28307380035E+03  0.30944430265E+03  0.12500000000E+03 0.  0.
<mgrwt>
<rscale>  2 0.12500000E+03</rscale>
<asrwt>0</asrwt>
<pdfrwt beam="1">  1       21 0.45578311E-01 0.12500000E+03</pdfrwt>
<pdfrwt beam="2">  1       21 0.20285004E-02 0.12500000E+03</pdfrwt>
<totfact> 0.54680337E+06</totfact>
</mgrwt>
</event>
<event>
 3    0  0.1723832E+001  0.1250000E+03  0.7546771E-02  0.1235069E+00
         21   -1    0    0  502  501  0.00000000000E+00  0.00000000000E+00  0.52484375680E+02  0.52484375680E+02  0.00000000000E+00 0.  1.
         21   -1    0    0  501  502 -0.00000000000E+00 -0.00000000000E+00 -0.74426911807E+02  0.74426911807E+02  0.00000000000E+00 0.  1.
         25    1    1    2    0    0  0.00000000000E+00  0.00000000000E+00 -0.21942536127E+02  0.12691128749E+03  0.12500000000E+03 0.  0.
<mgrwt>
<rscale>  2 0.12500000E+03</rscale>
<asrwt>0</asrwt>
<pdfrwt beam="1">  1       21 0.80745194E-02 0.12500000E+03</pdfrwt>
<pdfrwt beam="2">  1       21 0.11450294E-01 0.12500000E+03</pdfrwt>
<totfact> 0.73781218E+06</totfact>
</mgrwt>
</event>
<event>
 3    0  0.1368989E+001  0.1250000E+03  0.7546771E-02  0.1235069E+00
         21   -1    0    0  502  501  0.00000000000E+00  0.00000000000E+00  0.10158650005E+04  0.10158650005E+04  0.00000000000E+00 0.  1.
         21   -1    0    0  501  502 -0.00000000000E+00 -0.00000000000E+00 -0.38452451831E+01  0.38452451831E+01  0.00000000000E+00 0.  1.
         25    1    1    2    0    0  0.00000000000E+00  0.00000000000E+00  0.10120197554E+04  0.10197102457E+04  0.12500000000E+03 0.  0.
<mgrwt>
<rscale>  2 0.12500000E+03</rscale>
<asrwt>0</asrwt>
<pdfrwt beam="1">  1       21 0.15628671E+00 0.12500000E+03</pdfrwt>
<pdfrwt beam="2">  1       21 0.59157699E-03 0.12500000E+03</pdfrwt>
<totfact> 0.23130612E+06</totfact>
</mgrwt>
</event>
<event>
 3    0  0.1513049E+001  0.1250000E+03  0.7546771E-02  0.1235069E+00
         21   -1    0    0  502  501  0.00000000000E+00  0.00000000000E+00  0.11200972276E+02  0.11200972276E+02  0.00000000000E+00 0. -1.
         21   -1    0    0  501  502 -0.00000000000E+00 -0.00000000000E+00 -0.34874204700E+03  0.34874204700E+03  0.00000000000E+00 0. -1.
         25    1    1    2    0    0  0.00000000000E+00  0.00000000000E+00 -0.33754107472E+03  0.35994301927E+03  0.12500000000E+03 0.  0.
<mgrwt>
<rscale>  2 0.12500000E+03</rscale>
<asrwt>0</asrwt>
<pdfrwt beam="1">  1       21 0.17232268E-02 0.12500000E+03</pdfrwt>
<pdfrwt beam="2">  1       21 0.53652612E-01 0.12500000E+03</pdfrwt>
<totfact> 0.50812396E+06</totfact>
</mgrwt>
</event>
<event>
 3    0  0.1664896E+001  0.1250000E+03  0.7546771E-02  0.1235069E+00
         21   -1    0    0  502  501  0.00000000000E+00  0.00000000000E+00  0.13023833452E+03  0.13023833452E+03  0.00000000000E+00 0. -1.
         21   -1    0    0  501  502 -0.00000000000E+00 -0.00000000000E+00 -0.29993089319E+02  0.29993089319E+02  0.00000000000E+00 0. -1.
         25    1    1    2    0    0  0.00000000000E+00  0.00000000000E+00  0.10024524520E+03  0.16023142384E+03  0.12500000000E+03 0.  0.
<mgrwt>
<rscale>  2 0.12500000E+03</rscale>
<asrwt>0</asrwt>
<pdfrwt beam="1">  1       21 0.20036667E-01 0.12500000E+03</pdfrwt>
<pdfrwt beam="2">  1       21 0.46143215E-02 0.12500000E+03</pdfrwt>
<totfact> 0.69491229E+06</totfact>
</mgrwt>
</event>
<event>
 3    0  0.1700773E+001  0.1250000E+03  0.7546771E-02  0.1235069E+00
         21   -1    0    0  502  501  0.00000000000E+00  0.00000000000E+00  0.68753581357E+02  0.68753581357E+02  0.00000000000E+00 0. -1.
         21   -1    0    0  501  502 -0.00000000000E+00 -0.00000000000E+00 -0.56815222174E+02  0.56815222174E+02  0.00000000000E+00 0. -1.
         25    1    1    2    0    0  0.00000000000E+00  0.00000000000E+00  0.11938359183E+02  0.12556880353E+03  0.12500000000E+03 0.  0.
<mgrwt>
<rscale>  2 0.12500000E+03</rscale>
<asrwt>0</asrwt>
<pdfrwt beam="1">  1       21 0.10577474E-01 0.12500000E+03</pdfrwt>
<pdfrwt beam="2">  1       21 0.87408034E-02 0.12500000E+03</pdfrwt>
<totfact> 0.73965790E+06</totfact>
</mgrwt>
</event>
<event>
 3    0  0.1720370E+001  0.1250000E+03  0.7546771E-02  0.1235069E+00
         21   -1    0    0  502  501  0.00000000000E+00  0.00000000000E+00  0.83273742970E+02  0.83273742970E+02  0.00000000000E+00 0.  1.
         21   -1    0    0  501  502 -0.00000000000E+00 -0.00000000000E+00 -0.46908543566E+02  0.46908543566E+02  0.00000000000E+00 0.  1.
         25    1    1    2    0    0  0.00000000000E+00  0.00000000000E+00  0.36365199404E+02  0.13018228654E+03  0.12500000000E+03 0.  0.
<mgrwt>
<rscale>  2 0.12500000E+03</rscale>
<asrwt>0</asrwt>
<pdfrwt beam="1">  1       21 0.12811345E-01 0.12500000E+03</pdfrwt>
<pdfrwt beam="2">  1       21 0.72166990E-02 0.12500000E+03</pdfrwt>
<totfact> 0.73340562E+06</totfact>
</mgrwt>
</event>
<event>
 3    0  0.1672859E+001  0.1250000E+03  0.7546771E-02  0.1235069E+00
         21   -1    0    0  502  501  0.00000000000E+00  0.00000000000E+00  0.27507602544E+02  0.27507602544E+02  0.00000000000E+00 0. -1.
         21   -1    0    0  501  502 -0.00000000000E+00 -0.00000000000E+00 -0.14200619606E+03  0.14200619606E+03  0.00000000000E+00 0. -1.
         25    1    1    2    0    0  0.00000000000E+00  0.00000000000E+00 -0.11449859352E+03  0.16951379860E+03  0.12500000000E+03 0.  0.
<mgrwt>
<rscale>  2 0.12500000E+03</rscale>
<asrwt>0</asrwt>
<pdfrwt beam="1">  1       21 0.42319387E-02 0.12500000E+03</pdfrwt>
<pdfrwt beam="2">  1       21 0.21847108E-01 0.12500000E+03</pdfrwt>
<totfact> 0.68375292E+06</totfact>
</mgrwt>
</event>
<event>
 3    0  0.1599521E+001  0.1250000E+03  0.7546771E-02  0.1235069E+00
         21   -1    0    0  502  501  0.00000000000E+00  0.00000000000E+00  0.23157726088E+03  0.23157726088E+03  0.00000000000E+00 0. -1.
         21   -1    0    0  501  502 -0.00000000000E+00 -0.00000000000E+00 -0.16868020570E+02  0.16868020570E+02  0.00000000000E+00 0. -1.
         25    1    1    2    0    0  0.00000000000E+00  0.00000000000E+00  0.21470924031E+03  0.24844528145E+03  0.12500000000E+03 0.  0.
<mgrwt>
<rscale>  2 0.12500000E+03</rscale>
<asrwt>0</asrwt>
<pdfrwt beam="1">  1       21 0.35627269E-01 0.12500000E+03</pdfrwt>
<pdfrwt beam="2">  1       21 0.25950802E-02 0.12500000E+03</pdfrwt>
<totfact> 0.60024874E+06</totfact>
</mgrwt>
</event>
<event>
 3    0  0.1439766E+001  0.1250000E+03  0.7546771E-02  0.1235069E+00
         21   -1    0    0  502  501  0.00000000000E+00  0.00000000000E+00  0.63637595668E+01  0.63637595668E+01  0.00000000000E+00 0.  1.
         21   -1    0    0  501  502 -0.00000000000E+00 -0.00000000000E+00 -0.61382740171E+03  0.61382740171E+03  0.00000000000E+00 0.  1.
         25    1    1    2    0    0  0.00000000000E+00  0.00000000000E+00 -0.60746364214E+03  0.62019116128E+03  0.12500000000E+03 0.  0.
<mgrwt>
<rscale>  2 0.12500000E+03</rscale>
<asrwt>0</asrwt>
<pdfrwt beam="1">  1       21 0.97904005E-03 0.12500000E+03</pdfrwt>
<pdfrwt beam="2">  1       21 0.94434973E-01 0.12500000E+03</pdfrwt>
<totfact> 0.36195147E+06</totfact>
</mgrwt>
</event>
<event>
 3    0  0.1700146E+001  0.1250000E+03  0.7546771E-02  0.1235069E+00
         21   -1    0    0  502  501  0.00000000000E+00  0.00000000000E+00  0.55574968805E+02  0.55574968805E+02  0.00000000000E+00 0. -1.
         21   -1    0    0  501  502 -0.00000000000E+00 -0.00000000000E+00 -0.70287938689E+02  0.70287938689E+02  0.00000000000E+00 0. -1.
         25    1    1    2    0    0  0.00000000000E+00  0.00000000000E+00 -0.14712969884E+02  0.12586290749E+03  0.12500000000E+03 0.  0.
<mgrwt>
<rscale>  2 0.12500000E+03</rscale>
<asrwt>0</asrwt>
<pdfrwt beam="1">  1       21 0.85499952E-02 0.12500000E+03</pdfrwt>
<pdfrwt beam="2">  1       21 0.10813529E-01 0.12500000E+03</pdfrwt>
<totfact> 0.73924967E+06</totfact>
</mgrwt>
</event>
<event>
 3    0  0.1687725E+001  0.1250000E+03  0.7546771E-02  0.1235069E+00
         21   -1    0    0  502  501  0.00000000000E+00  0.00000000000E+00  0.34925400054E+02  0.34925400054E+02  0.00000000000E+00 0. -1.
         21   -1    0    0  501  502 -0.00000000000E+00 -0.00000000000E+00 -0.11184553345E+03  0.11184553345E+03  0.00000000000E+00 0. -1.
         25    1    1    2    0    0  0.00000000000E+00  0.00000000000E+00 -0.76920133394E+02  0.14677093350E+03  0.12500000000E+03 0.  0.
<mgrwt>
<rscale>  2 0.12500000E+03</rscale>
<asrwt>0</asrwt>
<pdfrwt beam="1">  1       21 0.53731385E-02 0.12500000E+03</pdfrwt>
<pdfrwt beam="2">  1       21 0.17207005E-01 0.12500000E+03</pdfrwt>
<totfact> 0.71167227E+06</totfact>
</mgrwt>
</event>
<event>
 3    0  0.1656629E+001  0.1250000E+03  0.7546771E-02  0.1235069E+00
         21   -1    0    0  502  501  0.00000000000E+00  0.00000000000E+00  0.23297223917E+02  0.23297223917E+02  0.00000000000E+00 0. -1.
         21   -1    0    0  501  502 -0.00000000000E+00 -0.00000000000E+00 -0.16767019169E+03  0.16767019169E+03  0.00000000000E+00 0. -1.
         25    1    1    2    0    0  0.00000000000E+00  0.00000000000E+00 -0.14437296777E+03  0.19096741561E+03  0.12500000000E+03 0.  0.
<mgrwt>
<rscale>  2 0.12500000E+03</rscale>
<asrwt>0</asrwt>
<pdfrwt beam="1">  1       21 0.35841885E-02 0.12500000E+03</pdfrwt>
<pdfrwt beam="2">  1       21 0.25795413E-01 0.12500000E+03</pdfrwt>
<totfact> 0.65915107E+06</totfact>
</mgrwt>
</event>
<event>
 3    0  0.1622593E+001  0.1250000E+03  0.7546771E-02  0.1235069E+00
         21   -1    0    0  502  501  0.00000000000E+00  0.00000000000E+00  0.24375584834E+03  0.24375584834E+03  0.00000000000E+00 0.  1.
         21   -1    0    0  501  502 -0.00000000000E+00 -0.00000000000E+00 -0.16025256528E+02  0.16025256528E+02  0.00000000000E+00 0.  1.
         25    1    1    2    0    0  0.00000000000E+00  0.00000000000E+00  0.22773059181E+03  0.25978110487E+03  0.12500000000E+03 0.  0.
<mgrwt>
<rscale>  2 0.12500000E+03</rscale>
<asrwt>0</asrwt>
<pdfrwt beam="1">  1       21 0.37500897E-01 0.12500000E+03</pdfrwt>
<pdfrwt beam="2">  1       21 0.24654243E-02 0.12500000E+03</pdfrwt>
<totfact> 0.58969341E+06</totfact>
</mgrwt>
</event>
<event>
 3    0  0.1699101E+001  0.1250000E+03  0.7546771E-02  0.1235069E+00
         21   -1    0    0  502  501  0.00000000000E+00  0.00000000000E+00  0.48491167882E+02  0.48491167882E+02  0.00000000000E+00 0. -1.
         21   -1    0    0  501  502 -0.00000000000E+00 -0.00000000000E+00 -0.80555906789E+02  0.80555906789E+02  0.00000000000E+00 0. -1.
         25    1    1    2    0    0  0.00000000000E+00  0.00000000000E+00 -0.32064738906E+02  0.12904707467E+03  0.12500000000E+03 0.  0.
<mgrwt>
<rscale>  2 0.12500000E+03</rscale>
<asrwt>0</asrwt>
<pdfrwt beam="1">  1       21 0.74601797E-02 0.12500000E+03</pdfrwt>
<pdfrwt beam="2">  1       21 0.12393216E-01 0.12500000E+03</pdfrwt>
<totfact> 0.73492559E+06</totfact>
</mgrwt>
</event>
<event>
 3    0  0.1726757E+001  0.1250000E+03  0.7546771E-02  0.1235069E+00
         21   -1    0    0  502  501  0.00000000000E+00  0.00000000000E+00  0.60551717776E+02  0.60551717776E+02  0.00000000000E+00 0.  1.
         21   -1    0    0  501  502 -0.00000000000E+00 -0.00000000000E+00 -0.64510969193E+02  0.64510969193E+02  0.00000000000E+00 0.  1.
         25    1    1    2    0    0  0.00000000000E+00  0.00000000000E+00 -0.39592514174E+01  0.12506268697E+03  0.12500000000E+03 0.  0.
<mgrwt>
<rscale>  2 0.12500000E+03</rscale>
<asrwt>0</asrwt>
<pdfrwt beam="1">  1       21 0.93156488E-02 0.12500000E+03</pdfrwt>
<pdfrwt beam="2">  1       21 0.99247646E-02 0.12500000E+03</pdfrwt>
<totfact> 0.74035115E+06</totfact>
</mgrwt>
</event>
<event>
 3    0  0.1726546E+001  0.1250000E+03  0.7546771E-02  0.1235069E+00
         21   -1    0    0  502  501  0.00000000000E+00  0.00000000000E+00  0.62461624440E+02  0.62461624440E+02  0.00000000000E+00 0.  1.
         21   -1    0    0  501  502 -0.00000000000E+00 -0.00000000000E+00 -0.62538399138E+02  0.62538399138E+02  0.00000000000E+00 0.  1.
         25    1    1    2    0    0  0.00000000000E+00  0.00000000000E+00 -0.76774698276E-01  0.12500002358E+03  0.12500000000E+03 0.  0.
<mgrwt>
<rscale>  2 0.12500000E+03</rscale>
<asrwt>0</asrwt>
<pdfrwt beam="1">  1       21 0.96094807E-02 0.12500000E+03</pdfrwt>
<pdfrwt beam="2">  1       21 0.96212922E-02 0.12500000E+03</pdfrwt>
<totfact> 0.74043578E+06</totfact>
</mgrwt>
</event>
<event>
 3    0  0.1652814E+001  0.1250000E+03  0.7546771E-02  0.1235069E+00
         21   -1    0    0  502  501  0.00000000000E+00  0.00000000000E+00  0.19226983072E+03  0.19226983072E+03  0.00000000000E+00 0.  1.
         21   -1    0    0  501  502 -0.00000000000E+00 -0.00000000000E+00 -0.20316499918E+02  0.20316499918E+02  0.00000000000E+00 0.  1.
         25    1    1    2    0    0  0.00000000000E+00  0.00000000000E+00  0.17195333080E+03  0.21258633063E+03  0.12500000000E+03 0.  0.
<mgrwt>
<rscale>  2 0.12500000E+03</rscale>
<asrwt>0</asrwt>
<pdfrwt beam="1">  1       21 0.29579973E-01 0.12500000E+03</pdfrwt>
<pdfrwt beam="2">  1       21 0.31256155E-02 0.12500000E+03</pdfrwt>
<totfact> 0.63588448E+06</totfact>
</mgrwt>
</event>
<event>
 3    0  0.1569734E+001  0.1250000E+03  0.7546771E-02  0.1235069E+00
         21   -1    0    0  502  501  0.00000000000E+00  0.00000000000E+00  0.13996745123E+02  0.13996745123E+02  0.00000000000E+00 0. -1.
         21   -1    0    0  501  502 -0.00000000000E+00 -0.00000000000E+00 -0.27908274143E+03  0.27908274143E+03  0.00000000000E+00 0. -1.
         25    1    1    2    0    0  0.00000000000E+00  0.00000000000E+00 -0.26508599631E+03  0.29307948656E+03  0.12500000000E+03 0.  0.
<mgrwt>
<rscale>  2 0.12500000E+03</rscale>
<asrwt>0</asrwt>
<pdfrwt beam="1">  1       21 0.21533456E-02 0.12500000E+03</pdfrwt>
<pdfrwt beam="2">  1       21 0.42935802E-01 0.12500000E+03</pdfrwt>
<totfact> 0.56036246E+06</totfact>
</mgrwt>
</event>
<event>
 3    0  0.1706167E+001  0.1250000E+03  0.7546771E-02  0.1235069E+00
         21   -1    0    0  502  501  0.00000000000E+00  0.00000000000E+00  0.32768812301E+02  0.32768812301E+02  0.00000000000E+00 0.  1.
         21   -1    0    0  501  502 -0.00000000000E+00 -0.00000000000E+00 -0.11920633449E+03  0.11920633449E+03  0.00000000000E+00 0.  1.
         25    1    1    2    0    0  0.00000000000E+00  0.00000000000E+00 -0.86437522191E+02  0.15197514679E+03  0.12500000000E+03 0.  0.
<mgrwt>
<rscale>  2 0.12500000E+03</rscale>
<asrwt>0</asrwt>
<pdfrwt beam="1">  1       21 0.50413558E-02 0.12500000E+03</pdfrwt>
<pdfrwt beam="2">  1       21 0.18339436E-01 0.12500000E+03</pdfrwt>
<totfact> 0.70511960E+06</totfact>
</mgrwt>
</event>
<event>
 3    0  0.1469960E+001  0.1250000E+03  0.7546771E-02  0.1235069E+00
         21   -1    0    0  502  501  0.00000000000E+00  0.00000000000E+00  0.81505566159E+01  0.81505566159E+01  0.00000000000E+00 0. -1.
         21   -1    0    0  501  502 -0.00000000000E+00 -0.00000000000E+00 -0.47926174666E+03  0.47926174666E+03  0.00000000000E+00 0. -1.
         25    1    1    2    0    0  0.00000000000E+00  0.00000000000E+00 -0.47111119005E+03  0.48741230328E+03  0.12500000000E+03 0.  0.
<mgrwt>
<rscale>  2 0.12500000E+03</rscale>
<asrwt>0</asrwt>
<pdfrwt beam="1">  1       21 0.12539320E-02 0.12500000E+03</pdfrwt>
<pdfrwt beam="2">  1       21 0.73732565E-01 0.12500000E+03</pdfrwt>
<totfact> 0.42735065E+06</totfact>
</mgrwt>
</event>
<event>
 3    0  0.1695420E+001  0.1250000E+03  0.7546771E-02  0.1235069E+00
         21   -1    0    0  502  501  0.00000000000E+00  0.00000000000E+00  0.95117524998E+02  0.95117524998E+02  0.00000000000E+00 0. -1.
         21   -1    0    0  501  502 -0.00000000000E+00 -0.00000000000E+00 -0.41067616090E+02  0.41067616090E+02  0.00000000000E+00 0. -1.
         25    1    1    2    0    0  0.00000000000E+00  0.00000000000E+00  0.54049908908E+02  0.13618514109E+03  0.12500000000E+03 0.  0.
<mgrwt>
<rscale>  2 0.12500000E+03</rscale>
<asrwt>0</asrwt>
<pdfrwt beam="1">  1       21 0.14633465E-01 0.12500000E+03</pdfrwt>
<pdfrwt beam="2">  1       21 0.63180948E-02 0.12500000E+03</pdfrwt>
<totfact> 0.72539930E+06</totfact>
</mgrwt>
</event>
<event>
 3    0  0.1667190E+001  0.1250000E+03  0.7546771E-02  0.1235069E+00
         21   -1    0    0  502  501  0.00000000000E+00  0.00000000000E+00  0.17885263413E+03  0.17885263413E+03  0.00000000000E+00 0.  1.
         21   -1    0    0  501  502 -0.00000000000E+00 -0.00000000000E+00 -0.21840606481E+02  0.21840606481E+02  0.00000000000E+00 0.  1.
         25    1    1    2    0    0  0.00000000000E+00  0.00000000000E+00  0.15701202765E+03  0.20069324061E+03  0.12500000000E+03 0.  0.
<mgrwt>
<rscale>  2 0.12500000E+03</rscale>
<asrwt>0</asrwt>
<pdfrwt beam="1">  1       21 0.27515789E-01 0.12500000E+03</pdfrwt>
<pdfrwt beam="2">  1       21 0.33600934E-02 0.12500000E+03</pdfrwt>
<totfact> 0.64852213E+06</totfact>
</mgrwt>
</event>
<event>
 3    0  0.1368989E+001  0.1250000E+03  0.7546771E-02  0.1235069E+00
         21   -1    0    0  502  501  0.00000000000E+00  0.00000000000E+00  0.39305127127E+01  0.39305127127E+01  0.00000000000E+00 0.  1.
         21   -1    0    0  501  502 -0.00000000000E+00 -0.00000000000E+00 -0.99382708709E+03  0.99382708709E+03  0.00000000000E+00 0.  1.
         25    1    1    2    0    0  0.00000000000E+00  0.00000000000E+00 -0.98989657437E+03  0.99775759980E+03  0.12500000000E+03 0.  0.
<mgrwt>
<rscale>  2 0.12500000E+03</rscale>
<asrwt>0</asrwt>
<pdfrwt beam="1">  1       21 0.60469407E-03 0.12500000E+03</pdfrwt>
<pdfrwt beam="2">  1       21 0.15289652E+00 0.12500000E+03</pdfrwt>
<totfact> 0.23674775E+06</totfact>
</mgrwt>
</event>
<event>
 3    0  0.1445856E+001  0.1250000E+03  0.7546771E-02  0.1235069E+00
         21   -1    0    0  502  501  0.00000000000E+00  0.00000000000E+00  0.73857137582E+01  0.73857137582E+01  0.00000000000E+00 0. -1.
         21   -1    0    0  501  502 -0.00000000000E+00 -0.00000000000E+00 -0.52889268768E+03  0.52889268768E+03  0.00000000000E+00 0. -1.
         25    1    1    2    0    0  0.00000000000E+00  0.00000000000E+00 -0.52150697392E+03  0.53627840144E+03  0.12500000000E+03 0.  0.
<mgrwt>
<rscale>  2 0.12500000E+03</rscale>
<asrwt>0</asrwt>
<pdfrwt beam="1">  1       21 0.11362634E-02 0.12500000E+03</pdfrwt>
<pdfrwt beam="2">  1       21 0.81368121E-01 0.12500000E+03</pdfrwt>
<totfact> 0.40142558E+06</totfact>
</mgrwt>
</event>
<event>
 3    0  0.1682522E+001  0.1250000E+03  0.7546771E-02  0.1235069E+00
         21   -1    0    0  502  501  0.00000000000E+00  0.00000000000E+00  0.24956829434E+02  0.24956829434E+02  0.00000000000E+00 0.  1.
         21   -1    0    0  501  502 -0.00000000000E+00 -0.00000000000E+00 -0.15652028277E+03  0.15652028277E+03  0.00000000000E+00 0.  1.
         25    1    1    2    0    0  0.00000000000E+00  0.00000000000E+00 -0.13156345333E+03  0.18147711220E+03  0.12500000000E+03 0.  0.
<mgrwt>
<rscale>  2 0.12500000E+03</rscale>
<asrwt>0</asrwt>
<pdfrwt beam="1">  1       21 0.38395123E-02 0.12500000E+03</pdfrwt>
<pdfrwt beam="2">  1       21 0.24080043E-01 0.12500000E+03</pdfrwt>
<totfact> 0.66982490E+06</totfact>
</mgrwt>
</event>
<event>
 3    0  0.1578677E+001  0.1250000E+03  0.7546771E-02  0.1235069E+00
         21   -1    0    0  502  501  0.00000000000E+00  0.00000000000E+00  0.28982282466E+03  0.28982282466E+03  0.00000000000E+00 0. -1.
         21   -1    0    0  501  502 -0.00000000000E+00 -0.00000000000E+00 -0.13478062001E+02  0.13478062001E+02  0.00000000000E+00 0. -1.
         25    1    1    2    0    0  0.00000000000E+00  0.00000000000E+00  0.27634476266E+03  0.30330088666E+03  0.12500000000E+03 0.  0.
<mgrwt>
<rscale>  2 0.12500000E+03</rscale>
<asrwt>0</asrwt>
<pdfrwt beam="1">  1       21 0.44588122E-01 0.12500000E+03</pdfrwt>
<pdfrwt beam="2">  1       21 0.20735482E-02 0.12500000E+03</pdfrwt>
<totfact> 0.55182970E+06</totfact>
</mgrwt>
</event>
<event>
 3    0  0.1716121E+001  0.1250000E+03  0.7546771E-02  0.1235069E+00
         21   -1    0    0  502  501  0.00000000000E+00  0.00000000000E+00  0.44324164868E+02  0.44324164868E+02  0.00000000000E+00 0.  1.
         21   -1    0    0  501  502 -0.00000000000E+00 -0.00000000000E+00 -0.88129128018E+02  0.88129128018E+02  0.00000000000E+00 0.  1.
         25    1    1    2    0    0  0.00000000000E+00  0.00000000000E+00 -0.43804963150E+02  0.13245329289E+03  0.12500000000E+03 0.  0.
<mgrwt>
<rscale>  2 0.12500000E+03</rscale>
<asrwt>0</asrwt>
<pdfrwt beam="1">  1       21 0.68191023E-02 0.12500000E+03</pdfrwt>
<pdfrwt beam="2">  1       21 0.13558327E-01 0.12500000E+03</pdfrwt>
<totfact> 0.73035490E+06</totfact>
</mgrwt>
</event>
<event>
 3    0  0.1698272E+001  0.1250000E+03  0.7546771E-02  0.1235069E+00
         21   -1    0    0  502  501  0.00000000000E+00  0.00000000000E+00  0.31814028323E+02  0.31814028323E+02  0.00000000000E+00 0.  1.
         21   -1    0    0  501  502 -0.00000000000E+00 -0.00000000000E+00 -0.12278388516E+03  0.12278388516E+03  0.00000000000E+00 0.  1.
         25    1    1    2    0    0  0.00000000000E+00  0.00000000000E+00 -0.90969856836E+02  0.15459791348E+03  0.12500000000E+03 0.  0.
<mgrwt>
<rscale>  2 0.12500000E+03</rscale>
<asrwt>0</asrwt>
<pdfrwt beam="1">  1       21 0.48944660E-02 0.12500000E+03</pdfrwt>
<pdfrwt beam="2">  1       21 0.18889828E-01 0.12500000E+03</pdfrwt>
<totfact> 0.70185668E+06</totfact>
</mgrwt>
</event>
<event>
 3    0  0.1554884E+001  0.1250000E+03  0.7546771E-02  0.1235069E+00
         21   -1    0    0  502  501  0.00000000000E+00  0.00000000000E+00  0.11060148951E+02  0.11060148951E+02  0.00000000000E+00 0. -1.
         21   -1    0    0  501  502 -0.00000000000E+00 -0.00000000000E+00 -0.35318240443E+03  0.35318240443E+03  0.00000000000E+00 0. -1.
         25    1    1    2    0    0  0.00000000000E+00  0.00000000000E+00 -0.34212225548E+03  0.36424255338E+03  0.12500000000E+03 0.  0.
<mgrwt>
<rscale>  2 0.12500000E+03</rscale>
<asrwt>0</asrwt>
<pdfrwt beam="1">  1       21 0.17015618E-02 0.12500000E+03</pdfrwt>
<pdfrwt beam="2">  1       21 0.54335740E-01 0.12500000E+03</pdfrwt>
<totfact> 0.50503481E+06</totfact>
</mgrwt>
</event>
<event>
 3    0  0.1703945E+001  0.1250000E+03  0.7546771E-02  0.1235069E+00
         21   -1    0    0  502  501  0.00000000000E+00  0.00000000000E+00  0.28085936302E+02  0.28085936302E+02  0.00000000000E+00 0.  1.
         21   -1    0    0  501  502 -0.00000000000E+00 -0.00000000000E+00 -0.13908206435E+03  0.13908206435E+03  0.00000000000E+00 0.  1.
         25    1    1    2    0    0  0.00000000000E+00  0.00000000000E+00 -0.11099612804E+03  0.16716800065E+03  0.12500000000E+03 0.  0.
<mgrwt>
<rscale>  2 0.12500000E+03</rscale>
<asrwt>0</asrwt>
<pdfrwt beam="1">  1       21 0.43209134E-02 0.12500000E+03</pdfrwt>
<pdfrwt beam="2">  1       21 0.21397240E-01 0.12500000E+03</pdfrwt>
<totfact> 0.68654078E+06</totfact>
</mgrwt>
</event>
<event>
 3    0  0.1526762E+001  0.1250000E+03  0.7546771E-02  0.1235069E+00
         21   -1    0    0  502  501  0.00000000000E+00  0.00000000000E+00  0.10656916236E+02  0.10656916236E+02  0.00000000000E+00 0. -1.
         21   -1    0    0  501  502 -0.00000000000E+00 -0.00000000000E+00 -0.36654599824E+03  0.36654599824E+03  0.00000000000E+00 0. -1.
         25    1    1    2    0    0  0.00000000000E+00  0.00000000000E+00 -0.35588908200E+03  0.37720291448E+03  0.12500000000E+03 0.  0.
<mgrwt>
<rscale>  2 0.12500000E+03</rscale>
<asrwt>0</asrwt>
<pdfrwt beam="1">  1       21 0.16395260E-02 0.12500000E+03</pdfrwt>
<pdfrwt beam="2">  1       21 0.56391678E-01 0.12500000E+03</pdfrwt>
<totfact> 0.49590062E+06</totfact>
</mgrwt>
</event>
<event>
 3    0  0.1451577E+001  0.1250000E+03  0.7546771E-02  0.1235069E+00
         21   -1    0    0  502  501  0.00000000000E+00  0.00000000000E+00  0.78054132929E+01  0.78054132929E+01  0.00000000000E+00 0.  1.
         21   -1    0    0  501  502 -0.00000000000E+00 -0.00000000000E+00 -0.50045396104E+03  0.50045396104E+03  0.00000000000E+00 0.  1.
         25    1    1    2    0    0  0.00000000000E+00  0.00000000000E+00 -0.49264854775E+03  0.50825937433E+03  0.12500000000E+03 0.  0.
<mgrwt>
<rscale>  2 0.12500000E+03</rscale>
<asrwt>0</asrwt>
<pdfrwt beam="1">  1       21 0.12008327E-02 0.12500000E+03</pdfrwt>
<pdfrwt beam="2">  1       21 0.76992922E-01 0.12500000E+03</pdfrwt>
<totfact> 0.41599658E+06</totfact>
</mgrwt>
</event>
<event>
 3    0  0.1569730E+001  0.1250000E+03  0.7546771E-02  0.1235069E+00
         21   -1    0    0  502  501  0.00000000000E+00  0.00000000000E+00  0.11747715017E+02  0.11747715017E+02  0.00000000000E+00 0.  1.
         21   -1    0    0  501  502 -0.00000000000E+00 -0.00000000000E+00 -0.33251147090E+03  0.33251147090E+03  0.00000000000E+00 0.  1.
         25    1    1    2    0    0  0.00000000000E+00  0.00000000000E+00 -0.32076375589E+03  0.34425918592E+03  0.12500000000E+03 0.  0.
<mgrwt>
<rscale>  2 0.12500000E+03</rscale>
<asrwt>0</asrwt>
<pdfrwt beam="1">  1       21 0.18073411E-02 0.12500000E+03</pdfrwt>
<pdfrwt beam="2">  1       21 0.51155603E-01 0.12500000E+03</pdfrwt>
<totfact> 0.51965225E+06</totfact>
</mgrwt>
</event>
<event>
 3    0  0.1630698E+001  0.1250000E+03  0.7546771E-02  0.1235069E+00
         21   -1    0    0  502  501  0.00000000000E+00  0.00000000000E+00  0.25317862704E+03  0.25317862704E+03  0.00000000000E+00 0.  1.
         21   -1    0    0  501  502 -0.00000000000E+00 -0.00000000000E+00 -0.15428830015E+02  0.15428830015E+02  0.00000000000E+00 0.  1.
         25    1    1    2    0    0  0.00000000000E+00  0.00000000000E+00  0.23774979702E+03  0.26860745705E+03  0.12500000000E+03 0.  0.
<mgrwt>
<rscale>  2 0.12500000E+03</rscale>
<asrwt>0</asrwt>
<pdfrwt beam="1">  1       21 0.38950555E-01 0.12500000E+03</pdfrwt>
<pdfrwt beam="2">  1       21 0.23736663E-02 0.12500000E+03</pdfrwt>
<totfact> 0.58169224E+06</totfact>
</mgrwt>
</event>
<event>
 3    0  0.1683158E+001  0.1250000E+03  0.7546771E-02  0.1235069E+00
         21   -1    0    0  502  501  0.00000000000E+00  0.00000000000E+00  0.34254719389E+02  0.34254719389E+02  0.00000000000E+00 0. -1.
         21   -1    0    0  501  502 -0.00000000000E+00 -0.00000000000E+00 -0.11403538168E+03  0.11403538168E+03  0.00000000000E+00 0. -1.
         25    1    1    2    0    0  0.00000000000E+00  0.00000000000E+00 -0.79780662294E+02  0.14829010107E+03  0.12500000000E+03 0.  0.
<mgrwt>
<rscale>  2 0.12500000E+03</rscale>
<asrwt>0</asrwt>
<pdfrwt beam="1">  1       21 0.52699569E-02 0.12500000E+03</pdfrwt>
<pdfrwt beam="2">  1       21 0.17543905E-01 0.12500000E+03</pdfrwt>
<totfact> 0.70974661E+06</totfact>
</mgrwt>
</event>
<event>
 3    0  0.1476433E+001  0.1250000E+03  0.7546771E-02  0.1235069E+00
         21   -1    0    0  502  501  0.00000000000E+00  0.00000000000E+00  0.47757598568E+03  0.47757598568E+03  0.00000000000E+00 0. -1.
         21   -1    0    0  501  502 -0.00000000000E+00 -0.00000000000E+00 -0.81793266771E+01  0.81793266771E+01  0.00000000000E+00 0. -1.
         25    1    1    2    0    0  0.00000000000E+00  0.00000000000E+00  0.46939665900E+03  0.48575531236E+03  0.12500000000E+03 0.  0.
<mgrwt>
<rscale>  2 0.12500000E+03</rscale>
<asrwt>0</asrwt>
<pdfrwt beam="1">  1       21 0.73473207E-01 0.12500000E+03</pdfrwt>
<pdfrwt beam="2">  1       21 0.12583583E-02 0.12500000E+03</pdfrwt>
<totfact> 0.42827287E+06</totfact>
</mgrwt>
</event>
<event>
 3    0  0.1480170E+001  0.1250000E+03  0.7546771E-02  0.1235069E+00
         21   -1    0    0  502  501  0.00000000000E+00  0.00000000000E+00  0.80528354120E+01  0.80528354120E+01  0.00000000000E+00 0.  1.
         21   -1    0    0  501  502 -0.00000000000E+00 -0.00000000000E+00 -0.48507759070E+03  0.48507759070E+03  0.00000000000E+00 0.  1.
         25    1    1    2    0    0  0.00000000000E+00  0.00000000000E+00 -0.47702475529E+03  0.49313042612E+03  0.12500000000E+03 0.  0.
<mgrwt>
<rscale>  2 0.12500000E+03</rscale>
<asrwt>0</asrwt>
<pdfrwt beam="1">  1       21 0.12388973E-02 0.12500000E+03</pdfrwt>
<pdfrwt beam="2">  1       21 0.74627347E-01 0.12500000E+03</pdfrwt>
<totfact> 0.42419081E+06</totfact>
</mgrwt>
</event>
<event>
 3    0  0.1413593E+001  0.1250000E+03  0.7546771E-02  0.1235069E+00
         21   -1    0    0  502  501  0.00000000000E+00  0.00000000000E+00  0.62960607457E+03  0.62960607457E+03  0.00000000000E+00 0.  1.
         21   -1    0    0  501  502 -0.00000000000E+00 -0.00000000000E+00 -0.62042762256E+01  0.62042762256E+01  0.00000000000E+00 0.  1.
         25    1    1    2    0    0  0.00000000000E+00  0.00000000000E+00  0.62340179835E+03  0.63581035080E+03  0.12500000000E+03 0.  0.
<mgrwt>
<rscale>  2 0.12500000E+03</rscale>
<asrwt>0</asrwt>
<pdfrwt beam="1">  1       21 0.96862423E-01 0.12500000E+03</pdfrwt>
<pdfrwt beam="2">  1       21 0.95450453E-03 0.12500000E+03</pdfrwt>
<totfact> 0.35521658E+06</totfact>
</mgrwt>
</event>
<event>
 3    0  0.1468048E+001  0.1250000E+03  0.7546771E-02  0.1235069E+00
         21   -1    0    0  502  501  0.00000000000E+00  0.00000000000E+00  0.90210319318E+01  0.90210319318E+01  0.00000000000E+00 0. -1.
         21   -1    0    0  501  502 -0.00000000000E+00 -0.00000000000E+00 -0.43301587108E+03  0.43301587108E+03  0.00000000000E+00 0. -1.
         25    1    1    2    0    0  0.00000000000E+00  0.00000000000E+00 -0.42399483915E+03  0.44203690301E+03  0.12500000000E+03 0.  0.
<mgrwt>
<rscale>  2 0.12500000E+03</rscale>
<asrwt>0</asrwt>
<pdfrwt beam="1">  1       21 0.13878513E-02 0.12500000E+03</pdfrwt>
<pdfrwt beam="2">  1       21 0.66617817E-01 0.12500000E+03</pdfrwt>
<totfact> 0.45372591E+06</totfact>
</mgrwt>
</event>
<event>
 3    0  0.1368989E+001  0.1250000E+03  0.7546771E-02  0.1235069E+00
         21   -1    0    0  502  501  0.00000000000E+00  0.00000000000E+00  0.13621834062E+04  0.13621834062E+04  0.00000000000E+00 0. -1.
         21   -1    0    0  501  502 -0.00000000000E+00 -0.00000000000E+00 -0.28676388086E+01  0.28676388086E+01  0.00000000000E+00 0. -1.
         25    1    1    2    0    0  0.00000000000E+00  0.00000000000E+00  0.13593157674E+04  0.13650510450E+04  0.12500000000E+03 0.  0.
<mgrwt>
<rscale>  2 0.12500000E+03</rscale>
<asrwt>0</asrwt>
<pdfrwt beam="1">  1       21 0.20956616E+00 0.12500000E+03</pdfrwt>
<pdfrwt beam="2">  1       21 0.44117629E-03 0.12500000E+03</pdfrwt>
<totfact> 0.16123325E+06</totfact>
</mgrwt>
</event>
<event>
 3    0  0.1699275E+001  0.1250000E+03  0.7546771E-02  0.1235069E+00
         21   -1    0    0  502  501  0.00000000000E+00  0.00000000000E+00  0.48576464832E+02  0.48576464832E+02  0.00000000000E+00 0. -1.
         21   -1    0    0  501  502 -0.00000000000E+00 -0.00000000000E+00 -0.80414456126E+02  0.80414456126E+02  0.00000000000E+00 0. -1.
         25    1    1    2    0    0  0.00000000000E+00  0.00000000000E+00 -0.31837991294E+02  0.12899092096E+03  0.12500000000E+03 0.  0.
<mgrwt>
<rscale>  2 0.12500000E+03</rscale>
<asrwt>0</asrwt>
<pdfrwt beam="1">  1       21 0.74733023E-02 0.12500000E+03</pdfrwt>
<pdfrwt beam="2">  1       21 0.12371455E-01 0.12500000E+03</pdfrwt>
<totfact> 0.73500100E+06</totfact>
</mgrwt>
</event>
<event>
 3    0  0.1368989E+001  0.1250000E+03  0.7546771E-02  0.1235069E+00
         21   -1    0    0  502  501  0.00000000000E+00  0.00000000000E+00  0.11931638035E+04  0.11931638035E+04  0.00000000000E+00 0.  1.
         21   -1    0    0  501  502 -0.00000000000E+00 -0.00000000000E+00 -0.32738589527E+01  0.32738589527E+01  0.00000000000E+00 0.  1.
         25    1    1    2    0    0  0.00000000000E+00  0.00000000000E+00  0.11898899445E+04  0.11964376624E+04  0.12500000000E+03 0.  0.
<mgrwt>
<rscale>  2 0.12500000E+03</rscale>
<asrwt>0</asrwt>
<pdfrwt beam="1">  1       21 0.18356332E+00 0.12500000E+03</pdfrwt>
<pdfrwt beam="2">  1       21 0.50367156E-03 0.12500000E+03</pdfrwt>
<totfact> 0.19214545E+06</totfact>
</mgrwt>
</event>
<event>
 3    0  0.1446412E+001  0.1250000E+03  0.7546771E-02  0.1235069E+00
         21   -1    0    0  502  501  0.00000000000E+00  0.00000000000E+00  0.68439843341E+01  0.68439843341E+01  0.00000000000E+00 0.  1.
         21   -1    0    0  501  502 -0.00000000000E+00 -0.00000000000E+00 -0.57075671266E+03  0.57075671266E+03  0.00000000000E+00 0.  1.
         25    1    1    2    0    0  0.00000000000E+00  0.00000000000E+00 -0.56391272832E+03  0.57760069699E+03  0.12500000000E+03 0.  0.
<mgrwt>
<rscale>  2 0.12500000E+03</rscale>
<asrwt>0</asrwt>
<pdfrwt beam="1">  1       21 0.10529202E-02 0.12500000E+03</pdfrwt>
<pdfrwt beam="2">  1       21 0.87808763E-01 0.12500000E+03</pdfrwt>
<totfact> 0.38125595E+06</totfact>
</mgrwt>
</event>
<event>
 3    0  0.1668561E+001  0.1250000E+03  0.7546771E-02  0.1235069E+00
         21   -1    0    0  502  501  0.00000000000E+00  0.00000000000E+00  0.14327551540E+03  0.14327551540E+03  0.00000000000E+00 0. -1.
         21   -1    0    0  501  502 -0.00000000000E+00 -0.00000000000E+00 -0.27263904717E+02  0.27263904717E+02  0.00000000000E+00 0. -1.
         25    1    1    2    0    0  0.00000000000E+00  0.00000000000E+00  0.11601161068E+03  0.17053942011E+03  0.12500000000E+03 0.  0.
<mgrwt>
<rscale>  2 0.12500000E+03</rscale>
<asrwt>0</asrwt>
<pdfrwt beam="1">  1       21 0.22042387E-01 0.12500000E+03</pdfrwt>
<pdfrwt beam="2">  1       21 0.41944470E-02 0.12500000E+03</pdfrwt>
<totfact> 0.68253748E+06</totfact>
</mgrwt>
</event>
<event>
 3    0  0.1479366E+001  0.1250000E+03  0.7546771E-02  0.1235069E+00
         21   -1    0    0  502  501  0.00000000000E+00  0.00000000000E+00  0.52355280609E+03  0.52355280609E+03  0.00000000000E+00 0.  1.
         21   -1    0    0  501  502 -0.00000000000E+00 -0.00000000000E+00 -0.74610430019E+01  0.74610430019E+01  0.00000000000E+00 0.  1.
         25    1    1    2    0    0  0.00000000000E+00  0.00000000000E+00  0.51609176309E+03  0.53101384909E+03  0.12500000000E+03 0.  0.
<mgrwt>
<rscale>  2 0.12500000E+03</rscale>
<asrwt>0</asrwt>
<pdfrwt beam="1">  1       21 0.80546557E-01 0.12500000E+03</pdfrwt>
<pdfrwt beam="2">  1       21 0.11478532E-02 0.12500000E+03</pdfrwt>
<totfact> 0.40410575E+06</totfact>
</mgrwt>
</event>
<event>
 3    0  0.1699742E+001  0.1250000E+03  0.7546771E-02  0.1235069E+00
         21   -1    0    0  502  501  0.00000000000E+00  0.00000000000E+00  0.70426221101E+02  0.70426221101E+02  0.00000000000E+00 0. -1.
         21   -1    0    0  501  502 -0.00000000000E+00 -0.00000000000E+00 -0.55465846938E+02  0.55465846938E+02  0.00000000000E+00 0. -1.
         25    1    1    2    0    0  0.00000000000E+00  0.00000000000E+00  0.14960374164E+02  0.12589206804E+03  0.12500000000E+03 0.  0.
<mgrwt>
<rscale>  2 0.12500000E+03</rscale>
<asrwt>0</asrwt>
<pdfrwt beam="1">  1       21 0.10834803E-01 0.12500000E+03</pdfrwt>
<pdfrwt beam="2">  1       21 0.85332072E-02 0.12500000E+03</pdfrwt>
<totfact> 0.73920936E+06</totfact>
</mgrwt>
</event>
<event>
 3    0  0.1695102E+001  0.1250000E+03  0.7546771E-02  0.1235069E+00
         21   -1    0    0  502  501  0.00000000000E+00  0.00000000000E+00  0.86279937026E+02  0.86279937026E+02  0.00000000000E+00 0. -1.
         21   -1    0    0  501  502 -0.00000000000E+00 -0.00000000000E+00 -0.45274140601E+02  0.45274140601E+02  0.00000000000E+00 0. -1.
         25    1    1    2    0    0  0.00000000000E+00  0.00000000000E+00  0.41005796425E+02  0.13155407763E+03  0.12500000000E+03 0.  0.
<mgrwt>
<rscale>  2 0.12500000E+03</rscale>
<asrwt>0</asrwt>
<pdfrwt beam="1">  1       21 0.13273836E-01 0.12500000E+03</pdfrwt>
<pdfrwt beam="2">  1       21 0.69652524E-02 0.12500000E+03</pdfrwt>
<totfact> 0.73156102E+06</totfact>
</mgrwt>
</event>
<event>
 3    0  0.1669002E+001  0.1250000E+03  0.7546771E-02  0.1235069E+00
         21   -1    0    0  502  501  0.00000000000E+00  0.00000000000E+00  0.12841116256E+03  0.12841116256E+03  0.00000000000E+00 0. -1.
         21   -1    0    0  501  502 -0.00000000000E+00 -0.00000000000E+00 -0.30419863212E+02  0.30419863212E+02  0.00000000000E+00 0. -1.
         25    1    1    2    0    0  0.00000000000E+00  0.00000000000E+00  0.97991299349E+02  0.15883102577E+03  0.12500000000E+03 0.  0.
<mgrwt>
<rscale>  2 0.12500000E+03</rscale>
<asrwt>0</asrwt>
<pdfrwt beam="1">  1       21 0.19755563E-01 0.12500000E+03</pdfrwt>
<pdfrwt beam="2">  1       21 0.46799790E-02 0.12500000E+03</pdfrwt>
<totfact> 0.69662615E+06</totfact>
</mgrwt>
</event>
<event>
 3    0  0.1408701E+001  0.1250000E+03  0.7546771E-02  0.1235069E+00
         21   -1    0    0  502  501  0.00000000000E+00  0.00000000000E+00  0.65923015428E+01  0.65923015428E+01  0.00000000000E+00 0.  1.
         21   -1    0    0  501  502 -0.00000000000E+00 -0.00000000000E+00 -0.59254722719E+03  0.59254722719E+03  0.00000000000E+00 0.  1.
         25    1    1    2    0    0  0.00000000000E+00  0.00000000000E+00 -0.58595492565E+03  0.59913952873E+03  0.12500000000E+03 0.  0.
<mgrwt>
<rscale>  2 0.12500000E+03</rscale>
<asrwt>0</asrwt>
<pdfrwt beam="1">  1       21 0.10141999E-02 0.12500000E+03</pdfrwt>
<pdfrwt beam="2">  1       21 0.91161140E-01 0.12500000E+03</pdfrwt>
<totfact> 0.37131565E+06</totfact>
</mgrwt>
</event>
<event>
 3    0  0.1628580E+001  0.1250000E+03  0.7546771E-02  0.1235069E+00
         21   -1    0    0  502  501  0.00000000000E+00  0.00000000000E+00  0.21108688647E+03  0.21108688647E+03  0.00000000000E+00 0. -1.
         21   -1    0    0  501  502 -0.00000000000E+00 -0.00000000000E+00 -0.18505412938E+02  0.18505412938E+02  0.00000000000E+00 0. -1.
         25    1    1    2    0    0  0.00000000000E+00  0.00000000000E+00  0.19258147354E+03  0.22959229941E+03  0.12500000000E+03 0.  0.
<mgrwt>
<rscale>  2 0.12500000E+03</rscale>
<asrwt>0</asrwt>
<pdfrwt beam="1">  1       21 0.32474904E-01 0.12500000E+03</pdfrwt>
<pdfrwt beam="2">  1       21 0.28469867E-02 0.12500000E+03</pdfrwt>
<totfact> 0.61854577E+06</totfact>
</mgrwt>
</event>
<event>
 3    0  0.1680587E+001  0.1250000E+03  0.7546771E-02  0.1235069E+00
         21   -1    0    0  502  501  0.00000000000E+00  0.00000000000E+00  0.23298628363E+02  0.23298628363E+02  0.00000000000E+00 0.  1.
         21   -1    0    0  501  502 -0.00000000000E+00 -0.00000000000E+00 -0.16766008450E+03  0.16766008450E+03  0.00000000000E+00 0.  1.
         25    1    1    2    0    0  0.00000000000E+00  0.00000000000E+00 -0.14436145613E+03  0.19095871286E+03  0.12500000000E+03 0.  0.
<mgrwt>
<rscale>  2 0.12500000E+03</rscale>
<asrwt>0</asrwt>
<pdfrwt beam="1">  1       21 0.35844044E-02 0.12500000E+03</pdfrwt>
<pdfrwt beam="2">  1       21 0.25793859E-01 0.12500000E+03</pdfrwt>
<totfact> 0.65916070E+06</totfact>
</mgrwt>
</event>
<event>
 3    0  0.1685804E+001  0.1250000E+03  0.7546771E-02  0.1235069E+00
         21   -1    0    0  502  501  0.00000000000E+00  0.00000000000E+00  0.15524840866E+03  0.15524840866E+03  0.00000000000E+00 0.  1.
         21   -1    0    0  501  502 -0.00000000000E+00 -0.00000000000E+00 -0.25161288503E+02  0.25161288503E+02  0.00000000000E+00 0.  1.
         25    1    1    2    0    0  0.00000000000E+00  0.00000000000E+00  0.13008712016E+03  0.18040969717E+03  0.12500000000E+03 0.  0.
<mgrwt>
<rscale>  2 0.12500000E+03</rscale>
<asrwt>0</asrwt>
<pdfrwt beam="1">  1       21 0.23884370E-01 0.12500000E+03</pdfrwt>
<pdfrwt beam="2">  1       21 0.38709675E-02 0.12500000E+03</pdfrwt>
<totfact> 0.67104569E+06</totfact>
</mgrwt>
</event>
<event>
 3    0  0.1550454E+001  0.1250000E+03  0.7546771E-02  0.1235069E+00
         21   -1    0    0  502  501  0.00000000000E+00  0.00000000000E+00  0.36553194593E+03  0.36553194593E+03  0.00000000000E+00 0.  1.
         21   -1    0    0  501  502 -0.00000000000E+00 -0.00000000000E+00 -0.10686480466E+02  0.10686480466E+02  0.00000000000E+00 0.  1.
         25    1    1    2    0    0  0.00000000000E+00  0.00000000000E+00  0.35484546547E+03  0.37621842640E+03  0.12500000000E+03 0.  0.
<mgrwt>
<rscale>  2 0.12500000E+03</rscale>
<asrwt>0</asrwt>
<pdfrwt beam="1">  1       21 0.56235674E-01 0.12500000E+03</pdfrwt>
<pdfrwt beam="2">  1       21 0.16440742E-02 0.12500000E+03</pdfrwt>
<totfact> 0.49658527E+06</totfact>
</mgrwt>
</event>
<event>
 3    0  0.1701768E+001  0.1250000E+03  0.7546771E-02  0.1235069E+00
         21   -1    0    0  502  501  0.00000000000E+00  0.00000000000E+00  0.59138403126E+02  0.59138403126E+02  0.00000000000E+00 0. -1.
         21   -1    0    0  501  502 -0.00000000000E+00 -0.00000000000E+00 -0.66052679706E+02  0.66052679706E+02  0.00000000000E+00 0. -1.
         25    1    1    2    0    0  0.00000000000E+00  0.00000000000E+00 -0.69142765794E+01  0.12519108283E+03  0.12500000000E+03 0.  0.
<mgrwt>
<rscale>  2 0.12500000E+03</rscale>
<asrwt>0</asrwt>
<pdfrwt beam="1">  1       21 0.90982159E-02 0.12500000E+03</pdfrwt>
<pdfrwt beam="2">  1       21 0.10161951E-01 0.12500000E+03</pdfrwt>
<totfact> 0.74017776E+06</totfact>
</mgrwt>
</event>
<event>
 3    0  0.1721937E+001  0.1250000E+03  0.7546771E-02  0.1235069E+00
         21   -1    0    0  502  501  0.00000000000E+00  0.00000000000E+00  0.89062369917E+02  0.89062369917E+02  0.00000000000E+00 0.  1.
         21   -1    0    0  501  502 -0.00000000000E+00 -0.00000000000E+00 -0.43859713183E+02  0.43859713183E+02  0.00000000000E+00 0.  1.
         25    1    1    2    0    0  0.00000000000E+00  0.00000000000E+00  0.45202656734E+02  0.13292208310E+03  0.12500000000E+03 0.  0.
<mgrwt>
<rscale>  2 0.12500000E+03</rscale>
<asrwt>0</asrwt>
<pdfrwt beam="1">  1       21 0.13701903E-01 0.12500000E+03</pdfrwt>
<pdfrwt beam="2">  1       21 0.67476482E-02 0.12500000E+03</pdfrwt>
<totfact> 0.72972805E+06</totfact>
</mgrwt>
</event>
<event>
 3    0  0.1712321E+001  0.1250000E+03  0.7546771E-02  0.1235069E+00
         21   -1    0    0  502  501  0.00000000000E+00  0.00000000000E+00  0.11199604376E+03  0.11199604376E+03  0.00000000000E+00 0.  1.
         21   -1    0    0  501  502 -0.00000000000E+00 -0.00000000000E+00 -0.34878464174E+02  0.34878464174E+02  0.00000000000E+00 0.  1.
         25    1    1    2    0    0  0.00000000000E+00  0.00000000000E+00  0.77117579590E+02  0.14687450794E+03  0.12500000000E+03 0.  0.
<mgrwt>
<rscale>  2 0.12500000E+03</rscale>
<asrwt>0</asrwt>
<pdfrwt beam="1">  1       21 0.17230160E-01 0.12500000E+03</pdfrwt>
<pdfrwt beam="2">  1       21 0.53659176E-02 0.12500000E+03</pdfrwt>
<totfact> 0.71154064E+06</totfact>
</mgrwt>
</event>
<event>
 3    0  0.1656699E+001  0.1250000E+03  0.7546771E-02  0.1235069E+00
         21   -1    0    0  502  501  0.00000000000E+00  0.00000000000E+00  0.23301271172E+02  0.23301271172E+02  0.00000000000E+00 0. -1.
         21   -1    0    0  501  502 -0.00000000000E+00 -0.00000000000E+00 -0.16764106864E+03  0.16764106864E+03  0.00000000000E+00 0. -1.
         25    1    1    2    0    0  0.00000000000E+00  0.00000000000E+00 -0.14433979747E+03  0.19094233981E+03  0.12500000000E+03 0.  0.
<mgrwt>
<rscale>  2 0.12500000E+03</rscale>
<asrwt>0</asrwt>
<pdfrwt beam="1">  1       21 0.35848111E-02 0.12500000E+03</pdfrwt>
<pdfrwt beam="2">  1       21 0.25790933E-01 0.12500000E+03</pdfrwt>
<totfact> 0.65917885E+06</totfact>
</mgrwt>
</event>
<event>
 3    0  0.1632457E+001  0.1250000E+03  0.7546771E-02  0.1235069E+00
         21   -1    0    0  502  501  0.00000000000E+00  0.00000000000E+00  0.18613567649E+02  0.18613567649E+02  0.00000000000E+00 0. -1.
         21   -1    0    0  501  502 -0.00000000000E+00 -0.00000000000E+00 -0.20986035959E+03  0.20986035959E+03  0.00000000000E+00 0. -1.
         25    1    1    2    0    0  0.00000000000E+00  0.00000000000E+00 -0.19124679194E+03  0.22847392724E+03  0.12500000000E+03 0.  0.
<mgrwt>
<rscale>  2 0.12500000E+03</rscale>
<asrwt>0</asrwt>
<pdfrwt beam="1">  1       21 0.28636258E-02 0.12500000E+03</pdfrwt>
<pdfrwt beam="2">  1       21 0.32286209E-01 0.12500000E+03</pdfrwt>
<totfact> 0.61966179E+06</totfact>
</mgrwt>
</event>
<event>
 3    0  0.1419671E+001  0.1250000E+03  0.7546771E-02  0.1235069E+00
         21   -1    0    0  502  501  0.00000000000E+00  0.00000000000E+00  0.70347234562E+01  0.70347234562E+01  0.00000000000E+00 0.  1.
         21   -1    0    0  501  502 -0.00000000000E+00 -0.00000000000E+00 -0.55528124514E+03  0.55528124514E+03  0.00000000000E+00 0.  1.
         25    1    1    2    0    0  0.00000000000E+00  0.00000000000E+00 -0.54824652168E+03  0.56231596860E+03  0.12500000000E+03 0.  0.
<mgrwt>
<rscale>  2 0.12500000E+03</rscale>
<asrwt>0</asrwt>
<pdfrwt beam="1">  1       21 0.10822654E-02 0.12500000E+03</pdfrwt>
<pdfrwt beam="2">  1       21 0.85427867E-01 0.12500000E+03</pdfrwt>
<totfact> 0.38854261E+06</totfact>
</mgrwt>
</event>
<event>
 3    0  0.1458666E+001  0.1250000E+03  0.7546771E-02  0.1235069E+00
         21   -1    0    0  502  501  0.00000000000E+00  0.00000000000E+00  0.56490070295E+03  0.56490070295E+03  0.00000000000E+00 0.  1.
         21   -1    0    0  501  502 -0.00000000000E+00 -0.00000000000E+00 -0.69149320927E+01  0.69149320927E+01  0.00000000000E+00 0.  1.
         25    1    1    2    0    0  0.00000000000E+00  0.00000000000E+00  0.55798577086E+03  0.57181563504E+03  0.12500000000E+03 0.  0.
<mgrwt>
<rscale>  2 0.12500000E+03</rscale>
<asrwt>0</asrwt>
<pdfrwt beam="1">  1       21 0.86907764E-01 0.12500000E+03</pdfrwt>
<pdfrwt beam="2">  1       21 0.10638362E-02 0.12500000E+03</pdfrwt>
<totfact> 0.38399074E+06</totfact>
</mgrwt>
</event>
<event>
 3    0  0.1691981E+001  0.1250000E+03  0.7546771E-02  0.1235069E+00
         21   -1    0    0  502  501  0.00000000000E+00  0.00000000000E+00  0.44422064667E+02  0.44422064667E+02  0.00000000000E+00 0. -1.
         21   -1    0    0  501  502 -0.00000000000E+00 -0.00000000000E+00 -0.87934904180E+02  0.87934904180E+02  0.00000000000E+00 0. -1.
         25    1    1    2    0    0  0.00000000000E+00  0.00000000000E+00 -0.43512839512E+02  0.13235696885E+03  0.12500000000E+03 0.  0.
<mgrwt>
<rscale>  2 0.12500000E+03</rscale>
<asrwt>0</asrwt>
<pdfrwt beam="1">  1       21 0.68341639E-02 0.12500000E+03</pdfrwt>
<pdfrwt beam="2">  1       21 0.13528447E-01 0.12500000E+03</pdfrwt>
<totfact> 0.73048387E+06</totfact>
</mgrwt>
</event>
<event>
 3    0  0.1573176E+001  0.1250000E+03  0.7546771E-02  0.1235069E+00
         21   -1    0    0  502  501  0.00000000000E+00  0.00000000000E+00  0.31053143195E+03  0.31053143195E+03  0.00000000000E+00 0. -1.
         21   -1    0    0  501  502 -0.00000000000E+00 -0.00000000000E+00 -0.12579241900E+02  0.12579241900E+02  0.00000000000E+00 0. -1.
         25    1    1    2    0    0  0.00000000000E+00  0.00000000000E+00  0.29795219005E+03  0.32311067385E+03  0.12500000000E+03 0.  0.
<mgrwt>
<rscale>  2 0.12500000E+03</rscale>
<asrwt>0</asrwt>
<pdfrwt beam="1">  1       21 0.47774061E-01 0.12500000E+03</pdfrwt>
<pdfrwt beam="2">  1       21 0.19352682E-02 0.12500000E+03</pdfrwt>
<totfact> 0.53587757E+06</totfact>
</mgrwt>
</event>
<event>
 3    0  0.1368989E+001  0.1250000E+03  0.7546771E-02  0.1235069E+00
         21   -1    0    0  502  501  0.00000000000E+00  0.00000000000E+00  0.40557028339E+01  0.40557028339E+01  0.00000000000E+00 0.  1.
         21   -1    0    0  501  502 -0.00000000000E+00 -0.00000000000E+00 -0.96314995451E+03  0.96314995451E+03  0.00000000000E+00 0.  1.
         25    1    1    2    0    0  0.00000000000E+00  0.00000000000E+00 -0.95909425168E+03  0.96720565735E+03  0.12500000000E+03 0.  0.
<mgrwt>
<rscale>  2 0.12500000E+03</rscale>
<asrwt>0</asrwt>
<pdfrwt beam="1">  1       21 0.62395382E-03 0.12500000E+03</pdfrwt>
<pdfrwt beam="2">  1       21 0.14817703E+00 0.12500000E+03</pdfrwt>
<totfact> 0.24456318E+06</totfact>
</mgrwt>
</event>
<event>
 3    0  0.1607733E+001  0.1250000E+03  0.7546771E-02  0.1235069E+00
         21   -1    0    0  502  501  0.00000000000E+00  0.00000000000E+00  0.17735105847E+02  0.17735105847E+02  0.00000000000E+00 0. -1.
         21   -1    0    0  501  502 -0.00000000000E+00 -0.00000000000E+00 -0.22025524029E+03  0.22025524029E+03  0.00000000000E+00 0. -1.
         25    1    1    2    0    0  0.00000000000E+00  0.00000000000E+00 -0.20252013445E+03  0.23799034614E+03  0.12500000000E+03 0.  0.
<mgrwt>
<rscale>  2 0.12500000E+03</rscale>
<asrwt>0</asrwt>
<pdfrwt beam="1">  1       21 0.27284777E-02 0.12500000E+03</pdfrwt>
<pdfrwt beam="2">  1       21 0.33885423E-01 0.12500000E+03</pdfrwt>
<totfact> 0.61027675E+06</totfact>
</mgrwt>
</event>
<event>
 3    0  0.1664598E+001  0.1250000E+03  0.7546771E-02  0.1235069E+00
         21   -1    0    0  502  501  0.00000000000E+00  0.00000000000E+00  0.28731813958E+02  0.28731813958E+02  0.00000000000E+00 0. -1.
         21   -1    0    0  501  502 -0.00000000000E+00 -0.00000000000E+00 -0.13595556499E+03  0.13595556499E+03  0.00000000000E+00 0. -1.
         25    1    1    2    0    0  0.00000000000E+00  0.00000000000E+00 -0.10722375103E+03  0.16468737895E+03  0.12500000000E+03 0.  0.
<mgrwt>
<rscale>  2 0.12500000E+03</rscale>
<asrwt>0</asrwt>
<pdfrwt beam="1">  1       21 0.44202790E-02 0.12500000E+03</pdfrwt>
<pdfrwt beam="2">  1       21 0.20916241E-01 0.12500000E+03</pdfrwt>
<totfact> 0.68951236E+06</totfact>
</mgrwt>
</event>
<event>
 3    0  0.1674168E+001  0.1250000E+03  0.7546771E-02  0.1235069E+00
         21   -1    0    0  502  501  0.00000000000E+00  0.00000000000E+00  0.22166585077E+02  0.22166585077E+02  0.00000000000E+00 0.  1.
         21   -1    0    0  501  502 -0.00000000000E+00 -0.00000000000E+00 -0.17622245314E+03  0.17622245314E+03  0.00000000000E+00 0.  1.
         25    1    1    2    0    0  0.00000000000E+00  0.00000000000E+00 -0.15405586806E+03  0.19838903822E+03  0.12500000000E+03 0.  0.
<mgrwt>
<rscale>  2 0.12500000E+03</rscale>
<asrwt>0</asrwt>
<pdfrwt beam="1">  1       21 0.34102438E-02 0.12500000E+03</pdfrwt>
<pdfrwt beam="2">  1       21 0.27111147E-01 0.12500000E+03</pdfrwt>
<totfact> 0.65101997E+06</totfact>
</mgrwt>
</event>
<event>
 3    0  0.1623841E+001  0.1250000E+03  0.7546771E-02  0.1235069E+00
         21   -1    0    0  502  501  0.00000000000E+00  0.00000000000E+00  0.16035657581E+02  0.16035657581E+02  0.00000000000E+00 0.  1.
         21   -1    0    0  501  502 -0.00000000000E+00 -0.00000000000E+00 -0.24359774336E+03  0.24359774336E+03  0.00000000000E+00 0.  1.
         25    1    1    2    0    0  0.00000000000E+00  0.00000000000E+00 -0.22756208578E+03  0.25963340094E+03  0.12500000000E+03 0.  0.
<mgrwt>
<rscale>  2 0.12500000E+03</rscale>
<asrwt>0</asrwt>
<pdfrwt beam="1">  1       21 0.24670242E-02 0.12500000E+03</pdfrwt>
<pdfrwt beam="2">  1       21 0.37476577E-01 0.12500000E+03</pdfrwt>
<totfact> 0.58982888E+06</totfact>
</mgrwt>
</event>
<event>
 3    0  0.1628324E+001  0.1250000E+03  0.7546771E-02  0.1235069E+00
         21   -1    0    0  502  501  0.00000000000E+00  0.00000000000E+00  0.19266840895E+03  0.19266840895E+03  0.00000000000E+00 0. -1.
         21   -1    0    0  501  502 -0.00000000000E+00 -0.00000000000E+00 -0.20274470638E+02  0.20274470638E+02  0.00000000000E+00 0. -1.
         25    1    1    2    0    0  0.00000000000E+00  0.00000000000E+00  0.17239393831E+03  0.21294287958E+03  0.12500000000E+03 0.  0.
<mgrwt>
<rscale>  2 0.12500000E+03</rscale>
<asrwt>0</asrwt>
<pdfrwt beam="1">  1       21 0.29641292E-01 0.12500000E+03</pdfrwt>
<pdfrwt beam="2">  1       21 0.31191495E-02 0.12500000E+03</pdfrwt>
<totfact> 0.63551236E+06</totfact>
</mgrwt>
</event>
<event>
 3    0  0.1410909E+001  0.1250000E+03  0.7546771E-02  0.1235069E+00
         21   -1    0    0  502  501  0.00000000000E+00  0.00000000000E+00  0.55020843403E+03  0.55020843403E+03  0.00000000000E+00 0. -1.
         21   -1    0    0  501  502 -0.00000000000E+00 -0.00000000000E+00 -0.70995821918E+01  0.70995821918E+01  0.00000000000E+00 0. -1.
         25    1    1    2    0    0  0.00000000000E+00  0.00000000000E+00  0.54310885184E+03  0.55730801622E+03  0.12500000000E+03 0.  0.
<mgrwt>
<rscale>  2 0.12500000E+03</rscale>
<asrwt>0</asrwt>
<pdfrwt beam="1">  1       21 0.84647418E-01 0.12500000E+03</pdfrwt>
<pdfrwt beam="2">  1       21 0.10922438E-02 0.12500000E+03</pdfrwt>
<totfact> 0.39097367E+06</totfact>
</mgrwt>
</event>
<event>
 3    0  0.1368989E+001  0.1250000E+03  0.7546771E-02  0.1235069E+00
         21   -1    0    0  502  501  0.00000000000E+00  0.00000000000E+00  0.59947102671E+01  0.59947102671E+01  0.00000000000E+00 0. -1.
         21   -1    0    0  501  502 -0.00000000000E+00 -0.00000000000E+00 -0.65161614589E+03  0.65161614589E+03  0.00000000000E+00 0. -1.
         25    1    1    2    0    0  0.00000000000E+00  0.00000000000E+00 -0.64562143562E+03  0.65761085616E+03  0.12500000000E+03 0.  0.
<mgrwt>
<rscale>  2 0.12500000E+03</rscale>
<asrwt>0</asrwt>
<pdfrwt beam="1">  1       21 0.92226353E-03 0.12500000E+03</pdfrwt>
<pdfrwt beam="2">  1       21 0.10024859E+00 0.12500000E+03</pdfrwt>
<totfact> 0.34609119E+06</totfact>
</mgrwt>
</event>
<event>
 3    0  0.1614541E+001  0.1250000E+03  0.7546771E-02  0.1235069E+00
         21   -1    0    0  502  501  0.00000000000E+00  0.00000000000E+00  0.16434432384E+02  0.16434432384E+02  0.00000000000E+00 0. -1.
         21   -1    0    0  501  502 -0.00000000000E+00 -0.00000000000E+00 -0.23768694341E+03  0.23768694341E+03  0.00000000000E+00 0. -1.
         25    1    1    2    0    0  0.00000000000E+00  0.00000000000E+00 -0.22125251103E+03  0.25412137580E+03  0.12500000000E+03 0.  0.
<mgrwt>
<rscale>  2 0.12500000E+03</rscale>
<asrwt>0</asrwt>
<pdfrwt beam="1">  1       21 0.25283742E-02 0.12500000E+03</pdfrwt>
<pdfrwt beam="2">  1       21 0.36567222E-01 0.12500000E+03</pdfrwt>
<totfact> 0.59492323E+06</totfact>
</mgrwt>
</event>
<event>
 3    0  0.1379533E+001  0.1250000E+03  0.7546771E-02  0.1235069E+00
         21   -1    0    0  502  501  0.00000000000E+00  0.00000000000E+00  0.65024384342E+03  0.65024384342E+03  0.00000000000E+00 0.  1.
         21   -1    0    0  501  502 -0.00000000000E+00 -0.00000000000E+00 -0.60073617605E+01  0.60073617605E+01  0.00000000000E+00 0.  1.
         25    1    1    2    0    0  0.00000000000E+00  0.00000000000E+00  0.64423648166E+03  0.65625120518E+03  0.12500000000E+03 0.  0.
<mgrwt>
<rscale>  2 0.12500000E+03</rscale>
<asrwt>0</asrwt>
<pdfrwt beam="1">  1       21 0.10003746E+00 0.12500000E+03</pdfrwt>
<pdfrwt beam="2">  1       21 0.92421002E-03 0.12500000E+03</pdfrwt>
<totfact> 0.34665764E+06</totfact>
</mgrwt>
</event>
<event>
 3    0  0.1567858E+001  0.1250000E+03  0.7546771E-02  0.1235069E+00
         21   -1    0    0  502  501  0.00000000000E+00  0.00000000000E+00  0.13955007084E+02  0.13955007084E+02  0.00000000000E+00 0. -1.
         21   -1    0    0  501  502 -0.00000000000E+00 -0.00000000000E+00 -0.27991745017E+03  0.27991745017E+03  0.00000000000E+00 0. -1.
         25    1    1    2    0    0  0.00000000000E+00  0.00000000000E+00 -0.26596244309E+03  0.29387245726E+03  0.12500000000E+03 0.  0.
<mgrwt>
<rscale>  2 0.12500000E+03</rscale>
<asrwt>0</asrwt>
<pdfrwt beam="1">  1       21 0.21469242E-02 0.12500000E+03</pdfrwt>
<pdfrwt beam="2">  1       21 0.43064222E-01 0.12500000E+03</pdfrwt>
<totfact> 0.55969272E+06</totfact>
</mgrwt>
</event>
<event>
 3    0  0.1675052E+001  0.1250000E+03  0.7546771E-02  0.1235069E+00
         21   -1    0    0  502  501  0.00000000000E+00  0.00000000000E+00  0.12247139857E+03  0.12247139857E+03  0.00000000000E+00 0. -1.
         21   -1    0    0  501  502 -0.00000000000E+00 -0.00000000000E+00 -0.31895202029E+02  0.31895202029E+02  0.00000000000E+00 0. -1.
         25    1    1    2    0    0  0.00000000000E+00  0.00000000000E+00  0.90576196537E+02  0.15436660059E+03  0.12500000000E+03 0.  0.
<mgrwt>
<rscale>  2 0.12500000E+03</rscale>
<asrwt>0</asrwt>
<pdfrwt beam="1">  1       21 0.18841753E-01 0.12500000E+03</pdfrwt>
<pdfrwt beam="2">  1       21 0.49069542E-02 0.12500000E+03</pdfrwt>
<totfact> 0.70214468E+06</totfact>
</mgrwt>
</event>
<event>
 3    0  0.1621246E+001  0.1250000E+03  0.7546771E-02  0.1235069E+00
         21   -1    0    0  502  501  0.00000000000E+00  0.00000000000E+00  0.16788581479E+02  0.16788581479E+02  0.00000000000E+00 0.  1.
         21   -1    0    0  501  502 -0.00000000000E+00 -0.00000000000E+00 -0.23267302273E+03  0.23267302273E+03  0.00000000000E+00 0.  1.
         25    1    1    2    0    0  0.00000000000E+00  0.00000000000E+00 -0.21588444125E+03  0.24946160421E+03  0.12500000000E+03 0.  0.
<mgrwt>
<rscale>  2 0.12500000E+03</rscale>
<asrwt>0</asrwt>
<pdfrwt beam="1">  1       21 0.25828590E-02 0.12500000E+03</pdfrwt>
<pdfrwt beam="2">  1       21 0.35795845E-01 0.12500000E+03</pdfrwt>
<totfact> 0.59928917E+06</totfact>
</mgrwt>
</event>
<event>
 3    0  0.1610608E+001  0.1250000E+03  0.7546771E-02  0.1235069E+00
         21   -1    0    0  502  501  0.00000000000E+00  0.00000000000E+00  0.16319430148E+02  0.16319430148E+02  0.00000000000E+00 0. -1.
         21   -1    0    0  501  502 -0.00000000000E+00 -0.00000000000E+00 -0.23936191182E+03  0.23936191182E+03  0.00000000000E+00 0. -1.
         25    1    1    2    0    0  0.00000000000E+00  0.00000000000E+00 -0.22304248167E+03  0.25568134197E+03  0.12500000000E+03 0.  0.
<mgrwt>
<rscale>  2 0.12500000E+03</rscale>
<asrwt>0</asrwt>
<pdfrwt beam="1">  1       21 0.25106817E-02 0.12500000E+03</pdfrwt>
<pdfrwt beam="2">  1       21 0.36824908E-01 0.12500000E+03</pdfrwt>
<totfact> 0.59347386E+06</totfact>
</mgrwt>
</event>
<event>
 3    0  0.1614403E+001  0.1250000E+03  0.7546771E-02  0.1235069E+00
         21   -1    0    0  502  501  0.00000000000E+00  0.00000000000E+00  0.18732974723E+02  0.18732974723E+02  0.00000000000E+00 0. -1.
         21   -1    0    0  501  502 -0.00000000000E+00 -0.00000000000E+00 -0.20852267501E+03  0.20852267501E+03  0.00000000000E+00 0. -1.
         25    1    1    2    0    0  0.00000000000E+00  0.00000000000E+00 -0.18978970028E+03  0.22725564973E+03  0.12500000000E+03 0.  0.
<mgrwt>
<rscale>  2 0.12500000E+03</rscale>
<asrwt>0</asrwt>
<pdfrwt beam="1">  1       21 0.28819960E-02 0.12500000E+03</pdfrwt>
<pdfrwt beam="2">  1       21 0.32080413E-01 0.12500000E+03</pdfrwt>
<totfact> 0.62088154E+06</totfact>
</mgrwt>
</event>
<event>
 3    0  0.1368989E+001  0.1250000E+03  0.7546771E-02  0.1235069E+00
         21   -1    0    0  502  501  0.00000000000E+00  0.00000000000E+00  0.10262885720E+04  0.10262885720E+04  0.00000000000E+00 0. -1.
         21   -1    0    0  501  502 -0.00000000000E+00 -0.00000000000E+00 -0.38061906822E+01  0.38061906822E+01  0.00000000000E+00 0. -1.
         25    1    1    2    0    0  0.00000000000E+00  0.00000000000E+00  0.10224823813E+04  0.10300947627E+04  0.12500000000E+03 0.  0.
<mgrwt>
<rscale>  2 0.12500000E+03</rscale>
<asrwt>0</asrwt>
<pdfrwt beam="1">  1       21 0.15789033E+00 0.12500000E+03</pdfrwt>
<pdfrwt beam="2">  1       21 0.58556861E-03 0.12500000E+03</pdfrwt>
<totfact> 0.22876617E+06</totfact>
</mgrwt>
</event>
<event>
 3    0  0.1486161E+001  0.1250000E+03  0.7546771E-02  0.1235069E+00
         21   -1    0    0  502  501  0.00000000000E+00  0.00000000000E+00  0.75358856207E+01  0.75358856207E+01  0.00000000000E+00 0.  1.
         21   -1    0    0  501  502 -0.00000000000E+00 -0.00000000000E+00 -0.51835314343E+03  0.51835314343E+03  0.00000000000E+00 0.  1.
         25    1    1    2    0    0  0.00000000000E+00  0.00000000000E+00 -0.51081725781E+03  0.52588902905E+03  0.12500000000E+03 0.  0.
<mgrwt>
<rscale>  2 0.12500000E+03</rscale>
<asrwt>0</asrwt>
<pdfrwt beam="1">  1       21 0.11593667E-02 0.12500000E+03</pdfrwt>
<pdfrwt beam="2">  1       21 0.79746661E-01 0.12500000E+03</pdfrwt>
<totfact> 0.40673969E+06</totfact>
</mgrwt>
</event>
<event>
 3    0  0.1644717E+001  0.1250000E+03  0.7546771E-02  0.1235069E+00
         21   -1    0    0  502  501  0.00000000000E+00  0.00000000000E+00  0.24060228325E+02  0.24060228325E+02  0.00000000000E+00 0. -1.
         21   -1    0    0  501  502 -0.00000000000E+00 -0.00000000000E+00 -0.16235298964E+03  0.16235298964E+03  0.00000000000E+00 0. -1.
         25    1    1    2    0    0  0.00000000000E+00  0.00000000000E+00 -0.13829276132E+03  0.18641321797E+03  0.12500000000E+03 0.  0.
<mgrwt>
<rscale>  2 0.12500000E+03</rscale>
<asrwt>0</asrwt>
<pdfrwt beam="1">  1       21 0.37015737E-02 0.12500000E+03</pdfrwt>
<pdfrwt beam="2">  1       21 0.24977382E-01 0.12500000E+03</pdfrwt>
<totfact> 0.66423338E+06</totfact>
</mgrwt>
</event>
<event>
 3    0  0.1603879E+001  0.1250000E+03  0.7546771E-02  0.1235069E+00
         21   -1    0    0  502  501  0.00000000000E+00  0.00000000000E+00  0.16966972064E+02  0.16966972064E+02  0.00000000000E+00 0. -1.
         21   -1    0    0  501  502 -0.00000000000E+00 -0.00000000000E+00 -0.23022670074E+03  0.23022670074E+03  0.00000000000E+00 0. -1.
         25    1    1    2    0    0  0.00000000000E+00  0.00000000000E+00 -0.21325972868E+03  0.24719367281E+03  0.12500000000E+03 0.  0.
<mgrwt>
<rscale>  2 0.12500000E+03</rscale>
<asrwt>0</asrwt>
<pdfrwt beam="1">  1       21 0.26103034E-02 0.12500000E+03</pdfrwt>
<pdfrwt beam="2">  1       21 0.35419493E-01 0.12500000E+03</pdfrwt>
<totfact> 0.60143411E+06</totfact>
</mgrwt>
</event>
<event>
 3    0  0.1695717E+001  0.1250000E+03  0.7546771E-02  0.1235069E+00
         21   -1    0    0  502  501  0.00000000000E+00  0.00000000000E+00  0.85862796784E+02  0.85862796784E+02  0.00000000000E+00 0. -1.
         21   -1    0    0  501  502 -0.00000000000E+00 -0.00000000000E+00 -0.45494092276E+02  0.45494092276E+02  0.00000000000E+00 0. -1.
         25    1    1    2    0    0  0.00000000000E+00  0.00000000000E+00  0.40368704508E+02  0.13135688906E+03  0.12500000000E+03 0.  0.
<mgrwt>
<rscale>  2 0.12500000E+03</rscale>
<asrwt>0</asrwt>
<pdfrwt beam="1">  1       21 0.13209661E-01 0.12500000E+03</pdfrwt>
<pdfrwt beam="2">  1       21 0.69990911E-02 0.12500000E+03</pdfrwt>
<totfact> 0.73182618E+06</totfact>
</mgrwt>
</event>
<event>
 3    0  0.1657701E+001  0.1250000E+03  0.7546771E-02  0.1235069E+00
         21   -1    0    0  502  501  0.00000000000E+00  0.00000000000E+00  0.18274884175E+03  0.18274884175E+03  0.00000000000E+00 0.  1.
         21   -1    0    0  501  502 -0.00000000000E+00 -0.00000000000E+00 -0.21374964474E+02  0.21374964474E+02  0.00000000000E+00 0.  1.
         25    1    1    2    0    0  0.00000000000E+00  0.00000000000E+00  0.16137387727E+03  0.20412380622E+03  0.12500000000E+03 0.  0.
<mgrwt>
<rscale>  2 0.12500000E+03</rscale>
<asrwt>0</asrwt>
<pdfrwt beam="1">  1       21 0.28115205E-01 0.12500000E+03</pdfrwt>
<pdfrwt beam="2">  1       21 0.32884562E-02 0.12500000E+03</pdfrwt>
<totfact> 0.64483131E+06</totfact>
</mgrwt>
</event>
<event>
 3    0  0.1725078E+001  0.1250000E+03  0.7546771E-02  0.1235069E+00
         21   -1    0    0  502  501  0.00000000000E+00  0.00000000000E+00  0.56027335564E+02  0.56027335564E+02  0.00000000000E+00 0.  1.
         21   -1    0    0  501  502 -0.00000000000E+00 -0.00000000000E+00 -0.69720431298E+02  0.69720431298E+02  0.00000000000E+00 0.  1.
         25    1    1    2    0    0  0.00000000000E+00  0.00000000000E+00 -0.13693095734E+02  0.12574776686E+03  0.12500000000E+03 0.  0.
<mgrwt>
<rscale>  2 0.12500000E+03</rscale>
<asrwt>0</asrwt>
<pdfrwt beam="1">  1       21 0.86195901E-02 0.12500000E+03</pdfrwt>
<pdfrwt beam="2">  1       21 0.10726220E-01 0.12500000E+03</pdfrwt>
<totfact> 0.73940910E+06</totfact>
</mgrwt>
</event>
<event>
 3    0  0.1677074E+001  0.1250000E+03  0.7546771E-02  0.1235069E+00
         21   -1    0    0  502  501  0.00000000000E+00  0.00000000000E+00  0.25494066972E+02  0.25494066972E+02  0.00000000000E+00 0.  1.
         21   -1    0    0  501  502 -0.00000000000E+00 -0.00000000000E+00 -0.15322192431E+03  0.15322192431E+03  0.00000000000E+00 0.  1.
         25    1    1    2    0    0  0.00000000000E+00  0.00000000000E+00 -0.12772785734E+03  0.17871599128E+03  0.12500000000E+03 0.  0.
<mgrwt>
<rscale>  2 0.12500000E+03</rscale>
<asrwt>0</asrwt>
<pdfrwt beam="1">  1       21 0.39221642E-02 0.12500000E+03</pdfrwt>
<pdfrwt beam="2">  1       21 0.23572603E-01 0.12500000E+03</pdfrwt>
<totfact> 0.67299140E+06</totfact>
</mgrwt>
</event>
<event>
 3    0  0.1515095E+001  0.1250000E+03  0.7546771E-02  0.1235069E+00
         21   -1    0    0  502  501  0.00000000000E+00  0.00000000000E+00  0.97644787191E+01  0.97644787191E+01  0.00000000000E+00 0.  1.
         21   -1    0    0  501  502 -0.00000000000E+00 -0.00000000000E+00 -0.40004695718E+03  0.40004695718E+03  0.00000000000E+00 0.  1.
         25    1    1    2    0    0  0.00000000000E+00  0.00000000000E+00 -0.39028247846E+03  0.40981143590E+03  0.12500000000E+03 0.  0.
<mgrwt>
<rscale>  2 0.12500000E+03</rscale>
<asrwt>0</asrwt>
<pdfrwt beam="1">  1       21 0.15022272E-02 0.12500000E+03</pdfrwt>
<pdfrwt beam="2">  1       21 0.61545698E-01 0.12500000E+03</pdfrwt>
<totfact> 0.47397301E+06</totfact>
</mgrwt>
</event>
<event>
 3    0  0.1419924E+001  0.1250000E+03  0.7546771E-02  0.1235069E+00
         21   -1    0    0  502  501  0.00000000000E+00  0.00000000000E+00  0.54504158190E+03  0.54504158190E+03  0.00000000000E+00 0. -1.
         21   -1    0    0  501  502 -0.00000000000E+00 -0.00000000000E+00 -0.71668843804E+01  0.71668843804E+01  0.00000000000E+00 0. -1.
         25    1    1    2    0    0  0.00000000000E+00  0.00000000000E+00  0.53787469752E+03  0.55220846628E+03  0.12500000000E+03 0.  0.
<mgrwt>
<rscale>  2 0.12500000E+03</rscale>
<asrwt>0</asrwt>
<pdfrwt beam="1">  1       21 0.83852518E-01 0.12500000E+03</pdfrwt>
<pdfrwt beam="2">  1       21 0.11025980E-02 0.12500000E+03</pdfrwt>
<totfact> 0.39347181E+06</totfact>
</mgrwt>
</event>
<event>
 3    0  0.1717495E+001  0.1250000E+03  0.7546771E-02  0.1235069E+00
         21   -1    0    0  502  501  0.00000000000E+00  0.00000000000E+00  0.91770248504E+02  0.91770248504E+02  0.00000000000E+00 0.  1.
         21   -1    0    0  501  502 -0.00000000000E+00 -0.00000000000E+00 -0.42565538000E+02  0.42565538000E+02  0.00000000000E+00 0.  1.
         25    1    1    2    0    0  0.00000000000E+00  0.00000000000E+00  0.49204710504E+02  0.13433578650E+03  0.12500000000E+03 0.  0.
<mgrwt>
<rscale>  2 0.12500000E+03</rscale>
<asrwt>0</asrwt>
<pdfrwt beam="1">  1       21 0.14118500E-01 0.12500000E+03</pdfrwt>
<pdfrwt beam="2">  1       21 0.65485443E-02 0.12500000E+03</pdfrwt>
<totfact> 0.72784539E+06</totfact>
</mgrwt>
</event>
<event>
 3    0  0.1514599E+001  0.1250000E+03  0.7546771E-02  0.1235069E+00
         21   -1    0    0  502  501  0.00000000000E+00  0.00000000000E+00  0.37219762164E+03  0.37219762164E+03  0.00000000000E+00 0. -1.
         21   -1    0    0  501  502 -0.00000000000E+00 -0.00000000000E+00 -0.10495096618E+02  0.10495096618E+02  0.00000000000E+00 0. -1.
         25    1    1    2    0    0  0.00000000000E+00  0.00000000000E+00  0.36170252503E+03  0.38269271826E+03  0.12500000000E+03 0.  0.
<mgrwt>
<rscale>  2 0.12500000E+03</rscale>
<asrwt>0</asrwt>
<pdfrwt beam="1">  1       21 0.57261162E-01 0.12500000E+03</pdfrwt>
<pdfrwt beam="2">  1       21 0.16146305E-02 0.12500000E+03</pdfrwt>
<totfact> 0.49210920E+06</totfact>
</mgrwt>
</event>
<event>
 3    0  0.1700796E+001  0.1250000E+03  0.7546771E-02  0.1235069E+00
         21   -1    0    0  502  501  0.00000000000E+00  0.00000000000E+00  0.56404726836E+02  0.56404726836E+02  0.00000000000E+00 0. -1.
         21   -1    0    0  501  502 -0.00000000000E+00 -0.00000000000E+00 -0.69253947658E+02  0.69253947658E+02  0.00000000000E+00 0. -1.
         25    1    1    2    0    0  0.00000000000E+00  0.00000000000E+00 -0.12849220822E+02  0.12565867449E+03  0.12500000000E+03 0.  0.
<mgrwt>
<rscale>  2 0.12500000E+03</rscale>
<asrwt>0</asrwt>
<pdfrwt beam="1">  1       21 0.86776503E-02 0.12500000E+03</pdfrwt>
<pdfrwt beam="2">  1       21 0.10654453E-01 0.12500000E+03</pdfrwt>
<totfact> 0.73953278E+06</totfact>
</mgrwt>
</event>
<event>
 3    0  0.1700773E+001  0.1250000E+03  0.7546771E-02  0.1235069E+00
         21   -1    0    0  502  501  0.00000000000E+00  0.00000000000E+00  0.76271160473E+02  0.76271160473E+02  0.00000000000E+00 0. -1.
         21   -1    0    0  501  502 -0.00000000000E+00 -0.00000000000E+00 -0.51215295215E+02  0.51215295215E+02  0.00000000000E+00 0. -1.
         25    1    1    2    0    0  0.00000000000E+00  0.00000000000E+00  0.25055865258E+02  0.12748645569E+03  0.12500000000E+03 0.  0.
<mgrwt>
<rscale>  2 0.12500000E+03</rscale>
<asrwt>0</asrwt>
<pdfrwt beam="1">  1       21 0.11734025E-01 0.12500000E+03</pdfrwt>
<pdfrwt beam="2">  1       21 0.78792763E-02 0.12500000E+03</pdfrwt>
<totfact> 0.73703054E+06</totfact>
</mgrwt>
</event>
<event>
 3    0  0.1525212E+001  0.1250000E+03  0.7546771E-02  0.1235069E+00
         21   -1    0    0  502  501  0.00000000000E+00  0.00000000000E+00  0.94144496614E+01  0.94144496614E+01  0.00000000000E+00 0.  1.
         21   -1    0    0  501  502 -0.00000000000E+00 -0.00000000000E+00 -0.41492069537E+03  0.41492069537E+03  0.00000000000E+00 0.  1.
         25    1    1    2    0    0  0.00000000000E+00  0.00000000000E+00 -0.40550624571E+03  0.42433514503E+03  0.12500000000E+03 0.  0.
<mgrwt>
<rscale>  2 0.12500000E+03</rscale>
<asrwt>0</asrwt>
<pdfrwt beam="1">  1       21 0.14483770E-02 0.12500000E+03</pdfrwt>
<pdfrwt beam="2">  1       21 0.63833947E-01 0.12500000E+03</pdfrwt>
<totfact> 0.46468033E+06</totfact>
</mgrwt>
</event>
<event>
 3    0  0.1444320E+001  0.1250000E+03  0.7546771E-02  0.1235069E+00
         21   -1    0    0  502  501  0.00000000000E+00  0.00000000000E+00  0.57300367762E+03  0.57300367762E+03  0.00000000000E+00 0.  1.
         21   -1    0    0  501  502 -0.00000000000E+00 -0.00000000000E+00 -0.68171464731E+01  0.68171464731E+01  0.00000000000E+00 0.  1.
         25    1    1    2    0    0  0.00000000000E+00  0.00000000000E+00  0.56618653115E+03  0.57982082410E+03  0.12500000000E+03 0.  0.
<mgrwt>
<rscale>  2 0.12500000E+03</rscale>
<asrwt>0</asrwt>
<pdfrwt beam="1">  1       21 0.88154374E-01 0.12500000E+03</pdfrwt>
<pdfrwt beam="2">  1       21 0.10487922E-02 0.12500000E+03</pdfrwt>
<totfact> 0.38021415E+06</totfact>
</mgrwt>
</event>
<event>
 3    0  0.1676428E+001  0.1250000E+03  0.7546771E-02  0.1235069E+00
         21   -1    0    0  502  501  0.00000000000E+00  0.00000000000E+00  0.29871123206E+02  0.29871123206E+02  0.00000000000E+00 0. -1.
         21   -1    0    0  501  502 -0.00000000000E+00 -0.00000000000E+00 -0.13077010774E+03  0.13077010774E+03  0.00000000000E+00 0. -1.
         25    1    1    2    0    0  0.00000000000E+00  0.00000000000E+00 -0.10089898453E+03  0.16064123095E+03  0.12500000000E+03 0.  0.
<mgrwt>
<rscale>  2 0.12500000E+03</rscale>
<asrwt>0</asrwt>
<pdfrwt beam="1">  1       21 0.45955574E-02 0.12500000E+03</pdfrwt>
<pdfrwt beam="2">  1       21 0.20118478E-01 0.12500000E+03</pdfrwt>
<totfact> 0.69441229E+06</totfact>
</mgrwt>
</event>
<event>
 3    0  0.1628774E+001  0.1250000E+03  0.7546771E-02  0.1235069E+00
         21   -1    0    0  502  501  0.00000000000E+00  0.00000000000E+00  0.20285853149E+02  0.20285853149E+02  0.00000000000E+00 0. -1.
         21   -1    0    0  501  502 -0.00000000000E+00 -0.00000000000E+00 -0.19256030157E+03  0.19256030157E+03  0.00000000000E+00 0. -1.
         25    1    1    2    0    0  0.00000000000E+00  0.00000000000E+00 -0.17227444842E+03  0.21284615472E+03  0.12500000000E+03 0.  0.
<mgrwt>
<rscale>  2 0.12500000E+03</rscale>
<asrwt>0</asrwt>
<pdfrwt beam="1">  1       21 0.31209006E-02 0.12500000E+03</pdfrwt>
<pdfrwt beam="2">  1       21 0.29624660E-01 0.12500000E+03</pdfrwt>
<totfact> 0.63561327E+06</totfact>
</mgrwt>
</event>
<event>
 3    0  0.1726541E+001  0.1250000E+03  0.7546771E-02  0.1235069E+00
         21   -1    0    0  502  501  0.00000000000E+00  0.00000000000E+00  0.62165735106E+02  0.62165735106E+02  0.00000000000E+00 0.  1.
         21   -1    0    0  501  502 -0.00000000000E+00 -0.00000000000E+00 -0.62836062235E+02  0.62836062235E+02  0.00000000000E+00 0.  1.
         25    1    1    2    0    0  0.00000000000E+00  0.00000000000E+00 -0.67032712820E+00  0.12500179734E+03  0.12500000000E+03 0.  0.
<mgrwt>
<rscale>  2 0.12500000E+03</rscale>
<asrwt>0</asrwt>
<pdfrwt beam="1">  1       21 0.95639593E-02 0.12500000E+03</pdfrwt>
<pdfrwt beam="2">  1       21 0.96670865E-02 0.12500000E+03</pdfrwt>
<totfact> 0.74043339E+06</totfact>
</mgrwt>
</event>
<event>
 3    0  0.1719236E+001  0.1250000E+03  0.7546771E-02  0.1235069E+00
         21   -1    0    0  502  501  0.00000000000E+00  0.00000000000E+00  0.84090821184E+02  0.84090821184E+02  0.00000000000E+00 0.  1.
         21   -1    0    0  501  502 -0.00000000000E+00 -0.00000000000E+00 -0.46452751263E+02  0.46452751263E+02  0.00000000000E+00 0.  1.
         25    1    1    2    0    0  0.00000000000E+00  0.00000000000E+00  0.37638069921E+02  0.13054357245E+03  0.12500000000E+03 0.  0.
<mgrwt>
<rscale>  2 0.12500000E+03</rscale>
<asrwt>0</asrwt>
<pdfrwt beam="1">  1       21 0.12937049E-01 0.12500000E+03</pdfrwt>
<pdfrwt beam="2">  1       21 0.71465771E-02 0.12500000E+03</pdfrwt>
<totfact> 0.73292246E+06</totfact>
</mgrwt>
</event>
<event>
 3    0  0.1551477E+001  0.1250000E+03  0.7546771E-02  0.1235069E+00
         21   -1    0    0  502  501  0.00000000000E+00  0.00000000000E+00  0.34136380496E+03  0.34136380496E+03  0.00000000000E+00 0.  1.
         21   -1    0    0  501  502 -0.00000000000E+00 -0.00000000000E+00 -0.11443070247E+02  0.11443070247E+02  0.00000000000E+00 0.  1.
         25    1    1    2    0    0  0.00000000000E+00  0.00000000000E+00  0.32992073471E+03  0.35280687520E+03  0.12500000000E+03 0.  0.
<mgrwt>
<rscale>  2 0.12500000E+03</rscale>
<asrwt>0</asrwt>
<pdfrwt beam="1">  1       21 0.52517501E-01 0.12500000E+03</pdfrwt>
<pdfrwt beam="2">  1       21 0.17604726E-02 0.12500000E+03</pdfrwt>
<totfact> 0.51331806E+06</totfact>
</mgrwt>
</event>
<event>
 3    0  0.1607957E+001  0.1250000E+03  0.7546771E-02  0.1235069E+00
         21   -1    0    0  502  501  0.00000000000E+00  0.00000000000E+00  0.17095991026E+02  0.17095991026E+02  0.00000000000E+00 0. -1.
         21   -1    0    0  501  502 -0.00000000000E+00 -0.00000000000E+00 -0.22848924020E+03  0.22848924020E+03  0.00000000000E+00 0. -1.
         25    1    1    2    0    0  0.00000000000E+00  0.00000000000E+00 -0.21139324917E+03  0.24558523122E+03  0.12500000000E+03 0.  0.
<mgrwt>
<rscale>  2 0.12500000E+03</rscale>
<asrwt>0</asrwt>
<pdfrwt beam="1">  1       21 0.26301524E-02 0.12500000E+03</pdfrwt>
<pdfrwt beam="2">  1       21 0.35152192E-01 0.12500000E+03</pdfrwt>
<totfact> 0.60296340E+06</totfact>
</mgrwt>
</event>
<event>
 3    0  0.1368989E+001  0.1250000E+03  0.7546771E-02  0.1235069E+00
         21   -1    0    0  502  501  0.00000000000E+00  0.00000000000E+00  0.95279378980E+03  0.95279378980E+03  0.00000000000E+00 0.  1.
         21   -1    0    0  501  502 -0.00000000000E+00 -0.00000000000E+00 -0.40997853280E+01  0.40997853280E+01  0.00000000000E+00 0.  1.
         25    1    1    2    0    0  0.00000000000E+00  0.00000000000E+00  0.94869400447E+03  0.95689357513E+03  0.12500000000E+03 0.  0.
<mgrwt>
<rscale>  2 0.12500000E+03</rscale>
<asrwt>0</asrwt>
<pdfrwt beam="1">  1       21 0.14658348E+00 0.12500000E+03</pdfrwt>
<pdfrwt beam="2">  1       21 0.63073696E-03 0.12500000E+03</pdfrwt>
<totfact> 0.24727771E+06</totfact>
</mgrwt>
</event>
<event>
 3    0  0.1535710E+001  0.1250000E+03  0.7546771E-02  0.1235069E+00
         21   -1    0    0  502  501  0.00000000000E+00  0.00000000000E+00  0.37256572073E+03  0.37256572073E+03  0.00000000000E+00 0.  1.
         21   -1    0    0  501  502 -0.00000000000E+00 -0.00000000000E+00 -0.10484727345E+02  0.10484727345E+02  0.00000000000E+00 0.  1.
         25    1    1    2    0    0  0.00000000000E+00  0.00000000000E+00  0.36208099338E+03  0.38305044807E+03  0.12500000000E+03 0.  0.
<mgrwt>
<rscale>  2 0.12500000E+03</rscale>
<asrwt>0</asrwt>
<pdfrwt beam="1">  1       21 0.57317793E-01 0.12500000E+03</pdfrwt>
<pdfrwt beam="2">  1       21 0.16130353E-02 0.12500000E+03</pdfrwt>
<totfact> 0.49186300E+06</totfact>
</mgrwt>
</event>
<event>
 3    0  0.1661843E+001  0.1250000E+03  0.7546771E-02  0.1235069E+00
         21   -1    0    0  502  501  0.00000000000E+00  0.00000000000E+00  0.19671680847E+02  0.19671680847E+02  0.00000000000E+00 0.  1.
         21   -1    0    0  501  502 -0.00000000000E+00 -0.00000000000E+00 -0.19857225371E+03  0.19857225371E+03  0.00000000000E+00 0.  1.
         25    1    1    2    0    0  0.00000000000E+00  0.00000000000E+00 -0.17890057286E+03  0.21824393455E+03  0.12500000000E+03 0.  0.
<mgrwt>
<rscale>  2 0.12500000E+03</rscale>
<asrwt>0</asrwt>
<pdfrwt beam="1">  1       21 0.30264126E-02 0.12500000E+03</pdfrwt>
<pdfrwt beam="2">  1       21 0.30549576E-01 0.12500000E+03</pdfrwt>
<totfact> 0.63002481E+06</totfact>
</mgrwt>
</event>
<event>
 3    0  0.1707685E+001  0.1250000E+03  0.7546771E-02  0.1235069E+00
         21   -1    0    0  502  501  0.00000000000E+00  0.00000000000E+00  0.37491274839E+02  0.37491274839E+02  0.00000000000E+00 0.  1.
         21   -1    0    0  501  502 -0.00000000000E+00 -0.00000000000E+00 -0.10419090887E+03  0.10419090887E+03  0.00000000000E+00 0.  1.
         25    1    1    2    0    0  0.00000000000E+00  0.00000000000E+00 -0.66699634028E+02  0.14168218371E+03  0.12500000000E+03 0.  0.
<mgrwt>
<rscale>  2 0.12500000E+03</rscale>
<asrwt>0</asrwt>
<pdfrwt beam="1">  1       21 0.57678884E-02 0.12500000E+03</pdfrwt>
<pdfrwt beam="2">  1       21 0.16029371E-01 0.12500000E+03</pdfrwt>
<totfact> 0.71820457E+06</totfact>
</mgrwt>
</event>
<event>
 3    0  0.1486353E+001  0.1250000E+03  0.7546771E-02  0.1235069E+00
         21   -1    0    0  502  501  0.00000000000E+00  0.00000000000E+00  0.46242296220E+03  0.46242296220E+03  0.00000000000E+00 0.  1.
         21   -1    0    0  501  502 -0.00000000000E+00 -0.00000000000E+00 -0.84473530065E+01  0.84473530065E+01  0.00000000000E+00 0.  1.
         25    1    1    2    0    0  0.00000000000E+00  0.00000000000E+00  0.45397560919E+03  0.47087031520E+03  0.12500000000E+03 0.  0.
<mgrwt>
<rscale>  2 0.12500000E+03</rscale>
<asrwt>0</asrwt>
<pdfrwt beam="1">  1       21 0.71141974E-01 0.12500000E+03</pdfrwt>
<pdfrwt beam="2">  1       21 0.12995931E-02 0.12500000E+03</pdfrwt>
<totfact> 0.43669219E+06</totfact>
</mgrwt>
</event>
<event>
 3    0  0.1433837E+001  0.1250000E+03  0.7546771E-02  0.1235069E+00
         21   -1    0    0  502  501  0.00000000000E+00  0.00000000000E+00  0.50060575693E+03  0.50060575693E+03  0.00000000000E+00 0. -1.
         21   -1    0    0  501  502 -0.00000000000E+00 -0.00000000000E+00 -0.78030465010E+01  0.78030465010E+01  0.00000000000E+00 0. -1.
         25    1    1    2    0    0  0.00000000000E+00  0.00000000000E+00  0.49280271043E+03  0.50840880343E+03  0.12500000000E+03 0.  0.
<mgrwt>
<rscale>  2 0.12500000E+03</rscale>
<asrwt>0</asrwt>
<pdfrwt beam="1">  1       21 0.77016245E-01 0.12500000E+03</pdfrwt>
<pdfrwt beam="2">  1       21 0.12004691E-02 0.12500000E+03</pdfrwt>
<totfact> 0.41591692E+06</totfact>
</mgrwt>
</event>
<event>
 3    0  0.1709369E+001  0.1250000E+03  0.7546771E-02  0.1235069E+00
         21   -1    0    0  502  501  0.00000000000E+00  0.00000000000E+00  0.11786956401E+03  0.11786956401E+03  0.00000000000E+00 0.  1.
         21   -1    0    0  501  502 -0.00000000000E+00 -0.00000000000E+00 -0.33140446669E+02  0.33140446669E+02  0.00000000000E+00 0.  1.
         25    1    1    2    0    0  0.00000000000E+00  0.00000000000E+00  0.84729117342E+02  0.15101001068E+03  0.12500000000E+03 0.  0.
<mgrwt>
<rscale>  2 0.12500000E+03</rscale>
<asrwt>0</asrwt>
<pdfrwt beam="1">  1       21 0.18133779E-01 0.12500000E+03</pdfrwt>
<pdfrwt beam="2">  1       21 0.50985303E-02 0.12500000E+03</pdfrwt>
<totfact> 0.70632555E+06</totfact>
</mgrwt>
</event>
<event>
 3    0  0.1715447E+001  0.1250000E+03  0.7546771E-02  0.1235069E+00
         21   -1    0    0  502  501  0.00000000000E+00  0.00000000000E+00  0.42203177860E+02  0.42203177860E+02  0.00000000000E+00 0.  1.
         21   -1    0    0  501  502 -0.00000000000E+00 -0.00000000000E+00 -0.92558195806E+02  0.92558195806E+02  0.00000000000E+00 0.  1.
         25    1    1    2    0    0  0.00000000000E+00  0.00000000000E+00 -0.50355017946E+02  0.13476137367E+03  0.12500000000E+03 0.  0.
<mgrwt>
<rscale>  2 0.12500000E+03</rscale>
<asrwt>0</asrwt>
<pdfrwt beam="1">  1       21 0.64927967E-02 0.12500000E+03</pdfrwt>
<pdfrwt beam="2">  1       21 0.14239722E-01 0.12500000E+03</pdfrwt>
<totfact> 0.72728083E+06</totfact>
</mgrwt>
</event>
<event>
 3    0  0.1518496E+001  0.1250000E+03  0.7546771E-02  0.1235069E+00
         21   -1    0    0  502  501  0.00000000000E+00  0.00000000000E+00  0.98055604434E+01  0.98055604434E+01  0.00000000000E+00 0.  1.
         21   -1    0    0  501  502 -0.00000000000E+00 -0.00000000000E+00 -0.39837090624E+03  0.39837090624E+03  0.00000000000E+00 0.  1.
         25    1    1    2    0    0  0.00000000000E+00  0.00000000000E+00 -0.38856534580E+03  0.40817646668E+03  0.12500000000E+03 0.  0.
<mgrwt>
<rscale>  2 0.12500000E+03</rscale>
<asrwt>0</asrwt>
<pdfrwt beam="1">  1       21 0.15085479E-02 0.12500000E+03</pdfrwt>
<pdfrwt beam="2">  1       21 0.61287824E-01 0.12500000E+03</pdfrwt>
<totfact> 0.47503705E+06</totfact>
</mgrwt>
</event>
<event>
 3    0  0.1697034E+001  0.1250000E+03  0.7546771E-02  0.1235069E+00
         21   -1    0    0  502  501  0.00000000000E+00  0.00000000000E+00  0.89303720368E+02  0.89303720368E+02  0.00000000000E+00 0. -1.
         21   -1    0    0  501  502 -0.00000000000E+00 -0.00000000000E+00 -0.43741178799E+02  0.43741178799E+02  0.00000000000E+00 0. -1.
         25    1    1    2    0    0  0.00000000000E+00  0.00000000000E+00  0.45562541569E+02  0.13304489917E+03  0.12500000000E+03 0.  0.
<mgrwt>
<rscale>  2 0.12500000E+03</rscale>
<asrwt>0</asrwt>
<pdfrwt beam="1">  1       21 0.13739034E-01 0.12500000E+03</pdfrwt>
<pdfrwt beam="2">  1       21 0.67294121E-02 0.12500000E+03</pdfrwt>
<totfact> 0.72956403E+06</totfact>
</mgrwt>
</event>
<event>
 3    0  0.1663356E+001  0.1250000E+03  0.7546771E-02  0.1235069E+00
         21   -1    0    0  502  501  0.00000000000E+00  0.00000000000E+00  0.18042475145E+03  0.18042475145E+03  0.00000000000E+00 0.  1.
         21   -1    0    0  501  502 -0.00000000000E+00 -0.00000000000E+00 -0.21650300021E+02  0.21650300021E+02  0.00000000000E+00 0.  1.
         25    1    1    2    0    0  0.00000000000E+00  0.00000000000E+00  0.15877445142E+03  0.20207505147E+03  0.12500000000E+03 0.  0.
<mgrwt>
<rscale>  2 0.12500000E+03</rscale>
<asrwt>0</asrwt>
<pdfrwt beam="1">  1       21 0.27757653E-01 0.12500000E+03</pdfrwt>
<pdfrwt beam="2">  1       21 0.33308155E-02 0.12500000E+03</pdfrwt>
<totfact> 0.64703098E+06</totfact>
</mgrwt>
</event>
<event>
 3    0  0.1679305E+001  0.1250000E+03  0.7546771E-02  0.1235069E+00
         21   -1    0    0  502  501  0.00000000000E+00  0.00000000000E+00  0.13867038214E+03  0.13867038214E+03  0.00000000000E+00 0. -1.
         21   -1    0    0  501  502 -0.00000000000E+00 -0.00000000000E+00 -0.28169317339E+02  0.28169317339E+02  0.00000000000E+00 0. -1.
         25    1    1    2    0    0  0.00000000000E+00  0.00000000000E+00  0.11050106480E+03  0.16683969948E+03  0.12500000000E+03 0.  0.
<mgrwt>
<rscale>  2 0.12500000E+03</rscale>
<asrwt>0</asrwt>
<pdfrwt beam="1">  1       21 0.21333904E-01 0.12500000E+03</pdfrwt>
<pdfrwt beam="2">  1       21 0.43337412E-02 0.12500000E+03</pdfrwt>
<totfact> 0.68693266E+06</totfact>
</mgrwt>
</event>
<event>
 3    0  0.1726546E+001  0.1250000E+03  0.7546771E-02  0.1235069E+00
         21   -1    0    0  502  501  0.00000000000E+00  0.00000000000E+00  0.62379072505E+02  0.62379072505E+02  0.00000000000E+00 0.  1.
         21   -1    0    0  501  502 -0.00000000000E+00 -0.00000000000E+00 -0.62621161923E+02  0.62621161923E+02  0.00000000000E+00 0.  1.
         25    1    1    2    0    0  0.00000000000E+00  0.00000000000E+00 -0.24208941796E+00  0.12500023443E+03  0.12500000000E+03 0.  0.
<mgrwt>
<rscale>  2 0.12500000E+03</rscale>
<asrwt>0</asrwt>
<pdfrwt beam="1">  1       21 0.95967804E-02 0.12500000E+03</pdfrwt>
<pdfrwt beam="2">  1       21 0.96340249E-02 0.12500000E+03</pdfrwt>
<totfact> 0.74043550E+06</totfact>
</mgrwt>
</event>
<event>
 3    0  0.1652549E+001  0.1250000E+03  0.7546771E-02  0.1235069E+00
         21   -1    0    0  502  501  0.00000000000E+00  0.00000000000E+00  0.15312004783E+03  0.15312004783E+03  0.00000000000E+00 0. -1.
         21   -1    0    0  501  502 -0.00000000000E+00 -0.00000000000E+00 -0.25511029127E+02  0.25511029127E+02  0.00000000000E+00 0. -1.
         25    1    1    2    0    0  0.00000000000E+00  0.00000000000E+00  0.12760901870E+03  0.17863107695E+03  0.12500000000E+03 0.  0.
<mgrwt>
<rscale>  2 0.12500000E+03</rscale>
<asrwt>0</asrwt>
<pdfrwt beam="1">  1       21 0.23556930E-01 0.12500000E+03</pdfrwt>
<pdfrwt beam="2">  1       21 0.39247738E-02 0.12500000E+03</pdfrwt>
<totfact> 0.67308923E+06</totfact>
</mgrwt>
</event>
<event>
 3    0  0.1368989E+001  0.1250000E+03  0.7546771E-02  0.1235069E+00
         21   -1    0    0  502  501  0.00000000000E+00  0.00000000000E+00  0.99080624853E+03  0.99080624853E+03  0.00000000000E+00 0. -1.
         21   -1    0    0  501  502 -0.00000000000E+00 -0.00000000000E+00 -0.39424963314E+01  0.39424963314E+01  0.00000000000E+00 0. -1.
         25    1    1    2    0    0  0.00000000000E+00  0.00000000000E+00  0.98686375220E+03  0.99474874486E+03  0.12500000000E+03 0.  0.
<mgrwt>
<rscale>  2 0.12500000E+03</rscale>
<asrwt>0</asrwt>
<pdfrwt beam="1">  1       21 0.15243153E+00 0.12500000E+03</pdfrwt>
<pdfrwt beam="2">  1       21 0.60653868E-03 0.12500000E+03</pdfrwt>
<totfact> 0.23750343E+06</totfact>
</mgrwt>
</event>
<event>
 3    0  0.1702773E+001  0.1250000E+03  0.7546771E-02  0.1235069E+00
         21   -1    0    0  502  501  0.00000000000E+00  0.00000000000E+00  0.13900603703E+03  0.13900603703E+03  0.00000000000E+00 0.  1.
         21   -1    0    0  501  502 -0.00000000000E+00 -0.00000000000E+00 -0.28101297494E+02  0.28101297494E+02  0.00000000000E+00 0.  1.
         25    1    1    2    0    0  0.00000000000E+00  0.00000000000E+00  0.11090473953E+03  0.16710733452E+03  0.12500000000E+03 0.  0.
<mgrwt>
<rscale>  2 0.12500000E+03</rscale>
<asrwt>0</asrwt>
<pdfrwt beam="1">  1       21 0.21385544E-01 0.12500000E+03</pdfrwt>
<pdfrwt beam="2">  1       21 0.43232766E-02 0.12500000E+03</pdfrwt>
<totfact> 0.68661316E+06</totfact>
</mgrwt>
</event>
<event>
 3    0  0.1524758E+001  0.1250000E+03  0.7546771E-02  0.1235069E+00
         21   -1    0    0  502  501  0.00000000000E+00  0.00000000000E+00  0.11383629403E+02  0.11383629403E+02  0.00000000000E+00 0. -1.
         21   -1    0    0  501  502 -0.00000000000E+00 -0.00000000000E+00 -0.34314627275E+03  0.34314627275E+03  0.00000000000E+00 0. -1.
         25    1    1    2    0    0  0.00000000000E+00  0.00000000000E+00 -0.33176264335E+03  0.35452990216E+03  0.12500000000E+03 0.  0.
<mgrwt>
<rscale>  2 0.12500000E+03</rscale>
<asrwt>0</asrwt>
<pdfrwt beam="1">  1       21 0.17513281E-02 0.12500000E+03</pdfrwt>
<pdfrwt beam="2">  1       21 0.52791720E-01 0.12500000E+03</pdfrwt>
<totfact> 0.51205623E+06</totfact>
</mgrwt>
</event>
<event>
 3    0  0.1506219E+001  0.1250000E+03  0.7546771E-02  0.1235069E+00
         21   -1    0    0  502  501  0.00000000000E+00  0.00000000000E+00  0.10374574660E+02  0.10374574660E+02  0.00000000000E+00 0. -1.
         21   -1    0    0  501  502 -0.00000000000E+00 -0.00000000000E+00 -0.37652146020E+03  0.37652146020E+03  0.00000000000E+00 0. -1.
         25    1    1    2    0    0  0.00000000000E+00  0.00000000000E+00 -0.36614688554E+03  0.38689603486E+03  0.12500000000E+03 0.  0.
<mgrwt>
<rscale>  2 0.12500000E+03</rscale>
<asrwt>0</asrwt>
<pdfrwt beam="1">  1       21 0.15960883E-02 0.12500000E+03</pdfrwt>
<pdfrwt beam="2">  1       21 0.57926383E-01 0.12500000E+03</pdfrwt>
<totfact> 0.48922840E+06</totfact>
</mgrwt>
</event>
<event>
 3    0  0.1691257E+001  0.1250000E+03  0.7546771E-02  0.1235069E+00
         21   -1    0    0  502  501  0.00000000000E+00  0.00000000000E+00  0.30270763293E+02  0.30270763293E+02  0.00000000000E+00 0.  1.
         21   -1    0    0  501  502 -0.00000000000E+00 -0.00000000000E+00 -0.12904365715E+03  0.12904365715E+03  0.00000000000E+00 0.  1.
         25    1    1    2    0    0  0.00000000000E+00  0.00000000000E+00 -0.98772893857E+02  0.15931442044E+03  0.12500000000E+03 0.  0.
<mgrwt>
<rscale>  2 0.12500000E+03</rscale>
<asrwt>0</asrwt>
<pdfrwt beam="1">  1       21 0.46570406E-02 0.12500000E+03</pdfrwt>
<pdfrwt beam="2">  1       21 0.19852870E-01 0.12500000E+03</pdfrwt>
<totfact> 0.69603364E+06</totfact>
</mgrwt>
</event>
<event>
 3    0  0.1580080E+001  0.1250000E+03  0.7546771E-02  0.1235069E+00
         21   -1    0    0  502  501  0.00000000000E+00  0.00000000000E+00  0.29929481059E+03  0.29929481059E+03  0.00000000000E+00 0.  1.
         21   -1    0    0  501  502 -0.00000000000E+00 -0.00000000000E+00 -0.13051512628E+02  0.13051512628E+02  0.00000000000E+00 0.  1.
         25    1    1    2    0    0  0.00000000000E+00  0.00000000000E+00  0.28624329796E+03  0.31234632322E+03  0.12500000000E+03 0.  0.
<mgrwt>
<rscale>  2 0.12500000E+03</rscale>
<asrwt>0</asrwt>
<pdfrwt beam="1">  1       21 0.46045350E-01 0.12500000E+03</pdfrwt>
<pdfrwt beam="2">  1       21 0.20079252E-02 0.12500000E+03</pdfrwt>
<totfact> 0.54445487E+06</totfact>
</mgrwt>
</event>
<event>
 3    0  0.1563257E+001  0.1250000E+03  0.7546771E-02  0.1235069E+00
         21   -1    0    0  502  501  0.00000000000E+00  0.00000000000E+00  0.13169133443E+02  0.13169133443E+02  0.00000000000E+00 0. -1.
         21   -1    0    0  501  502 -0.00000000000E+00 -0.00000000000E+00 -0.29662164309E+03  0.29662164309E+03  0.00000000000E+00 0. -1.
         25    1    1    2    0    0  0.00000000000E+00  0.00000000000E+00 -0.28345250965E+03  0.30979077653E+03  0.12500000000E+03 0.  0.
<mgrwt>
<rscale>  2 0.12500000E+03</rscale>
<asrwt>0</asrwt>
<pdfrwt beam="1">  1       21 0.20260208E-02 0.12500000E+03</pdfrwt>
<pdfrwt beam="2">  1       21 0.45634093E-01 0.12500000E+03</pdfrwt>
<totfact> 0.54652214E+06</totfact>
</mgrwt>
</event>
<event>
 3    0  0.1537263E+001  0.1250000E+03  0.7546771E-02  0.1235069E+00
         21   -1    0    0  502  501  0.00000000000E+00  0.00000000000E+00  0.10036117368E+02  0.10036117368E+02  0.00000000000E+00 0.  1.
         21   -1    0    0  501  502 -0.00000000000E+00 -0.00000000000E+00 -0.38921924253E+03  0.38921924253E+03  0.00000000000E+00 0.  1.
         25    1    1    2    0    0  0.00000000000E+00  0.00000000000E+00 -0.37918312517E+03  0.39925535990E+03  0.12500000000E+03 0.  0.
<mgrwt>
<rscale>  2 0.12500000E+03</rscale>
<asrwt>0</asrwt>
<pdfrwt beam="1">  1       21 0.15440181E-02 0.12500000E+03</pdfrwt>
<pdfrwt beam="2">  1       21 0.59879883E-01 0.12500000E+03</pdfrwt>
<totfact> 0.48090781E+06</totfact>
</mgrwt>
</event>
<event>
 3    0  0.1548039E+001  0.1250000E+03  0.7546771E-02  0.1235069E+00
         21   -1    0    0  502  501  0.00000000000E+00  0.00000000000E+00  0.34297027533E+03  0.34297027533E+03  0.00000000000E+00 0.  1.
         21   -1    0    0  501  502 -0.00000000000E+00 -0.00000000000E+00 -0.11389470986E+02  0.11389470986E+02  0.00000000000E+00 0.  1.
         25    1    1    2    0    0  0.00000000000E+00  0.00000000000E+00  0.33158080435E+03  0.35435974632E+03  0.12500000000E+03 0.  0.
<mgrwt>
<rscale>  2 0.12500000E+03</rscale>
<asrwt>0</asrwt>
<pdfrwt beam="1">  1       21 0.52764650E-01 0.12500000E+03</pdfrwt>
<pdfrwt beam="2">  1       21 0.17522266E-02 0.12500000E+03</pdfrwt>
<totfact> 0.51218059E+06</totfact>
</mgrwt>
</event>
