<event>
 5    0  0.1222151E+000  0.1249828E+03  0.7546771E-02  0.1235096E+00
         21   -1    0    0  503  502  0.00000000000E+00  0.00000000000E+00  0.79243345067E+03  0.79243345067E+03  0.00000000000E+00 0.  1.
         21   -1    0    0  502  503 -0.00000000000E+00 -0.00000000000E+00 -0.49280781776E+01  0.49280781776E+01  0.00000000000E+00 0.  1.
         25    2    1    2    0    0  0.00000000000E+00  0.00000000000E+00  0.78750537249E+03  0.79736152885E+03  0.12498278274E+03 0.  0.
          4    1    3    3  501    0  0.35333407998E+02 -0.47284516732E+02  0.52426481530E+03  0.52757963788E+03  0.15500000000E+01 0. -1.
         -4    1    3    3    0  501 -0.35333407998E+02  0.47284516732E+02  0.26324055719E+03  0.26978189097E+03  0.15500000000E+01 0. -1.
<mgrwt>
<rscale>  2 0.12498278E+03</rscale>
<asrwt>0</asrwt>
<pdfrwt beam="1">  1       21 0.12191274E+00 0.12498278E+03</pdfrwt>
<pdfrwt beam="2">  1       21 0.75816650E-03 0.12498278E+03</pdfrwt>
<totfact> 0.29463004E+06</totfact>
</mgrwt>
</event>
<event>
 5    0  0.1222151E+000  0.1249974E+03  0.7546771E-02  0.1235073E+00
         21   -1    0    0  503  502  0.00000000000E+00  0.00000000000E+00  0.32008519685E+01  0.32008519685E+01  0.00000000000E+00 0.  1.
         21   -1    0    0  502  503 -0.00000000000E+00 -0.00000000000E+00 -0.12203265764E+04  0.12203265764E+04  0.00000000000E+00 0.  1.
         25    2    1    2    0    0  0.00000000000E+00  0.00000000000E+00 -0.12171257245E+04  0.12235274284E+04  0.12499735556E+03 0.  0.
          4    1    3    3  501    0  0.18765302907E+02  0.54841026125E+02 -0.83686780913E+03  0.83887413072E+03  0.15500000000E+01 0.  1.
         -4    1    3    3    0  501 -0.18765302907E+02 -0.54841026125E+02 -0.38025791533E+03  0.38465329767E+03  0.15500000000E+01 0.  1.
<mgrwt>
<rscale>  2 0.12499736E+03</rscale>
<asrwt>0</asrwt>
<pdfrwt beam="1">  1       21 0.49243841E-03 0.12499736E+03</pdfrwt>
<pdfrwt beam="2">  1       21 0.18774268E+00 0.12499736E+03</pdfrwt>
<totfact> 0.18681948E+06</totfact>
</mgrwt>
</event>
<event>
 5    0  0.1446857E+000  0.1250032E+03  0.7546771E-02  0.1235064E+00
         21   -1    0    0  503  502  0.00000000000E+00  0.00000000000E+00  0.11499137085E+03  0.11499137085E+03  0.00000000000E+00 0.  1.
         21   -1    0    0  502  503 -0.00000000000E+00 -0.00000000000E+00 -0.33971683757E+02  0.33971683757E+02  0.00000000000E+00 0.  1.
         25    2    1    2    0    0  0.00000000000E+00  0.00000000000E+00  0.81019687089E+02  0.14896305460E+03  0.12500320772E+03 0.  0.
          4    1    3    3  501    0 -0.19394482932E+02 -0.57500810014E+01  0.11095821737E+03  0.11279777436E+03  0.15500000000E+01 0. -1.
         -4    1    3    3    0  501  0.19394482932E+02  0.57500810014E+01 -0.29938530278E+02  0.36165280241E+02  0.15500000000E+01 0. -1.
<mgrwt>
<rscale>  2 0.12500321E+03</rscale>
<asrwt>0</asrwt>
<pdfrwt beam="1">  1       21 0.17690980E-01 0.12500321E+03</pdfrwt>
<pdfrwt beam="2">  1       21 0.52264129E-02 0.12500321E+03</pdfrwt>
<totfact> 0.70883915E+06</totfact>
</mgrwt>
</event>
<event>
 5    0  0.1525174E+000  0.1250121E+03  0.7546771E-02  0.1235050E+00
         21   -1    0    0  503  502  0.00000000000E+00  0.00000000000E+00  0.19248173559E+03  0.19248173559E+03  0.00000000000E+00 0. -1.
         21   -1    0    0  502  503 -0.00000000000E+00 -0.00000000000E+00 -0.20298053934E+02  0.20298053934E+02  0.00000000000E+00 0. -1.
         25    2    1    2    0    0  0.00000000000E+00  0.00000000000E+00  0.17218368166E+03  0.21277978952E+03  0.12501207382E+03 0.  0.
          4    1    3    3  501    0  0.34338521753E+02 -0.50983058652E+02  0.10521241254E+03  0.12186246591E+03  0.15500000000E+01 0. -1.
         -4    1    3    3    0  501 -0.34338521753E+02  0.50983058652E+02  0.66971269115E+02  0.90917323611E+02  0.15500000000E+01 0. -1.
<mgrwt>
<rscale>  2 0.12501207E+03</rscale>
<asrwt>0</asrwt>
<pdfrwt beam="1">  1       21 0.29612574E-01 0.12501207E+03</pdfrwt>
<pdfrwt beam="2">  1       21 0.31227777E-02 0.12501207E+03</pdfrwt>
<totfact> 0.63548847E+06</totfact>
</mgrwt>
</event>
<event>
 5    0  0.1515642E+000  0.1249910E+03  0.7546771E-02  0.1235083E+00
         21   -1    0    0  503  502  0.00000000000E+00  0.00000000000E+00  0.29266109524E+02  0.29266109524E+02  0.00000000000E+00 0.  1.
         21   -1    0    0  502  503 -0.00000000000E+00 -0.00000000000E+00 -0.13345419077E+03  0.13345419077E+03  0.00000000000E+00 0.  1.
         25    2    1    2    0    0  0.00000000000E+00  0.00000000000E+00 -0.10418808124E+03  0.16272030029E+03  0.12499095909E+03 0.  0.
          4    1    3    3  501    0  0.54668586038E+02  0.27615426771E+02 -0.68145270439E+02  0.91637582238E+02  0.15500000000E+01 0. -1.
         -4    1    3    3    0  501 -0.54668586038E+02 -0.27615426771E+02 -0.36042810803E+02  0.71082718053E+02  0.15500000000E+01 0. -1.
<mgrwt>
<rscale>  2 0.12499096E+03</rscale>
<asrwt>0</asrwt>
<pdfrwt beam="1">  1       21 0.45024784E-02 0.12499096E+03</pdfrwt>
<pdfrwt beam="2">  1       21 0.20531414E-01 0.12499096E+03</pdfrwt>
<totfact> 0.69204525E+06</totfact>
</mgrwt>
</event>
<event>
 5    0  0.1222151E+000  0.1250035E+03  0.7546771E-02  0.1235064E+00
         21   -1    0    0  503  502  0.00000000000E+00  0.00000000000E+00  0.11339773782E+01  0.11339773782E+01  0.00000000000E+00 0. -1.
         21   -1    0    0  502  503 -0.00000000000E+00 -0.00000000000E+00 -0.34449280571E+04  0.34449280571E+04  0.00000000000E+00 0. -1.
         25    2    1    2    0    0  0.00000000000E+00  0.00000000000E+00 -0.34437940797E+04  0.34460620344E+04  0.12500352773E+03 0.  0.
          4    1    3    3  501    0  0.47871479318E+02 -0.30869545241E+02 -0.24298350952E+04  0.24305031577E+04  0.15500000000E+01 0. -1.
         -4    1    3    3    0  501 -0.47871479318E+02  0.30869545241E+02 -0.10139589845E+04  0.10155588767E+04  0.15500000000E+01 0. -1.
<mgrwt>
<rscale>  2 0.12500353E+03</rscale>
<asrwt>0</asrwt>
<pdfrwt beam="1">  1       21 0.17445853E-03 0.12500353E+03</pdfrwt>
<pdfrwt beam="2">  1       21 0.52998750E+00 0.12500353E+03</pdfrwt>
<totfact> 0.71337602E+04</totfact>
</mgrwt>
</event>
<event>
 5    0  0.1222151E+000  0.1249985E+03  0.7546771E-02  0.1235072E+00
         21   -1    0    0  503  502  0.00000000000E+00  0.00000000000E+00  0.38696544730E+01  0.38696544730E+01  0.00000000000E+00 0. -1.
         21   -1    0    0  502  503 -0.00000000000E+00 -0.00000000000E+00 -0.10094321945E+04  0.10094321945E+04  0.00000000000E+00 0. -1.
         25    2    1    2    0    0  0.00000000000E+00  0.00000000000E+00 -0.10055625400E+04  0.10133018489E+04  0.12499846089E+03 0.  0.
          4    1    3    3  501    0 -0.25014978173E+02 -0.40748994827E+02 -0.82881250805E+03  0.83019202942E+03  0.15500000000E+01 0.  1.
         -4    1    3    3    0  501  0.25014978173E+02  0.40748994827E+02 -0.17675003194E+03  0.18310981952E+03  0.15500000000E+01 0.  1.
<mgrwt>
<rscale>  2 0.12499846E+03</rscale>
<asrwt>0</asrwt>
<pdfrwt beam="1">  1       21 0.59533105E-03 0.12499846E+03</pdfrwt>
<pdfrwt beam="2">  1       21 0.15529737E+00 0.12499846E+03</pdfrwt>
<totfact> 0.23289870E+06</totfact>
</mgrwt>
</event>
<event>
 5    0  0.1409311E+000  0.1250049E+03  0.7546771E-02  0.1235062E+00
         21   -1    0    0  503  502  0.00000000000E+00  0.00000000000E+00  0.18222414667E+03  0.18222414667E+03  0.00000000000E+00 0. -1.
         21   -1    0    0  502  503 -0.00000000000E+00 -0.00000000000E+00 -0.21438191878E+02  0.21438191878E+02  0.00000000000E+00 0. -1.
         25    2    1    2    0    0  0.00000000000E+00  0.00000000000E+00  0.16078595480E+03  0.20366233855E+03  0.12500489944E+03 0.  0.
          4    1    3    3  501    0 -0.96203469606E+01  0.26574210878E+02  0.17118411165E+03  0.17350833508E+03  0.15500000000E+01 0.  1.
         -4    1    3    3    0  501  0.96203469606E+01 -0.26574210878E+02 -0.10398156857E+02  0.30154003473E+02  0.15500000000E+01 0.  1.
<mgrwt>
<rscale>  2 0.12500490E+03</rscale>
<asrwt>0</asrwt>
<pdfrwt beam="1">  1       21 0.28034483E-01 0.12500490E+03</pdfrwt>
<pdfrwt beam="2">  1       21 0.32981835E-02 0.12500490E+03</pdfrwt>
<totfact> 0.64524560E+06</totfact>
</mgrwt>
</event>
<event>
 5    0  0.1470744E+000  0.1249900E+03  0.7546771E-02  0.1235085E+00
         21   -1    0    0  503  502  0.00000000000E+00  0.00000000000E+00  0.16899380397E+02  0.16899380397E+02  0.00000000000E+00 0. -1.
         21   -1    0    0  502  503 -0.00000000000E+00 -0.00000000000E+00 -0.23111048902E+03  0.23111048902E+03  0.00000000000E+00 0. -1.
         25    2    1    2    0    0  0.00000000000E+00  0.00000000000E+00 -0.21421110863E+03  0.24800986942E+03  0.12498998468E+03 0.  0.
          4    1    3    3  501    0  0.61229962865E+01 -0.60210693568E+02 -0.13787102528E+03  0.15057769029E+03  0.15500000000E+01 0. -1.
         -4    1    3    3    0  501 -0.61229962865E+01  0.60210693568E+02 -0.76340083352E+02  0.97432179128E+02  0.15500000000E+01 0. -1.
<mgrwt>
<rscale>  2 0.12498998E+03</rscale>
<asrwt>0</asrwt>
<pdfrwt beam="1">  1       21 0.25999046E-02 0.12498998E+03</pdfrwt>
<pdfrwt beam="2">  1       21 0.35555461E-01 0.12498998E+03</pdfrwt>
<totfact> 0.60081233E+06</totfact>
</mgrwt>
</event>
<event>
 5    0  0.1367901E+000  0.1250007E+03  0.7546771E-02  0.1235068E+00
         21   -1    0    0  503  502  0.00000000000E+00  0.00000000000E+00  0.28624790130E+03  0.28624790130E+03  0.00000000000E+00 0.  1.
         21   -1    0    0  502  503 -0.00000000000E+00 -0.00000000000E+00 -0.13646536187E+02  0.13646536187E+02  0.00000000000E+00 0.  1.
         25    2    1    2    0    0  0.00000000000E+00  0.00000000000E+00  0.27260136511E+03  0.29989443749E+03  0.12500067750E+03 0.  0.
          4    1    3    3  501    0  0.40569214589E+02  0.28707739982E+02  0.22714852513E+03  0.23252709621E+03  0.15500000000E+01 0.  1.
         -4    1    3    3    0  501 -0.40569214589E+02 -0.28707739982E+02  0.45452839987E+02  0.67367341272E+02  0.15500000000E+01 0.  1.
<mgrwt>
<rscale>  2 0.12500068E+03</rscale>
<asrwt>0</asrwt>
<pdfrwt beam="1">  1       21 0.44038134E-01 0.12500068E+03</pdfrwt>
<pdfrwt beam="2">  1       21 0.20994673E-02 0.12500068E+03</pdfrwt>
<totfact> 0.55464005E+06</totfact>
</mgrwt>
</event>
<event>
 5    0  0.1599948E+000  0.1249981E+03  0.7546771E-02  0.1235072E+00
         21   -1    0    0  503  502  0.00000000000E+00  0.00000000000E+00  0.20663319263E+02  0.20663319263E+02  0.00000000000E+00 0.  1.
         21   -1    0    0  502  503 -0.00000000000E+00 -0.00000000000E+00 -0.18903691031E+03  0.18903691031E+03  0.00000000000E+00 0.  1.
         25    2    1    2    0    0  0.00000000000E+00  0.00000000000E+00 -0.16837359104E+03  0.20970022957E+03  0.12499808047E+03 0.  0.
          4    1    3    3  501    0 -0.38941515195E+02  0.40125830340E+02 -0.13095632295E+03  0.14240254523E+03  0.15500000000E+01 0.  1.
         -4    1    3    3    0  501  0.38941515195E+02 -0.40125830340E+02 -0.37417268088E+02  0.67297684338E+02  0.15500000000E+01 0.  1.
<mgrwt>
<rscale>  2 0.12499808E+03</rscale>
<asrwt>0</asrwt>
<pdfrwt beam="1">  1       21 0.31789721E-02 0.12499808E+03</pdfrwt>
<pdfrwt beam="2">  1       21 0.29082602E-01 0.12499808E+03</pdfrwt>
<totfact> 0.63894190E+06</totfact>
</mgrwt>
</event>
<event>
 5    0  0.1482063E+000  0.1250664E+03  0.7546771E-02  0.1234965E+00
         21   -1    0    0  503  502  0.00000000000E+00  0.00000000000E+00  0.63936819214E+02  0.63936819214E+02  0.00000000000E+00 0.  1.
         21   -1    0    0  502  503 -0.00000000000E+00 -0.00000000000E+00 -0.61160436029E+02  0.61160436029E+02  0.00000000000E+00 0.  1.
         25    2    1    2    0    0  0.00000000000E+00  0.00000000000E+00  0.27763831850E+01  0.12509725524E+03  0.12506644220E+03 0.  0.
          4    1    3    3  501    0  0.35025321352E+02 -0.45540562639E+02 -0.23261038310E+02  0.62001567597E+02  0.15500000000E+01 0.  1.
         -4    1    3    3    0  501 -0.35025321352E+02  0.45540562639E+02  0.26037421495E+02  0.63095687645E+02  0.15500000000E+01 0.  1.
<mgrwt>
<rscale>  2 0.12506644E+03</rscale>
<asrwt>0</asrwt>
<pdfrwt beam="1">  1       21 0.98364338E-02 0.12506644E+03</pdfrwt>
<pdfrwt beam="2">  1       21 0.94092978E-02 0.12506644E+03</pdfrwt>
<totfact> 0.73904828E+06</totfact>
</mgrwt>
</event>
<event>
 5    0  0.1615310E+000  0.1249969E+03  0.7546771E-02  0.1235074E+00
         21   -1    0    0  503  502  0.00000000000E+00  0.00000000000E+00  0.71865793696E+02  0.71865793696E+02  0.00000000000E+00 0. -1.
         21   -1    0    0  502  503 -0.00000000000E+00 -0.00000000000E+00 -0.54352114298E+02  0.54352114298E+02  0.00000000000E+00 0. -1.
         25    2    1    2    0    0  0.00000000000E+00  0.00000000000E+00  0.17513679398E+02  0.12621790799E+03  0.12499692529E+03 0.  0.
          4    1    3    3  501    0 -0.38457585970E+02 -0.27319382426E+02  0.50124325881E+02  0.68849002315E+02  0.15500000000E+01 0.  1.
         -4    1    3    3    0  501  0.38457585970E+02  0.27319382426E+02 -0.32610646483E+02  0.57368905679E+02  0.15500000000E+01 0.  1.
<mgrwt>
<rscale>  2 0.12499693E+03</rscale>
<asrwt>0</asrwt>
<pdfrwt beam="1">  1       21 0.11056276E-01 0.12499693E+03</pdfrwt>
<pdfrwt beam="2">  1       21 0.83618637E-02 0.12499693E+03</pdfrwt>
<totfact> 0.73881846E+06</totfact>
</mgrwt>
</event>
<event>
 5    0  0.1581941E+000  0.1249863E+03  0.7546771E-02  0.1235091E+00
         21   -1    0    0  503  502  0.00000000000E+00  0.00000000000E+00  0.72022193677E+02  0.72022193677E+02  0.00000000000E+00 0.  1.
         21   -1    0    0  502  503 -0.00000000000E+00 -0.00000000000E+00 -0.54224857553E+02  0.54224857553E+02  0.00000000000E+00 0.  1.
         25    2    1    2    0    0  0.00000000000E+00  0.00000000000E+00  0.17797336123E+02  0.12624705123E+03  0.12498629033E+03 0.  0.
          4    1    3    3  501    0 -0.18017034570E+02  0.53443499682E+02 -0.18245618790E+02  0.59296933293E+02  0.15500000000E+01 0. -1.
         -4    1    3    3    0  501  0.18017034570E+02 -0.53443499682E+02  0.36042954913E+02  0.66950117937E+02  0.15500000000E+01 0. -1.
<mgrwt>
<rscale>  2 0.12498629E+03</rscale>
<asrwt>0</asrwt>
<pdfrwt beam="1">  1       21 0.11080338E-01 0.12498629E+03</pdfrwt>
<pdfrwt beam="2">  1       21 0.83422858E-02 0.12498629E+03</pdfrwt>
<totfact> 0.73897895E+06</totfact>
</mgrwt>
</event>
<event>
 5    0  0.1346398E+000  0.1250075E+03  0.7546771E-02  0.1235057E+00
         21   -1    0    0  503  502  0.00000000000E+00  0.00000000000E+00  0.32467671173E+03  0.32467671173E+03  0.00000000000E+00 0. -1.
         21   -1    0    0  502  503 -0.00000000000E+00 -0.00000000000E+00 -0.12032649864E+02  0.12032649864E+02  0.00000000000E+00 0. -1.
         25    2    1    2    0    0  0.00000000000E+00  0.00000000000E+00  0.31264406187E+03  0.33670936160E+03  0.12500753883E+03 0.  0.
          4    1    3    3  501    0  0.40918344714E+02 -0.41851728485E+02  0.21523799526E+03  0.22305980188E+03  0.15500000000E+01 0. -1.
         -4    1    3    3    0  501 -0.40918344714E+02  0.41851728485E+02  0.97406066604E+02  0.11364955971E+03  0.15500000000E+01 0. -1.
<mgrwt>
<rscale>  2 0.12500754E+03</rscale>
<asrwt>0</asrwt>
<pdfrwt beam="1">  1       21 0.49950257E-01 0.12500754E+03</pdfrwt>
<pdfrwt beam="2">  1       21 0.18511771E-02 0.12500754E+03</pdfrwt>
<totfact> 0.52525293E+06</totfact>
</mgrwt>
</event>
<event>
 5    0  0.1476920E+000  0.1250003E+03  0.7546771E-02  0.1235069E+00
         21   -1    0    0  503  502  0.00000000000E+00  0.00000000000E+00  0.27969349488E+02  0.27969349488E+02  0.00000000000E+00 0.  1.
         21   -1    0    0  502  503 -0.00000000000E+00 -0.00000000000E+00 -0.13966250718E+03  0.13966250718E+03  0.00000000000E+00 0.  1.
         25    2    1    2    0    0  0.00000000000E+00  0.00000000000E+00 -0.11169315769E+03  0.16763185667E+03  0.12500031158E+03 0.  0.
          4    1    3    3  501    0  0.38079196799E+02  0.61921152039E+01  0.10063059941E+02  0.39900315725E+02  0.15500000000E+01 0. -1.
         -4    1    3    3    0  501 -0.38079196799E+02 -0.61921152039E+01 -0.12175621763E+03  0.12773154094E+03  0.15500000000E+01 0. -1.
<mgrwt>
<rscale>  2 0.12500031E+03</rscale>
<asrwt>0</asrwt>
<pdfrwt beam="1">  1       21 0.43029769E-02 0.12500031E+03</pdfrwt>
<pdfrwt beam="2">  1       21 0.21486539E-01 0.12500031E+03</pdfrwt>
<totfact> 0.68598238E+06</totfact>
</mgrwt>
</event>
<event>
 5    0  0.1411850E+000  0.1250202E+03  0.7546771E-02  0.1235038E+00
         21   -1    0    0  503  502  0.00000000000E+00  0.00000000000E+00  0.43018799862E+02  0.43018799862E+02  0.00000000000E+00 0.  1.
         21   -1    0    0  502  503 -0.00000000000E+00 -0.00000000000E+00 -0.90832689723E+02  0.90832689723E+02  0.00000000000E+00 0.  1.
         25    2    1    2    0    0  0.00000000000E+00  0.00000000000E+00 -0.47813889860E+02  0.13385148959E+03  0.12502021117E+03 0.  0.
          4    1    3    3  501    0 -0.51267147427E+02 -0.33465231974E+01  0.14181189373E+02  0.53320054903E+02  0.15500000000E+01 0.  1.
         -4    1    3    3    0  501  0.51267147427E+02  0.33465231974E+01 -0.61995079233E+02  0.80531434682E+02  0.15500000000E+01 0.  1.
<mgrwt>
<rscale>  2 0.12502021E+03</rscale>
<asrwt>0</asrwt>
<pdfrwt beam="1">  1       21 0.66182770E-02 0.12502021E+03</pdfrwt>
<pdfrwt beam="2">  1       21 0.13974260E-01 0.12502021E+03</pdfrwt>
<totfact> 0.72811361E+06</totfact>
</mgrwt>
</event>
<event>
 5    0  0.1222151E+000  0.1249979E+03  0.7546771E-02  0.1235073E+00
         21   -1    0    0  503  502  0.00000000000E+00  0.00000000000E+00  0.39306246434E+01  0.39306246434E+01  0.00000000000E+00 0.  1.
         21   -1    0    0  502  503 -0.00000000000E+00 -0.00000000000E+00 -0.99376543531E+03  0.99376543531E+03  0.00000000000E+00 0.  1.
         25    2    1    2    0    0  0.00000000000E+00  0.00000000000E+00 -0.98983481067E+03  0.99769605995E+03  0.12499790254E+03 0.  0.
          4    1    3    3  501    0 -0.12368068817E+02  0.56476644954E+02 -0.30584439336E+03  0.31126480045E+03  0.15500000000E+01 0.  1.
         -4    1    3    3    0  501  0.12368068817E+02 -0.56476644954E+02 -0.68399041731E+03  0.68643125950E+03  0.15500000000E+01 0.  1.
<mgrwt>
<rscale>  2 0.12499790E+03</rscale>
<asrwt>0</asrwt>
<pdfrwt beam="1">  1       21 0.60471130E-03 0.12499790E+03</pdfrwt>
<pdfrwt beam="2">  1       21 0.15288704E+00 0.12499790E+03</pdfrwt>
<totfact> 0.23677546E+06</totfact>
</mgrwt>
</event>
<event>
 5    0  0.1513395E+000  0.1250012E+03  0.7546771E-02  0.1235067E+00
         21   -1    0    0  503  502  0.00000000000E+00  0.00000000000E+00  0.14670420044E+03  0.14670420044E+03  0.00000000000E+00 0.  1.
         21   -1    0    0  502  503 -0.00000000000E+00 -0.00000000000E+00 -0.26627225577E+02  0.26627225577E+02  0.00000000000E+00 0.  1.
         25    2    1    2    0    0  0.00000000000E+00  0.00000000000E+00  0.12007697487E+03  0.17333142602E+03  0.12500121341E+03 0.  0.
          4    1    3    3  501    0  0.36695803597E+02  0.15258912484E+02  0.12689265777E+03  0.13297956800E+03  0.15500000000E+01 0.  1.
         -4    1    3    3    0  501 -0.36695803597E+02 -0.15258912484E+02 -0.68156829005E+01  0.40351858014E+02  0.15500000000E+01 0.  1.
<mgrwt>
<rscale>  2 0.12500121E+03</rscale>
<asrwt>0</asrwt>
<pdfrwt beam="1">  1       21 0.22569876E-01 0.12500121E+03</pdfrwt>
<pdfrwt beam="2">  1       21 0.40964963E-02 0.12500121E+03</pdfrwt>
<totfact> 0.67922800E+06</totfact>
</mgrwt>
</event>
<event>
 5    0  0.1625796E+000  0.1249969E+03  0.7546771E-02  0.1235074E+00
         21   -1    0    0  503  502  0.00000000000E+00  0.00000000000E+00  0.38120709444E+02  0.38120709444E+02  0.00000000000E+00 0. -1.
         21   -1    0    0  502  503 -0.00000000000E+00 -0.00000000000E+00 -0.10246546460E+03  0.10246546460E+03  0.00000000000E+00 0. -1.
         25    2    1    2    0    0  0.00000000000E+00  0.00000000000E+00 -0.64344755160E+02  0.14058617405E+03  0.12499689923E+03 0.  0.
          4    1    3    3  501    0 -0.39901509013E+02 -0.45583550528E+02 -0.14979897255E+02  0.62424276704E+02  0.15500000000E+01 0.  1.
         -4    1    3    3    0  501  0.39901509013E+02  0.45583550528E+02 -0.49364857905E+02  0.78161897343E+02  0.15500000000E+01 0.  1.
<mgrwt>
<rscale>  2 0.12499690E+03</rscale>
<asrwt>0</asrwt>
<pdfrwt beam="1">  1       21 0.58647246E-02 0.12499690E+03</pdfrwt>
<pdfrwt beam="2">  1       21 0.15763918E-01 0.12499690E+03</pdfrwt>
<totfact> 0.71968562E+06</totfact>
</mgrwt>
</event>
<event>
 5    0  0.1475906E+000  0.1249979E+03  0.7546771E-02  0.1235073E+00
         21   -1    0    0  503  502  0.00000000000E+00  0.00000000000E+00  0.14654591441E+03  0.14654591441E+03  0.00000000000E+00 0.  1.
         21   -1    0    0  502  503 -0.00000000000E+00 -0.00000000000E+00 -0.26654562051E+02  0.26654562051E+02  0.00000000000E+00 0.  1.
         25    2    1    2    0    0  0.00000000000E+00  0.00000000000E+00  0.11989135236E+03  0.17320047646E+03  0.12499787469E+03 0.  0.
          4    1    3    3  501    0 -0.47757406862E+01 -0.39613754192E+02 -0.66748706319E+01  0.40484733150E+02  0.15500000000E+01 0.  1.
         -4    1    3    3    0  501  0.47757406862E+01  0.39613754192E+02  0.12656622300E+03  0.13271574331E+03  0.15500000000E+01 0.  1.
<mgrwt>
<rscale>  2 0.12499787E+03</rscale>
<asrwt>0</asrwt>
<pdfrwt beam="1">  1       21 0.22545525E-01 0.12499787E+03</pdfrwt>
<pdfrwt beam="2">  1       21 0.41007020E-02 0.12499787E+03</pdfrwt>
<totfact> 0.67943913E+06</totfact>
</mgrwt>
</event>
<event>
 5    0  0.1222151E+000  0.1250186E+03  0.7546771E-02  0.1235040E+00
         21   -1    0    0  503  502  0.00000000000E+00  0.00000000000E+00  0.12893388341E+04  0.12893388341E+04  0.00000000000E+00 0. -1.
         21   -1    0    0  502  503 -0.00000000000E+00 -0.00000000000E+00 -0.30305573714E+01  0.30305573714E+01  0.00000000000E+00 0. -1.
         25    2    1    2    0    0  0.00000000000E+00  0.00000000000E+00  0.12863082767E+04  0.12923693914E+04  0.12501864354E+03 0.  0.
          4    1    3    3  501    0 -0.39964951692E+02 -0.30397220241E+02  0.10277037528E+04  0.10289308016E+04  0.15500000000E+01 0. -1.
         -4    1    3    3    0  501  0.39964951692E+02  0.30397220241E+02  0.25860452387E+03  0.26343858986E+03  0.15500000000E+01 0. -1.
<mgrwt>
<rscale>  2 0.12501864E+03</rscale>
<asrwt>0</asrwt>
<pdfrwt beam="1">  1       21 0.19835938E+00 0.12501864E+03</pdfrwt>
<pdfrwt beam="2">  1       21 0.46624062E-03 0.12501864E+03</pdfrwt>
<totfact> 0.17381921E+06</totfact>
</mgrwt>
</event>
<event>
 5    0  0.1222151E+000  0.1250007E+03  0.7546771E-02  0.1235068E+00
         21   -1    0    0  503  502  0.00000000000E+00  0.00000000000E+00  0.11144523181E+04  0.11144523181E+04  0.00000000000E+00 0. -1.
         21   -1    0    0  502  503 -0.00000000000E+00 -0.00000000000E+00 -0.35051234416E+01  0.35051234416E+01  0.00000000000E+00 0. -1.
         25    2    1    2    0    0  0.00000000000E+00  0.00000000000E+00  0.11109471947E+04  0.11179574416E+04  0.12500068711E+03 0.  0.
          4    1    3    3  501    0 -0.51181468890E+02 -0.11797506346E+01  0.23512802126E+03  0.24064189878E+03  0.15500000000E+01 0.  1.
         -4    1    3    3    0  501  0.51181468890E+02  0.11797506346E+01  0.87581917342E+03  0.87731554278E+03  0.15500000000E+01 0.  1.
<mgrwt>
<rscale>  2 0.12500069E+03</rscale>
<asrwt>0</asrwt>
<pdfrwt beam="1">  1       21 0.17145392E+00 0.12500069E+03</pdfrwt>
<pdfrwt beam="2">  1       21 0.53925065E-03 0.12500069E+03</pdfrwt>
<totfact> 0.20856090E+06</totfact>
</mgrwt>
</event>
<event>
 5    0  0.1265880E+000  0.1249998E+03  0.7546771E-02  0.1235070E+00
         21   -1    0    0  503  502  0.00000000000E+00  0.00000000000E+00  0.62503532761E+03  0.62503532761E+03  0.00000000000E+00 0.  1.
         21   -1    0    0  502  503 -0.00000000000E+00 -0.00000000000E+00 -0.62496230037E+01  0.62496230037E+01  0.00000000000E+00 0.  1.
         25    2    1    2    0    0  0.00000000000E+00  0.00000000000E+00  0.61878570461E+03  0.63128495062E+03  0.12499976259E+03 0.  0.
          4    1    3    3  501    0  0.28162844702E+02  0.32333027434E+02  0.53890403121E+03  0.54060940413E+03  0.15500000000E+01 0.  1.
         -4    1    3    3    0  501 -0.28162844702E+02 -0.32333027434E+02  0.79881673400E+02  0.90675546483E+02  0.15500000000E+01 0.  1.
<mgrwt>
<rscale>  2 0.12499976E+03</rscale>
<asrwt>0</asrwt>
<pdfrwt beam="1">  1       21 0.96159232E-01 0.12499976E+03</pdfrwt>
<pdfrwt beam="2">  1       21 0.96148096E-03 0.12499976E+03</pdfrwt>
<totfact> 0.35715191E+06</totfact>
</mgrwt>
</event>
<event>
 5    0  0.1462270E+000  0.1249903E+03  0.7546771E-02  0.1235084E+00
         21   -1    0    0  503  502  0.00000000000E+00  0.00000000000E+00  0.11421732435E+03  0.11421732435E+03  0.00000000000E+00 0.  1.
         21   -1    0    0  502  503 -0.00000000000E+00 -0.00000000000E+00 -0.34194870017E+02  0.34194870017E+02  0.00000000000E+00 0.  1.
         25    2    1    2    0    0  0.00000000000E+00  0.00000000000E+00  0.80022454331E+02  0.14841219437E+03  0.12499034458E+03 0.  0.
          4    1    3    3  501    0  0.32261757680E+02 -0.45753981491E+01 -0.23283290410E+02  0.40078290747E+02  0.15500000000E+01 0.  1.
         -4    1    3    3    0  501 -0.32261757680E+02  0.45753981491E+01  0.10330574474E+03  0.10833390362E+03  0.15500000000E+01 0.  1.
<mgrwt>
<rscale>  2 0.12499034E+03</rscale>
<asrwt>0</asrwt>
<pdfrwt beam="1">  1       21 0.17571896E-01 0.12499034E+03</pdfrwt>
<pdfrwt beam="2">  1       21 0.52607493E-02 0.12499034E+03</pdfrwt>
<totfact> 0.70976678E+06</totfact>
</mgrwt>
</event>
<event>
 5    0  0.1549122E+000  0.1249975E+03  0.7546771E-02  0.1235073E+00
         21   -1    0    0  503  502  0.00000000000E+00  0.00000000000E+00  0.94781364365E+02  0.94781364365E+02  0.00000000000E+00 0.  1.
         21   -1    0    0  502  503 -0.00000000000E+00 -0.00000000000E+00 -0.41211646107E+02  0.41211646107E+02  0.00000000000E+00 0.  1.
         25    2    1    2    0    0  0.00000000000E+00  0.00000000000E+00  0.53569718258E+02  0.13599301047E+03  0.12499753671E+03 0.  0.
          4    1    3    3  501    0 -0.46018336836E+02 -0.13420876047E+02  0.70383457816E+02  0.85170657349E+02  0.15500000000E+01 0.  1.
         -4    1    3    3    0  501  0.46018336836E+02  0.13420876047E+02 -0.16813739558E+02  0.50822353123E+02  0.15500000000E+01 0.  1.
<mgrwt>
<rscale>  2 0.12499754E+03</rscale>
<asrwt>0</asrwt>
<pdfrwt beam="1">  1       21 0.14581748E-01 0.12499754E+03</pdfrwt>
<pdfrwt beam="2">  1       21 0.63402532E-02 0.12499754E+03</pdfrwt>
<totfact> 0.72569816E+06</totfact>
</mgrwt>
</event>
<event>
 5    0  0.1512753E+000  0.1249956E+03  0.7546771E-02  0.1235076E+00
         21   -1    0    0  503  502  0.00000000000E+00  0.00000000000E+00  0.32540911277E+02  0.32540911277E+02  0.00000000000E+00 0.  1.
         21   -1    0    0  502  503 -0.00000000000E+00 -0.00000000000E+00 -0.12003266475E+03  0.12003266475E+03  0.00000000000E+00 0.  1.
         25    2    1    2    0    0  0.00000000000E+00  0.00000000000E+00 -0.87491753474E+02  0.15257357603E+03  0.12499555662E+03 0.  0.
          4    1    3    3  501    0  0.25061529012E+02 -0.53496212703E+02 -0.68571406602E+02  0.90522733682E+02  0.15500000000E+01 0.  1.
         -4    1    3    3    0  501 -0.25061529012E+02  0.53496212703E+02 -0.18920346872E+02  0.62050842345E+02  0.15500000000E+01 0.  1.
<mgrwt>
<rscale>  2 0.12499556E+03</rscale>
<asrwt>0</asrwt>
<pdfrwt beam="1">  1       21 0.50062939E-02 0.12499556E+03</pdfrwt>
<pdfrwt beam="2">  1       21 0.18466564E-01 0.12499556E+03</pdfrwt>
<totfact> 0.70445356E+06</totfact>
</mgrwt>
</event>
<event>
 5    0  0.1618805E+000  0.1250046E+03  0.7546771E-02  0.1235062E+00
         21   -1    0    0  503  502  0.00000000000E+00  0.00000000000E+00  0.13114823943E+02  0.13114823943E+02  0.00000000000E+00 0.  1.
         21   -1    0    0  502  503 -0.00000000000E+00 -0.00000000000E+00 -0.29787172604E+03  0.29787172604E+03  0.00000000000E+00 0.  1.
         25    2    1    2    0    0  0.00000000000E+00  0.00000000000E+00 -0.28475690209E+03  0.31098654998E+03  0.12500456383E+03 0.  0.
          4    1    3    3  501    0 -0.62199321705E+02 -0.12544675461E+00 -0.12758462921E+03  0.14194721367E+03  0.15500000000E+01 0. -1.
         -4    1    3    3    0  501  0.62199321705E+02  0.12544675461E+00 -0.15717227288E+03  0.16903933631E+03  0.15500000000E+01 0. -1.
<mgrwt>
<rscale>  2 0.12500456E+03</rscale>
<asrwt>0</asrwt>
<pdfrwt beam="1">  1       21 0.20176652E-02 0.12500456E+03</pdfrwt>
<pdfrwt beam="2">  1       21 0.45826420E-01 0.12500456E+03</pdfrwt>
<totfact> 0.54549077E+06</totfact>
</mgrwt>
</event>
<event>
 5    0  0.1632989E+000  0.1250134E+03  0.7546771E-02  0.1235048E+00
         21   -1    0    0  503  502  0.00000000000E+00  0.00000000000E+00  0.34155555640E+02  0.34155555640E+02  0.00000000000E+00 0. -1.
         21   -1    0    0  502  503 -0.00000000000E+00 -0.00000000000E+00 -0.11439099682E+03  0.11439099682E+03  0.00000000000E+00 0. -1.
         25    2    1    2    0    0  0.00000000000E+00  0.00000000000E+00 -0.80235441179E+02  0.14854655246E+03  0.12501340819E+03 0.  0.
          4    1    3    3  501    0 -0.44835834121E+02  0.38059805120E+02 -0.65208681888E+02  0.87825824680E+02  0.15500000000E+01 0.  1.
         -4    1    3    3    0  501  0.44835834121E+02 -0.38059805120E+02 -0.15026759290E+02  0.60720727778E+02  0.15500000000E+01 0.  1.
<mgrwt>
<rscale>  2 0.12501341E+03</rscale>
<asrwt>0</asrwt>
<pdfrwt beam="1">  1       21 0.52547009E-02 0.12501341E+03</pdfrwt>
<pdfrwt beam="2">  1       21 0.17598615E-01 0.12501341E+03</pdfrwt>
<totfact> 0.70918049E+06</totfact>
</mgrwt>
</event>
<event>
 5    0  0.1420346E+000  0.1250069E+03  0.7546771E-02  0.1235058E+00
         21   -1    0    0  503  502  0.00000000000E+00  0.00000000000E+00  0.66287947515E+02  0.66287947515E+02  0.00000000000E+00 0.  1.
         21   -1    0    0  502  503 -0.00000000000E+00 -0.00000000000E+00 -0.58935059888E+02  0.58935059888E+02  0.00000000000E+00 0.  1.
         25    2    1    2    0    0  0.00000000000E+00  0.00000000000E+00  0.73528876272E+01  0.12522300740E+03  0.12500694631E+03 0.  0.
          4    1    3    3  501    0  0.24420294253E+02  0.91915706969E+01  0.60549972836E+02  0.65951023144E+02  0.15500000000E+01 0.  1.
         -4    1    3    3    0  501 -0.24420294253E+02 -0.91915706969E+01 -0.53197085209E+02  0.59271984259E+02  0.15500000000E+01 0.  1.
<mgrwt>
<rscale>  2 0.12500695E+03</rscale>
<asrwt>0</asrwt>
<pdfrwt beam="1">  1       21 0.10198146E-01 0.12500695E+03</pdfrwt>
<pdfrwt beam="2">  1       21 0.90669323E-02 0.12500695E+03</pdfrwt>
<totfact> 0.74000323E+06</totfact>
</mgrwt>
</event>
<event>
 5    0  0.1481554E+000  0.1250095E+03  0.7546771E-02  0.1235054E+00
         21   -1    0    0  503  502  0.00000000000E+00  0.00000000000E+00  0.16438367526E+02  0.16438367526E+02  0.00000000000E+00 0. -1.
         21   -1    0    0  502  503 -0.00000000000E+00 -0.00000000000E+00 -0.23766605922E+03  0.23766605922E+03  0.00000000000E+00 0. -1.
         25    2    1    2    0    0  0.00000000000E+00  0.00000000000E+00 -0.22122769169E+03  0.25410442674E+03  0.12500947212E+03 0.  0.
          4    1    3    3  501    0  0.27397716890E+02 -0.49446169798E+02 -0.16473361766E+03  0.17416981910E+03  0.15500000000E+01 0. -1.
         -4    1    3    3    0  501 -0.27397716890E+02  0.49446169798E+02 -0.56494074035E+02  0.79934607646E+02  0.15500000000E+01 0. -1.
<mgrwt>
<rscale>  2 0.12500947E+03</rscale>
<asrwt>0</asrwt>
<pdfrwt beam="1">  1       21 0.25289798E-02 0.12500947E+03</pdfrwt>
<pdfrwt beam="2">  1       21 0.36564006E-01 0.12500947E+03</pdfrwt>
<totfact> 0.59479704E+06</totfact>
</mgrwt>
</event>
<event>
 5    0  0.1504857E+000  0.1249966E+03  0.7546771E-02  0.1235075E+00
         21   -1    0    0  503  502  0.00000000000E+00  0.00000000000E+00  0.18034421919E+02  0.18034421919E+02  0.00000000000E+00 0. -1.
         21   -1    0    0  502  503 -0.00000000000E+00 -0.00000000000E+00 -0.21658803406E+03  0.21658803406E+03  0.00000000000E+00 0. -1.
         25    2    1    2    0    0  0.00000000000E+00  0.00000000000E+00 -0.19855361214E+03  0.23462245598E+03  0.12499663978E+03 0.  0.
          4    1    3    3  501    0  0.77986100171E+01 -0.52864035896E+02 -0.16004775029E+03  0.16873976852E+03  0.15500000000E+01 0.  1.
         -4    1    3    3    0  501 -0.77986100171E+01  0.52864035896E+02 -0.38505861857E+02  0.65882687459E+02  0.15500000000E+01 0.  1.
<mgrwt>
<rscale>  2 0.12499664E+03</rscale>
<asrwt>0</asrwt>
<pdfrwt beam="1">  1       21 0.27745266E-02 0.12499664E+03</pdfrwt>
<pdfrwt beam="2">  1       21 0.33321234E-01 0.12499664E+03</pdfrwt>
<totfact> 0.61362155E+06</totfact>
</mgrwt>
</event>
<event>
 5    0  0.1535293E+000  0.1249967E+03  0.7546771E-02  0.1235074E+00
         21   -1    0    0  503  502  0.00000000000E+00  0.00000000000E+00  0.93276689983E+02  0.93276689983E+02  0.00000000000E+00 0.  1.
         21   -1    0    0  502  503 -0.00000000000E+00 -0.00000000000E+00 -0.41875890517E+02  0.41875890517E+02  0.00000000000E+00 0.  1.
         25    2    1    2    0    0  0.00000000000E+00  0.00000000000E+00  0.51400799466E+02  0.13515258050E+03  0.12499671128E+03 0.  0.
          4    1    3    3  501    0  0.42328935101E+02 -0.29873417108E+02 -0.12057991438E+02  0.53216139037E+02  0.15500000000E+01 0.  1.
         -4    1    3    3    0  501 -0.42328935101E+02  0.29873417108E+02  0.63458790903E+02  0.81936441462E+02  0.15500000000E+01 0.  1.
<mgrwt>
<rscale>  2 0.12499671E+03</rscale>
<asrwt>0</asrwt>
<pdfrwt beam="1">  1       21 0.14350260E-01 0.12499671E+03</pdfrwt>
<pdfrwt beam="2">  1       21 0.64424447E-02 0.12499671E+03</pdfrwt>
<totfact> 0.72682372E+06</totfact>
</mgrwt>
</event>
<event>
 5    0  0.1316443E+000  0.1250264E+03  0.7546771E-02  0.1235028E+00
         21   -1    0    0  503  502  0.00000000000E+00  0.00000000000E+00  0.85979354952E+01  0.85979354952E+01  0.00000000000E+00 0. -1.
         21   -1    0    0  502  503 -0.00000000000E+00 -0.00000000000E+00 -0.45451598184E+03  0.45451598184E+03  0.00000000000E+00 0. -1.
         25    2    1    2    0    0  0.00000000000E+00  0.00000000000E+00 -0.44591804635E+03  0.46311391734E+03  0.12502638271E+03 0.  0.
          4    1    3    3  501    0  0.43882791948E+02 -0.19505191849E+02 -0.37109385810E+03  0.37419140283E+03  0.15500000000E+01 0. -1.
         -4    1    3    3    0  501 -0.43882791948E+02  0.19505191849E+02 -0.74824188252E+02  0.88922514504E+02  0.15500000000E+01 0. -1.
<mgrwt>
<rscale>  2 0.12502638E+03</rscale>
<asrwt>0</asrwt>
<pdfrwt beam="1">  1       21 0.13227589E-02 0.12502638E+03</pdfrwt>
<pdfrwt beam="2">  1       21 0.69925560E-01 0.12502638E+03</pdfrwt>
<totfact> 0.44088807E+06</totfact>
</mgrwt>
</event>
<event>
 5    0  0.1381678E+000  0.1249793E+03  0.7546771E-02  0.1235102E+00
         21   -1    0    0  503  502  0.00000000000E+00  0.00000000000E+00  0.11103769625E+02  0.11103769625E+02  0.00000000000E+00 0.  1.
         21   -1    0    0  502  503 -0.00000000000E+00 -0.00000000000E+00 -0.35167832766E+03  0.35167832766E+03  0.00000000000E+00 0.  1.
         25    2    1    2    0    0  0.00000000000E+00  0.00000000000E+00 -0.34057455804E+03  0.36278209729E+03  0.12497928040E+03 0.  0.
          4    1    3    3  501    0 -0.64555237045E+01 -0.55242275550E+02 -0.25285830300E+03  0.25890752537E+03  0.15500000000E+01 0. -1.
         -4    1    3    3    0  501  0.64555237045E+01  0.55242275550E+02 -0.87716255037E+02  0.10387457192E+03  0.15500000000E+01 0. -1.
<mgrwt>
<rscale>  2 0.12497928E+03</rscale>
<asrwt>0</asrwt>
<pdfrwt beam="1">  1       21 0.17082721E-02 0.12497928E+03</pdfrwt>
<pdfrwt beam="2">  1       21 0.54104362E-01 0.12497928E+03</pdfrwt>
<totfact> 0.50634330E+06</totfact>
</mgrwt>
</event>
<event>
 5    0  0.1222151E+000  0.1250065E+03  0.7546771E-02  0.1235059E+00
         21   -1    0    0  503  502  0.00000000000E+00  0.00000000000E+00  0.85705205539E+03  0.85705205539E+03  0.00000000000E+00 0. -1.
         21   -1    0    0  502  503 -0.00000000000E+00 -0.00000000000E+00 -0.45582498841E+01  0.45582498841E+01  0.00000000000E+00 0. -1.
         25    2    1    2    0    0  0.00000000000E+00  0.00000000000E+00  0.85249380550E+03  0.86161030527E+03  0.12500651874E+03 0.  0.
          4    1    3    3  501    0 -0.79338945165E+01 -0.61493317366E+02  0.37291098978E+03  0.37803357465E+03  0.15500000000E+01 0.  1.
         -4    1    3    3    0  501  0.79338945165E+01  0.61493317366E+02  0.47958281572E+03  0.48357673062E+03  0.15500000000E+01 0.  1.
<mgrwt>
<rscale>  2 0.12500652E+03</rscale>
<asrwt>0</asrwt>
<pdfrwt beam="1">  1       21 0.13185403E+00 0.12500652E+03</pdfrwt>
<pdfrwt beam="2">  1       21 0.70126990E-03 0.12500652E+03</pdfrwt>
<totfact> 0.27415894E+06</totfact>
</mgrwt>
</event>
<event>
 4    0  0.1523380E+000  0.1251044E+03  0.7546771E-02  0.1234906E+00
         21   -1    0    0  503  502  0.00000000000E+00  0.00000000000E+00  0.25420756343E+03  0.25420756343E+03  0.00000000000E+00 0.  1.
         21   -1    0    0  502  503 -0.00000000000E+00 -0.00000000000E+00 -0.15392052773E+02  0.15392052773E+02  0.00000000000E+00 0.  1.
          4    1    1    2  501    0 -0.51411167522E+02 -0.34851847307E+02  0.13503918744E+03  0.14864637248E+03  0.15500000000E+01 0. -1.
         -4    1    1    2    0  501  0.51411167522E+02  0.34851847307E+02  0.10377632321E+03  0.12095324372E+03  0.15500000000E+01 0. -1.
<mgrwt>
<rscale>  2 0.12510438E+03</rscale>
<asrwt>0</asrwt>
<pdfrwt beam="1">  1       21 0.39108853E-01 0.12510438E+03</pdfrwt>
<pdfrwt beam="2">  1       21 0.23680083E-02 0.12510438E+03</pdfrwt>
<totfact> 0.57928077E+06</totfact>
</mgrwt>
</event>
<event>
 5    0  0.1311951E+000  0.1249909E+03  0.7546771E-02  0.1235084E+00
         21   -1    0    0  503  502  0.00000000000E+00  0.00000000000E+00  0.94551309801E+01  0.94551309801E+01  0.00000000000E+00 0. -1.
         21   -1    0    0  502  503 -0.00000000000E+00 -0.00000000000E+00 -0.41307520280E+03  0.41307520280E+03  0.00000000000E+00 0. -1.
         25    2    1    2    0    0  0.00000000000E+00  0.00000000000E+00 -0.40362007182E+03  0.42253033378E+03  0.12499088202E+03 0.  0.
          4    1    3    3  501    0 -0.66861558585E-01 -0.60095360285E+02 -0.25955813835E+03  0.26642876436E+03  0.15500000000E+01 0. -1.
         -4    1    3    3    0  501  0.66861558585E-01  0.60095360285E+02 -0.14406193347E+03  0.15610156941E+03  0.15500000000E+01 0. -1.
<mgrwt>
<rscale>  2 0.12499088E+03</rscale>
<asrwt>0</asrwt>
<pdfrwt beam="1">  1       21 0.14546357E-02 0.12499088E+03</pdfrwt>
<pdfrwt beam="2">  1       21 0.63550023E-01 0.12499088E+03</pdfrwt>
<totfact> 0.46592593E+06</totfact>
</mgrwt>
</event>
<event>
 5    0  0.1285395E+000  0.1250904E+03  0.7546771E-02  0.1234928E+00
         21   -1    0    0  503  502  0.00000000000E+00  0.00000000000E+00  0.73836929891E+01  0.73836929891E+01  0.00000000000E+00 0. -1.
         21   -1    0    0  502  503 -0.00000000000E+00 -0.00000000000E+00 -0.52980310440E+03  0.52980310440E+03  0.00000000000E+00 0. -1.
         25    2    1    2    0    0  0.00000000000E+00  0.00000000000E+00 -0.52241941141E+03  0.53718679739E+03  0.12509042278E+03 0.  0.
          4    1    3    3  501    0 -0.57830999791E+02 -0.23631352525E+02 -0.25014750200E+03  0.25783529746E+03  0.15500000000E+01 0. -1.
         -4    1    3    3    0  501  0.57830999791E+02  0.23631352525E+02 -0.27227190942E+03  0.27935149994E+03  0.15500000000E+01 0. -1.
<mgrwt>
<rscale>  2 0.12509042E+03</rscale>
<asrwt>0</asrwt>
<pdfrwt beam="1">  1       21 0.11359527E-02 0.12509042E+03</pdfrwt>
<pdfrwt beam="2">  1       21 0.81508178E-01 0.12509042E+03</pdfrwt>
<totfact> 0.40006524E+06</totfact>
</mgrwt>
</event>
<event>
 5    0  0.1426581E+000  0.1249966E+03  0.7546771E-02  0.1235075E+00
         21   -1    0    0  503  502  0.00000000000E+00  0.00000000000E+00  0.26990583046E+03  0.26990583046E+03  0.00000000000E+00 0.  1.
         21   -1    0    0  502  503 -0.00000000000E+00 -0.00000000000E+00 -0.14471855906E+02  0.14471855906E+02  0.00000000000E+00 0.  1.
         25    2    1    2    0    0  0.00000000000E+00  0.00000000000E+00  0.25543397455E+03  0.28437768636E+03  0.12499661254E+03 0.  0.
          4    1    3    3  501    0  0.19037687455E+02  0.54664307674E+02  0.74215481252E+02  0.94132673576E+02  0.15500000000E+01 0.  1.
         -4    1    3    3    0  501 -0.19037687455E+02 -0.54664307674E+02  0.18121849330E+03  0.19024501279E+03  0.15500000000E+01 0.  1.
<mgrwt>
<rscale>  2 0.12499661E+03</rscale>
<asrwt>0</asrwt>
<pdfrwt beam="1">  1       21 0.41523970E-01 0.12499661E+03</pdfrwt>
<pdfrwt beam="2">  1       21 0.22264396E-02 0.12499661E+03</pdfrwt>
<totfact> 0.56784802E+06</totfact>
</mgrwt>
</event>
<event>
 5    0  0.1561211E+000  0.1249989E+03  0.7546771E-02  0.1235071E+00
         21   -1    0    0  503  502  0.00000000000E+00  0.00000000000E+00  0.48957574961E+02  0.48957574961E+02  0.00000000000E+00 0.  1.
         21   -1    0    0  502  503 -0.00000000000E+00 -0.00000000000E+00 -0.79787097038E+02  0.79787097038E+02  0.00000000000E+00 0.  1.
         25    2    1    2    0    0  0.00000000000E+00  0.00000000000E+00 -0.30829522077E+02  0.12874467200E+03  0.12499892454E+03 0.  0.
          4    1    3    3  501    0 -0.58586089830E+02  0.21612773478E+02 -0.13269465926E+02  0.63858618251E+02  0.15500000000E+01 0. -1.
         -4    1    3    3    0  501  0.58586089830E+02 -0.21612773478E+02 -0.17560056151E+02  0.64886053748E+02  0.15500000000E+01 0. -1.
<mgrwt>
<rscale>  2 0.12499892E+03</rscale>
<asrwt>0</asrwt>
<pdfrwt beam="1">  1       21 0.75319347E-02 0.12499892E+03</pdfrwt>
<pdfrwt beam="2">  1       21 0.12274938E-01 0.12499892E+03</pdfrwt>
<totfact> 0.73535214E+06</totfact>
</mgrwt>
</event>
<event>
 5    0  0.1422786E+000  0.1250005E+03  0.7546771E-02  0.1235068E+00
         21   -1    0    0  503  502  0.00000000000E+00  0.00000000000E+00  0.89170144648E+02  0.89170144648E+02  0.00000000000E+00 0. -1.
         21   -1    0    0  502  503 -0.00000000000E+00 -0.00000000000E+00 -0.43807072515E+02  0.43807072515E+02  0.00000000000E+00 0. -1.
         25    2    1    2    0    0  0.00000000000E+00  0.00000000000E+00  0.45363072133E+02  0.13297721716E+03  0.12500052788E+03 0.  0.
          4    1    3    3  501    0  0.32527861867E+02  0.84808944153E+01  0.78710198561E+02  0.85601899659E+02  0.15500000000E+01 0. -1.
         -4    1    3    3    0  501 -0.32527861867E+02 -0.84808944153E+01 -0.33347126428E+02  0.47375317505E+02  0.15500000000E+01 0. -1.
<mgrwt>
<rscale>  2 0.12500053E+03</rscale>
<asrwt>0</asrwt>
<pdfrwt beam="1">  1       21 0.13718484E-01 0.12500053E+03</pdfrwt>
<pdfrwt beam="2">  1       21 0.67395496E-02 0.12500053E+03</pdfrwt>
<totfact> 0.72964458E+06</totfact>
</mgrwt>
</event>
<event>
 5    0  0.1364093E+000  0.1250026E+03  0.7546771E-02  0.1235065E+00
         21   -1    0    0  503  502  0.00000000000E+00  0.00000000000E+00  0.38919090104E+03  0.38919090104E+03  0.00000000000E+00 0.  1.
         21   -1    0    0  502  503 -0.00000000000E+00 -0.00000000000E+00 -0.10037265245E+02  0.10037265245E+02  0.00000000000E+00 0.  1.
         25    2    1    2    0    0  0.00000000000E+00  0.00000000000E+00  0.37915363580E+03  0.39922816629E+03  0.12500259685E+03 0.  0.
          4    1    3    3  501    0  0.22396386256E+02  0.55444023844E+02  0.13170259980E+03  0.14464997474E+03  0.15500000000E+01 0. -1.
         -4    1    3    3    0  501 -0.22396386256E+02 -0.55444023844E+02  0.24745103599E+03  0.25457819155E+03  0.15500000000E+01 0. -1.
<mgrwt>
<rscale>  2 0.12500260E+03</rscale>
<asrwt>0</asrwt>
<pdfrwt beam="1">  1       21 0.59875512E-01 0.12500260E+03</pdfrwt>
<pdfrwt beam="2">  1       21 0.15441949E-02 0.12500260E+03</pdfrwt>
<totfact> 0.48089471E+06</totfact>
</mgrwt>
</event>
<event>
 5    0  0.1584398E+000  0.1249955E+03  0.7546771E-02  0.1235076E+00
         21   -1    0    0  503  502  0.00000000000E+00  0.00000000000E+00  0.91320928500E+02  0.91320928500E+02  0.00000000000E+00 0. -1.
         21   -1    0    0  502  503 -0.00000000000E+00 -0.00000000000E+00 -0.42771882012E+02  0.42771882012E+02  0.00000000000E+00 0. -1.
         25    2    1    2    0    0  0.00000000000E+00  0.00000000000E+00  0.48549046488E+02  0.13409281051E+03  0.12499548758E+03 0.  0.
          4    1    3    3  501    0  0.50806917247E+02 -0.34435976112E+02  0.11746101800E+02  0.62510420718E+02  0.15500000000E+01 0.  1.
         -4    1    3    3    0  501 -0.50806917247E+02  0.34435976112E+02  0.36802944688E+02  0.71582389794E+02  0.15500000000E+01 0.  1.
<mgrwt>
<rscale>  2 0.12499549E+03</rscale>
<asrwt>0</asrwt>
<pdfrwt beam="1">  1       21 0.14049374E-01 0.12499549E+03</pdfrwt>
<pdfrwt beam="2">  1       21 0.65802896E-02 0.12499549E+03</pdfrwt>
<totfact> 0.72825197E+06</totfact>
</mgrwt>
</event>
<event>
 5    0  0.1398408E+000  0.1250123E+03  0.7546771E-02  0.1235050E+00
         21   -1    0    0  503  502  0.00000000000E+00  0.00000000000E+00  0.35005112747E+03  0.35005112747E+03  0.00000000000E+00 0.  1.
         21   -1    0    0  502  503 -0.00000000000E+00 -0.00000000000E+00 -0.11161279182E+02  0.11161279182E+02  0.00000000000E+00 0.  1.
         25    2    1    2    0    0  0.00000000000E+00  0.00000000000E+00  0.33888984828E+03  0.36121240665E+03  0.12501229318E+03 0.  0.
          4    1    3    3  501    0  0.76134744898E+01 -0.57712077453E+02  0.10381213007E+03  0.11902944899E+03  0.15500000000E+01 0. -1.
         -4    1    3    3    0  501 -0.76134744898E+01  0.57712077453E+02  0.23507771822E+03  0.24218295766E+03  0.15500000000E+01 0. -1.
<mgrwt>
<rscale>  2 0.12501229E+03</rscale>
<asrwt>0</asrwt>
<pdfrwt beam="1">  1       21 0.53854011E-01 0.12501229E+03</pdfrwt>
<pdfrwt beam="2">  1       21 0.17171201E-02 0.12501229E+03</pdfrwt>
<totfact> 0.50705271E+06</totfact>
</mgrwt>
</event>
<event>
 5    0  0.1468486E+000  0.1249982E+03  0.7546771E-02  0.1235072E+00
         21   -1    0    0  503  502  0.00000000000E+00  0.00000000000E+00  0.33722675667E+03  0.33722675667E+03  0.00000000000E+00 0. -1.
         21   -1    0    0  502  503 -0.00000000000E+00 -0.00000000000E+00 -0.11583119174E+02  0.11583119174E+02  0.00000000000E+00 0. -1.
         25    2    1    2    0    0  0.00000000000E+00  0.00000000000E+00  0.32564363749E+03  0.34880987584E+03  0.12499820337E+03 0.  0.
          4    1    3    3  501    0  0.43189866584E+02  0.30683141680E+02  0.25524301361E+03  0.26068797106E+03  0.15500000000E+01 0.  1.
         -4    1    3    3    0  501 -0.43189866584E+02 -0.30683141680E+02  0.70400623878E+02  0.88121904776E+02  0.15500000000E+01 0.  1.
<mgrwt>
<rscale>  2 0.12499820E+03</rscale>
<asrwt>0</asrwt>
<pdfrwt beam="1">  1       21 0.51881032E-01 0.12499820E+03</pdfrwt>
<pdfrwt beam="2">  1       21 0.17820186E-02 0.12499820E+03</pdfrwt>
<totfact> 0.51628773E+06</totfact>
</mgrwt>
</event>
<event>
 5    0  0.1510659E+000  0.1249968E+03  0.7546771E-02  0.1235074E+00
         21   -1    0    0  503  502  0.00000000000E+00  0.00000000000E+00  0.41385693158E+02  0.41385693158E+02  0.00000000000E+00 0. -1.
         21   -1    0    0  502  503 -0.00000000000E+00 -0.00000000000E+00 -0.94381676304E+02  0.94381676304E+02  0.00000000000E+00 0. -1.
         25    2    1    2    0    0  0.00000000000E+00  0.00000000000E+00 -0.52995983146E+02  0.13576736946E+03  0.12499681748E+03 0.  0.
          4    1    3    3  501    0  0.78083792868E+01 -0.24707494996E+02 -0.88249381370E+02  0.91987971541E+02  0.15500000000E+01 0.  1.
         -4    1    3    3    0  501 -0.78083792868E+01  0.24707494996E+02  0.35253398224E+02  0.43779397922E+02  0.15500000000E+01 0.  1.
<mgrwt>
<rscale>  2 0.12499682E+03</rscale>
<asrwt>0</asrwt>
<pdfrwt beam="1">  1       21 0.63670298E-02 0.12499682E+03</pdfrwt>
<pdfrwt beam="2">  1       21 0.14520258E-01 0.12499682E+03</pdfrwt>
<totfact> 0.72600919E+06</totfact>
</mgrwt>
</event>
<event>
 5    0  0.1632460E+000  0.1249995E+03  0.7546771E-02  0.1235070E+00
         21   -1    0    0  503  502  0.00000000000E+00  0.00000000000E+00  0.64992325817E+02  0.64992325817E+02  0.00000000000E+00 0.  1.
         21   -1    0    0  502  503 -0.00000000000E+00 -0.00000000000E+00 -0.60102744102E+02  0.60102744102E+02  0.00000000000E+00 0.  1.
         25    2    1    2    0    0  0.00000000000E+00  0.00000000000E+00  0.48895817150E+01  0.12509506992E+03  0.12499947403E+03 0.  0.
          4    1    3    3  501    0  0.14491549196E+01 -0.56297253433E+02 -0.24637572328E+02  0.61488968639E+02  0.15500000000E+01 0. -1.
         -4    1    3    3    0  501 -0.14491549196E+01  0.56297253433E+02  0.29527154043E+02  0.63606101280E+02  0.15500000000E+01 0. -1.
<mgrwt>
<rscale>  2 0.12499947E+03</rscale>
<asrwt>0</asrwt>
<pdfrwt beam="1">  1       21 0.99988194E-02 0.12499947E+03</pdfrwt>
<pdfrwt beam="2">  1       21 0.92465760E-02 0.12499947E+03</pdfrwt>
<totfact> 0.74031737E+06</totfact>
</mgrwt>
</event>
<event>
 5    0  0.1222151E+000  0.1250028E+03  0.7546771E-02  0.1235065E+00
         21   -1    0    0  503  502  0.00000000000E+00  0.00000000000E+00  0.64724432750E+03  0.64724432750E+03  0.00000000000E+00 0.  1.
         21   -1    0    0  502  503 -0.00000000000E+00 -0.00000000000E+00 -0.60354723211E+01  0.60354723211E+01  0.00000000000E+00 0.  1.
         25    2    1    2    0    0  0.00000000000E+00  0.00000000000E+00  0.64120885518E+03  0.65327979982E+03  0.12500280355E+03 0.  0.
          4    1    3    3  501    0  0.17057773851E+02 -0.11766804111E+02  0.12546974149E+02  0.24274562571E+02  0.15500000000E+01 0.  1.
         -4    1    3    3    0  501 -0.17057773851E+02  0.11766804111E+02  0.62866188103E+03  0.62900523725E+03  0.15500000000E+01 0.  1.
<mgrwt>
<rscale>  2 0.12500280E+03</rscale>
<asrwt>0</asrwt>
<pdfrwt beam="1">  1       21 0.99575995E-01 0.12500280E+03</pdfrwt>
<pdfrwt beam="2">  1       21 0.92853472E-03 0.12500280E+03</pdfrwt>
<totfact> 0.34786090E+06</totfact>
</mgrwt>
</event>
<event>
 5    0  0.1222151E+000  0.1250007E+03  0.7546771E-02  0.1235068E+00
         21   -1    0    0  503  502  0.00000000000E+00  0.00000000000E+00  0.33228435161E+01  0.33228435161E+01  0.00000000000E+00 0. -1.
         21   -1    0    0  502  503 -0.00000000000E+00 -0.00000000000E+00 -0.11755869442E+04  0.11755869442E+04  0.00000000000E+00 0. -1.
         25    2    1    2    0    0  0.00000000000E+00  0.00000000000E+00 -0.11722641006E+04  0.11789097877E+04  0.12500066328E+03 0.  0.
          4    1    3    3  501    0  0.54525169244E+02 -0.11122814261E+02 -0.85408150715E+03  0.85589388036E+03  0.15500000000E+01 0. -1.
         -4    1    3    3    0  501 -0.54525169244E+02  0.11122814261E+02 -0.31818259349E+03  0.32301590731E+03  0.15500000000E+01 0. -1.
<mgrwt>
<rscale>  2 0.12500066E+03</rscale>
<asrwt>0</asrwt>
<pdfrwt beam="1">  1       21 0.51120632E-03 0.12500066E+03</pdfrwt>
<pdfrwt beam="2">  1       21 0.18085966E+00 0.12500066E+03</pdfrwt>
<totfact> 0.19568465E+06</totfact>
</mgrwt>
</event>
<event>
 5    0  0.1419905E+000  0.1249773E+03  0.7546771E-02  0.1235105E+00
         21   -1    0    0  503  502  0.00000000000E+00  0.00000000000E+00  0.32050147926E+03  0.32050147926E+03  0.00000000000E+00 0.  1.
         21   -1    0    0  502  503 -0.00000000000E+00 -0.00000000000E+00 -0.12183514087E+02  0.12183514087E+02  0.00000000000E+00 0.  1.
         25    2    1    2    0    0  0.00000000000E+00  0.00000000000E+00  0.30831796517E+03  0.33268499334E+03  0.12497734655E+03 0.  0.
          4    1    3    3  501    0  0.16516489016E+01 -0.40623306898E+02  0.28041153270E+03  0.28334786249E+03  0.15500000000E+01 0. -1.
         -4    1    3    3    0  501 -0.16516489016E+01  0.40623306898E+02  0.27906432465E+02  0.49337130848E+02  0.15500000000E+01 0. -1.
<mgrwt>
<rscale>  2 0.12497735E+03</rscale>
<asrwt>0</asrwt>
<pdfrwt beam="1">  1       21 0.49307914E-01 0.12497735E+03</pdfrwt>
<pdfrwt beam="2">  1       21 0.18743870E-02 0.12497735E+03</pdfrwt>
<totfact> 0.52873213E+06</totfact>
</mgrwt>
</event>
<event>
 5    0  0.1585431E+000  0.1250114E+03  0.7546771E-02  0.1235052E+00
         21   -1    0    0  503  502  0.00000000000E+00  0.00000000000E+00  0.58476341433E+02  0.58476341433E+02  0.00000000000E+00 0. -1.
         21   -1    0    0  502  503 -0.00000000000E+00 -0.00000000000E+00 -0.66812654830E+02  0.66812654830E+02  0.00000000000E+00 0. -1.
         25    2    1    2    0    0  0.00000000000E+00  0.00000000000E+00 -0.83363133971E+01  0.12528899626E+03  0.12501135334E+03 0.  0.
          4    1    3    3  501    0  0.49887075408E+01 -0.61171200231E+02 -0.15931096074E+02  0.63427165022E+02  0.15500000000E+01 0. -1.
         -4    1    3    3    0  501 -0.49887075408E+01  0.61171200231E+02  0.75947826774E+01  0.61861831242E+02  0.15500000000E+01 0. -1.
<mgrwt>
<rscale>  2 0.12501135E+03</rscale>
<asrwt>0</asrwt>
<pdfrwt beam="1">  1       21 0.89963602E-02 0.12501135E+03</pdfrwt>
<pdfrwt beam="2">  1       21 0.10278870E-01 0.12501135E+03</pdfrwt>
<totfact> 0.73983081E+06</totfact>
</mgrwt>
</event>
<event>
 5    0  0.1460791E+000  0.1249980E+03  0.7546771E-02  0.1235072E+00
         21   -1    0    0  503  502  0.00000000000E+00  0.00000000000E+00  0.87681916867E+02  0.87681916867E+02  0.00000000000E+00 0.  1.
         21   -1    0    0  502  503 -0.00000000000E+00 -0.00000000000E+00 -0.44548812955E+02  0.44548812955E+02  0.00000000000E+00 0.  1.
         25    2    1    2    0    0  0.00000000000E+00  0.00000000000E+00  0.43133103912E+02  0.13223072982E+03  0.12499800501E+03 0.  0.
          4    1    3    3  501    0  0.49338751804E+02  0.11510420365E+02  0.60246165127E+02  0.78732490873E+02  0.15500000000E+01 0. -1.
         -4    1    3    3    0  501 -0.49338751804E+02 -0.11510420365E+02 -0.17113061215E+02  0.53498238950E+02  0.15500000000E+01 0. -1.
<mgrwt>
<rscale>  2 0.12499801E+03</rscale>
<asrwt>0</asrwt>
<pdfrwt beam="1">  1       21 0.13489526E-01 0.12499801E+03</pdfrwt>
<pdfrwt beam="2">  1       21 0.68536636E-02 0.12499801E+03</pdfrwt>
<totfact> 0.73069015E+06</totfact>
</mgrwt>
</event>
<event>
 5    0  0.1255882E+000  0.1250071E+03  0.7546771E-02  0.1235058E+00
         21   -1    0    0  503  502  0.00000000000E+00  0.00000000000E+00  0.37585982217E+03  0.37585982217E+03  0.00000000000E+00 0.  1.
         21   -1    0    0  502  503 -0.00000000000E+00 -0.00000000000E+00 -0.10394009830E+02  0.10394009830E+02  0.00000000000E+00 0.  1.
         25    2    1    2    0    0  0.00000000000E+00  0.00000000000E+00  0.36546581234E+03  0.38625383200E+03  0.12500705078E+03 0.  0.
          4    1    3    3  501    0 -0.39567772941E+02 -0.12895113778E+02  0.38717900376E+02  0.56862737574E+02  0.15500000000E+01 0. -1.
         -4    1    3    3    0  501  0.39567772941E+02  0.12895113778E+02  0.32674791196E+03  0.32939109442E+03  0.15500000000E+01 0. -1.
<mgrwt>
<rscale>  2 0.12500705E+03</rscale>
<asrwt>0</asrwt>
<pdfrwt beam="1">  1       21 0.57824578E-01 0.12500705E+03</pdfrwt>
<pdfrwt beam="2">  1       21 0.15990787E-02 0.12500705E+03</pdfrwt>
<totfact> 0.48958057E+06</totfact>
</mgrwt>
</event>
<event>
 5    0  0.1303817E+000  0.1249412E+03  0.7546771E-02  0.1235161E+00
         21   -1    0    0  503  502  0.00000000000E+00  0.00000000000E+00  0.23020315768E+03  0.23020315768E+03  0.00000000000E+00 0. -1.
         21   -1    0    0  502  503 -0.00000000000E+00 -0.00000000000E+00 -0.16952754019E+02  0.16952754019E+02  0.00000000000E+00 0. -1.
         25    2    1    2    0    0  0.00000000000E+00  0.00000000000E+00  0.21325040366E+03  0.24715591170E+03  0.12494122629E+03 0.  0.
          4    1    3    3  501    0  0.87693517054E+00 -0.40177990034E+02  0.20118818838E+03  0.20516853936E+03  0.15500000000E+01 0.  1.
         -4    1    3    3    0  501 -0.87693517054E+00  0.40177990034E+02  0.12062215277E+02  0.41987372338E+02  0.15500000000E+01 0.  1.
<mgrwt>
<rscale>  2 0.12494123E+03</rscale>
<asrwt>0</asrwt>
<pdfrwt beam="1">  1       21 0.35415868E-01 0.12494123E+03</pdfrwt>
<pdfrwt beam="2">  1       21 0.26081162E-02 0.12494123E+03</pdfrwt>
<totfact> 0.60236208E+06</totfact>
</mgrwt>
</event>
<event>
 5    0  0.1522364E+000  0.1250172E+03  0.7546771E-02  0.1235042E+00
         21   -1    0    0  503  502  0.00000000000E+00  0.00000000000E+00  0.22283756809E+03  0.22283756809E+03  0.00000000000E+00 0. -1.
         21   -1    0    0  502  503 -0.00000000000E+00 -0.00000000000E+00 -0.17534417055E+02  0.17534417055E+02  0.00000000000E+00 0. -1.
         25    2    1    2    0    0  0.00000000000E+00  0.00000000000E+00  0.20530315103E+03  0.24037198514E+03  0.12501722848E+03 0.  0.
          4    1    3    3  501    0 -0.52671246930E+02  0.98818427832E+01  0.16444851068E+03  0.17296712472E+03  0.15500000000E+01 0. -1.
         -4    1    3    3    0  501  0.52671246930E+02 -0.98818427832E+01  0.40854640355E+02  0.67404860422E+02  0.15500000000E+01 0. -1.
<mgrwt>
<rscale>  2 0.12501723E+03</rscale>
<asrwt>0</asrwt>
<pdfrwt beam="1">  1       21 0.34282701E-01 0.12501723E+03</pdfrwt>
<pdfrwt beam="2">  1       21 0.26976028E-02 0.12501723E+03</pdfrwt>
<totfact> 0.60770272E+06</totfact>
</mgrwt>
</event>
<event>
 5    0  0.1568091E+000  0.1250112E+03  0.7546771E-02  0.1235052E+00
         21   -1    0    0  503  502  0.00000000000E+00  0.00000000000E+00  0.62202860884E+02  0.62202860884E+02  0.00000000000E+00 0.  1.
         21   -1    0    0  502  503 -0.00000000000E+00 -0.00000000000E+00 -0.62809855924E+02  0.62809855924E+02  0.00000000000E+00 0.  1.
         25    2    1    2    0    0  0.00000000000E+00  0.00000000000E+00 -0.60699504057E+00  0.12501271681E+03  0.12501124318E+03 0.  0.
          4    1    3    3  501    0  0.42834801280E+02 -0.35665801806E+02  0.27940075505E+02  0.62369222685E+02  0.15500000000E+01 0. -1.
         -4    1    3    3    0  501 -0.42834801280E+02  0.35665801806E+02 -0.28547070545E+02  0.62643494123E+02  0.15500000000E+01 0. -1.
<mgrwt>
<rscale>  2 0.12501124E+03</rscale>
<asrwt>0</asrwt>
<pdfrwt beam="1">  1       21 0.95696709E-02 0.12501124E+03</pdfrwt>
<pdfrwt beam="2">  1       21 0.96630547E-02 0.12501124E+03</pdfrwt>
<totfact> 0.74020584E+06</totfact>
</mgrwt>
</event>
<event>
 5    0  0.1567293E+000  0.1249967E+03  0.7546771E-02  0.1235075E+00
         21   -1    0    0  503  502  0.00000000000E+00  0.00000000000E+00  0.31084886261E+02  0.31084886261E+02  0.00000000000E+00 0. -1.
         21   -1    0    0  502  503 -0.00000000000E+00 -0.00000000000E+00 -0.12565722820E+03  0.12565722820E+03  0.00000000000E+00 0. -1.
         25    2    1    2    0    0  0.00000000000E+00  0.00000000000E+00 -0.94572341943E+02  0.15674211447E+03  0.12499665030E+03 0.  0.
          4    1    3    3  501    0 -0.58044053115E+02 -0.11529976704E+02 -0.72415242144E+02  0.93533000912E+02  0.15500000000E+01 0.  1.
         -4    1    3    3    0  501  0.58044053115E+02  0.11529976704E+02 -0.22157099799E+02  0.63209113554E+02  0.15500000000E+01 0.  1.
<mgrwt>
<rscale>  2 0.12499665E+03</rscale>
<asrwt>0</asrwt>
<pdfrwt beam="1">  1       21 0.47822902E-02 0.12499665E+03</pdfrwt>
<pdfrwt beam="2">  1       21 0.19331881E-01 0.12499665E+03</pdfrwt>
<totfact> 0.69925738E+06</totfact>
</mgrwt>
</event>
<event>
 4    0  0.1310618E+000  0.1255371E+03  0.7546771E-02  0.1234232E+00
         21   -1    0    0  503  502  0.00000000000E+00  0.00000000000E+00  0.76461036391E+01  0.76461036391E+01  0.00000000000E+00 0. -1.
         21   -1    0    0  502  503 -0.00000000000E+00 -0.00000000000E+00 -0.51528116105E+03  0.51528116105E+03  0.00000000000E+00 0. -1.
          4    1    1    2  501    0 -0.54370349739E+02  0.13144703970E+02 -0.37226575116E+03  0.37644801787E+03  0.15500000000E+01 0.  1.
         -4    1    1    2    0  501  0.54370349739E+02 -0.13144703970E+02 -0.13536930625E+03  0.14647924682E+03  0.15500000000E+01 0.  1.
<mgrwt>
<rscale>  2 0.12553714E+03</rscale>
<asrwt>0</asrwt>
<pdfrwt beam="1">  1       21 0.11763237E-02 0.12553714E+03</pdfrwt>
<pdfrwt beam="2">  1       21 0.79274018E-01 0.12553714E+03</pdfrwt>
<totfact> 0.40286327E+06</totfact>
</mgrwt>
</event>
<event>
 5    0  0.1507367E+000  0.1250221E+03  0.7546771E-02  0.1235035E+00
         21   -1    0    0  503  502  0.00000000000E+00  0.00000000000E+00  0.15849973794E+03  0.15849973794E+03  0.00000000000E+00 0.  1.
         21   -1    0    0  502  503 -0.00000000000E+00 -0.00000000000E+00 -0.24653867853E+02  0.24653867853E+02  0.00000000000E+00 0.  1.
         25    2    1    2    0    0  0.00000000000E+00  0.00000000000E+00  0.13384587008E+03  0.18315360579E+03  0.12502210355E+03 0.  0.
          4    1    3    3  501    0 -0.32280663153E+02 -0.48139912758E+02  0.10114610575E+03  0.11658657565E+03  0.15500000000E+01 0. -1.
         -4    1    3    3    0  501  0.32280663153E+02  0.48139912758E+02  0.32699764335E+02  0.66567030139E+02  0.15500000000E+01 0. -1.
<mgrwt>
<rscale>  2 0.12502210E+03</rscale>
<asrwt>0</asrwt>
<pdfrwt beam="1">  1       21 0.24384575E-01 0.12502210E+03</pdfrwt>
<pdfrwt beam="2">  1       21 0.37929028E-02 0.12502210E+03</pdfrwt>
<totfact> 0.66754173E+06</totfact>
</mgrwt>
</event>
<event>
 5    0  0.1308591E+000  0.1250014E+03  0.7546771E-02  0.1235067E+00
         21   -1    0    0  503  502  0.00000000000E+00  0.00000000000E+00  0.62336089600E+03  0.62336089600E+03  0.00000000000E+00 0.  1.
         21   -1    0    0  502  503 -0.00000000000E+00 -0.00000000000E+00 -0.62665785368E+01  0.62665785368E+01  0.00000000000E+00 0.  1.
         25    2    1    2    0    0  0.00000000000E+00  0.00000000000E+00  0.61709431746E+03  0.62962747453E+03  0.12500144018E+03 0.  0.
          4    1    3    3  501    0 -0.61483638883E+02  0.49636935005E+01  0.25841448096E+03  0.26567898407E+03  0.15500000000E+01 0.  1.
         -4    1    3    3    0  501  0.61483638883E+02 -0.49636935005E+01  0.35867983650E+03  0.36394849047E+03  0.15500000000E+01 0.  1.
<mgrwt>
<rscale>  2 0.12500144E+03</rscale>
<asrwt>0</asrwt>
<pdfrwt beam="1">  1       21 0.95901627E-01 0.12500144E+03</pdfrwt>
<pdfrwt beam="2">  1       21 0.96408950E-03 0.12500144E+03</pdfrwt>
<totfact> 0.35784875E+06</totfact>
</mgrwt>
</event>
<event>
 5    0  0.1442093E+000  0.1250082E+03  0.7546771E-02  0.1235056E+00
         21   -1    0    0  503  502  0.00000000000E+00  0.00000000000E+00  0.39892729474E+02  0.39892729474E+02  0.00000000000E+00 0. -1.
         21   -1    0    0  502  503 -0.00000000000E+00 -0.00000000000E+00 -0.97931716538E+02  0.97931716538E+02  0.00000000000E+00 0. -1.
         25    2    1    2    0    0  0.00000000000E+00  0.00000000000E+00 -0.58038987065E+02  0.13782444601E+03  0.12500821533E+03 0.  0.
          4    1    3    3  501    0  0.26642472518E+02  0.25973866982E+02  0.26325605630E+02  0.45605954871E+02  0.15500000000E+01 0. -1.
         -4    1    3    3    0  501 -0.26642472518E+02 -0.25973866982E+02 -0.84364592695E+02  0.92218491141E+02  0.15500000000E+01 0. -1.
<mgrwt>
<rscale>  2 0.12500822E+03</rscale>
<asrwt>0</asrwt>
<pdfrwt beam="1">  1       21 0.61373431E-02 0.12500822E+03</pdfrwt>
<pdfrwt beam="2">  1       21 0.15066418E-01 0.12500822E+03</pdfrwt>
<totfact> 0.72309461E+06</totfact>
</mgrwt>
</event>
<event>
 5    0  0.1541314E+000  0.1249863E+03  0.7546771E-02  0.1235091E+00
         21   -1    0    0  503  502  0.00000000000E+00  0.00000000000E+00  0.16543640474E+02  0.16543640474E+02  0.00000000000E+00 0. -1.
         21   -1    0    0  502  503 -0.00000000000E+00 -0.00000000000E+00 -0.23606613565E+03  0.23606613565E+03  0.00000000000E+00 0. -1.
         25    2    1    2    0    0  0.00000000000E+00  0.00000000000E+00 -0.21952249518E+03  0.25260977613E+03  0.12498629167E+03 0.  0.
          4    1    3    3  501    0  0.66755911480E+01  0.56241577362E+02 -0.16305517265E+03  0.17261827936E+03  0.15500000000E+01 0.  1.
         -4    1    3    3    0  501 -0.66755911480E+01 -0.56241577362E+02 -0.56467322526E+02  0.79991496764E+02  0.15500000000E+01 0.  1.
<mgrwt>
<rscale>  2 0.12498629E+03</rscale>
<asrwt>0</asrwt>
<pdfrwt beam="1">  1       21 0.25451758E-02 0.12498629E+03</pdfrwt>
<pdfrwt beam="2">  1       21 0.36317862E-01 0.12498629E+03</pdfrwt>
<totfact> 0.59653959E+06</totfact>
</mgrwt>
</event>
<event>
 5    0  0.1478311E+000  0.1249985E+03  0.7546771E-02  0.1235072E+00
         21   -1    0    0  503  502  0.00000000000E+00  0.00000000000E+00  0.15216612170E+02  0.15216612170E+02  0.00000000000E+00 0. -1.
         21   -1    0    0  502  503 -0.00000000000E+00 -0.00000000000E+00 -0.25670347613E+03  0.25670347613E+03  0.00000000000E+00 0. -1.
         25    2    1    2    0    0  0.00000000000E+00  0.00000000000E+00 -0.24148686396E+03  0.27192008830E+03  0.12499851582E+03 0.  0.
          4    1    3    3  501    0 -0.43498315477E+01 -0.45722140574E+02 -0.28595343077E+02  0.54125144978E+02  0.15500000000E+01 0.  1.
         -4    1    3    3    0  501  0.43498315477E+01  0.45722140574E+02 -0.21289152089E+03  0.21779494333E+03  0.15500000000E+01 0.  1.
<mgrwt>
<rscale>  2 0.12499852E+03</rscale>
<asrwt>0</asrwt>
<pdfrwt beam="1">  1       21 0.23410175E-02 0.12499852E+03</pdfrwt>
<pdfrwt beam="2">  1       21 0.39492839E-01 0.12499852E+03</pdfrwt>
<totfact> 0.57875710E+06</totfact>
</mgrwt>
</event>
<event>
 5    0  0.1491009E+000  0.1250025E+03  0.7546771E-02  0.1235065E+00
         21   -1    0    0  503  502  0.00000000000E+00  0.00000000000E+00  0.11892066658E+03  0.11892066658E+03  0.00000000000E+00 0.  1.
         21   -1    0    0  502  503 -0.00000000000E+00 -0.00000000000E+00 -0.32848866878E+02  0.32848866878E+02  0.00000000000E+00 0.  1.
         25    2    1    2    0    0  0.00000000000E+00  0.00000000000E+00  0.86071799701E+02  0.15176953346E+03  0.12500254630E+03 0.  0.
          4    1    3    3  501    0  0.23180029093E+01  0.44038598339E+02 -0.10705508704E+02  0.45406846376E+02  0.15500000000E+01 0. -1.
         -4    1    3    3    0  501 -0.23180029093E+01 -0.44038598339E+02  0.96777308404E+02  0.10636268708E+03  0.15500000000E+01 0. -1.
<mgrwt>
<rscale>  2 0.12500255E+03</rscale>
<asrwt>0</asrwt>
<pdfrwt beam="1">  1       21 0.18295487E-01 0.12500255E+03</pdfrwt>
<pdfrwt beam="2">  1       21 0.50536719E-02 0.12500255E+03</pdfrwt>
<totfact> 0.70533046E+06</totfact>
</mgrwt>
</event>
<event>
 5    0  0.1542984E+000  0.1249981E+03  0.7546771E-02  0.1235072E+00
         21   -1    0    0  503  502  0.00000000000E+00  0.00000000000E+00  0.52633261609E+02  0.52633261609E+02  0.00000000000E+00 0. -1.
         21   -1    0    0  502  503 -0.00000000000E+00 -0.00000000000E+00 -0.74214165726E+02  0.74214165726E+02  0.00000000000E+00 0. -1.
         25    2    1    2    0    0  0.00000000000E+00  0.00000000000E+00 -0.21580904117E+02  0.12684742733E+03  0.12499813758E+03 0.  0.
          4    1    3    3  501    0  0.31381961807E+02 -0.34070122034E+02 -0.53340853096E+02  0.70662931239E+02  0.15500000000E+01 0.  1.
         -4    1    3    3    0  501 -0.31381961807E+02  0.34070122034E+02  0.31759948979E+02  0.56184496095E+02  0.15500000000E+01 0.  1.
<mgrwt>
<rscale>  2 0.12499814E+03</rscale>
<asrwt>0</asrwt>
<pdfrwt beam="1">  1       21 0.80974249E-02 0.12499814E+03</pdfrwt>
<pdfrwt beam="2">  1       21 0.11417564E-01 0.12499814E+03</pdfrwt>
<totfact> 0.73793429E+06</totfact>
</mgrwt>
</event>
<event>
 5    0  0.1445548E+000  0.1249892E+03  0.7546771E-02  0.1235086E+00
         21   -1    0    0  503  502  0.00000000000E+00  0.00000000000E+00  0.12499964499E+03  0.12499964499E+03  0.00000000000E+00 0. -1.
         21   -1    0    0  502  503 -0.00000000000E+00 -0.00000000000E+00 -0.31244688223E+02  0.31244688223E+02  0.00000000000E+00 0. -1.
         25    2    1    2    0    0  0.00000000000E+00  0.00000000000E+00  0.93754956769E+02  0.15624433322E+03  0.12498919851E+03 0.  0.
          4    1    3    3  501    0  0.15662971344E+02  0.39202275601E+02 -0.10693647347E+02  0.43576411936E+02  0.15500000000E+01 0. -1.
         -4    1    3    3    0  501 -0.15662971344E+02 -0.39202275601E+02  0.10444860412E+03  0.11266792128E+03  0.15500000000E+01 0. -1.
<mgrwt>
<rscale>  2 0.12498920E+03</rscale>
<asrwt>0</asrwt>
<pdfrwt beam="1">  1       21 0.19230714E-01 0.12498920E+03</pdfrwt>
<pdfrwt beam="2">  1       21 0.48068752E-02 0.12498920E+03</pdfrwt>
<totfact> 0.70000562E+06</totfact>
</mgrwt>
</event>
<event>
 5    0  0.1565397E+000  0.1250121E+03  0.7546771E-02  0.1235050E+00
         21   -1    0    0  503  502  0.00000000000E+00  0.00000000000E+00  0.36214008973E+02  0.36214008973E+02  0.00000000000E+00 0.  1.
         21   -1    0    0  502  503 -0.00000000000E+00 -0.00000000000E+00 -0.10788667579E+03  0.10788667579E+03  0.00000000000E+00 0.  1.
         25    2    1    2    0    0  0.00000000000E+00  0.00000000000E+00 -0.71672666818E+02  0.14410068476E+03  0.12501214413E+03 0.  0.
          4    1    3    3  501    0  0.29284098058E+02  0.55190499301E+02 -0.34651280997E+02  0.71460922097E+02  0.15500000000E+01 0.  1.
         -4    1    3    3    0  501 -0.29284098058E+02 -0.55190499301E+02 -0.37021385820E+02  0.72639762666E+02  0.15500000000E+01 0.  1.
<mgrwt>
<rscale>  2 0.12501214E+03</rscale>
<asrwt>0</asrwt>
<pdfrwt beam="1">  1       21 0.55713861E-02 0.12501214E+03</pdfrwt>
<pdfrwt beam="2">  1       21 0.16597950E-01 0.12501214E+03</pdfrwt>
<totfact> 0.71486275E+06</totfact>
</mgrwt>
</event>
<event>
 5    0  0.1513239E+000  0.1250010E+03  0.7546771E-02  0.1235068E+00
         21   -1    0    0  503  502  0.00000000000E+00  0.00000000000E+00  0.23920177322E+02  0.23920177322E+02  0.00000000000E+00 0.  1.
         21   -1    0    0  502  503 -0.00000000000E+00 -0.00000000000E+00 -0.16330604801E+03  0.16330604801E+03  0.00000000000E+00 0.  1.
         25    2    1    2    0    0  0.00000000000E+00  0.00000000000E+00 -0.13938587068E+03  0.18722622533E+03  0.12500095401E+03 0.  0.
          4    1    3    3  501    0 -0.60174151557E+01 -0.49220426533E+02 -0.12662991277E+03  0.13600145949E+03  0.15500000000E+01 0. -1.
         -4    1    3    3    0  501  0.60174151557E+01  0.49220426533E+02 -0.12755957909E+02  0.51224765841E+02  0.15500000000E+01 0. -1.
<mgrwt>
<rscale>  2 0.12500095E+03</rscale>
<asrwt>0</asrwt>
<pdfrwt beam="1">  1       21 0.36800272E-02 0.12500095E+03</pdfrwt>
<pdfrwt beam="2">  1       21 0.25124008E-01 0.12500095E+03</pdfrwt>
<totfact> 0.66330473E+06</totfact>
</mgrwt>
</event>
<event>
 5    0  0.1328610E+000  0.1249870E+03  0.7546771E-02  0.1235090E+00
         21   -1    0    0  503  502  0.00000000000E+00  0.00000000000E+00  0.74173635375E+01  0.74173635375E+01  0.00000000000E+00 0. -1.
         21   -1    0    0  502  503 -0.00000000000E+00 -0.00000000000E+00 -0.52652670035E+03  0.52652670035E+03  0.00000000000E+00 0. -1.
         25    2    1    2    0    0  0.00000000000E+00  0.00000000000E+00 -0.51910933681E+03  0.53394406389E+03  0.12498703851E+03 0.  0.
          4    1    3    3  501    0 -0.33520878963E+02  0.51995165094E+02 -0.29677032792E+03  0.30315371770E+03  0.15500000000E+01 0. -1.
         -4    1    3    3    0  501  0.33520878963E+02 -0.51995165094E+02 -0.22233900889E+03  0.23079034618E+03  0.15500000000E+01 0. -1.
<mgrwt>
<rscale>  2 0.12498704E+03</rscale>
<asrwt>0</asrwt>
<pdfrwt beam="1">  1       21 0.11411325E-02 0.12498704E+03</pdfrwt>
<pdfrwt beam="2">  1       21 0.81004134E-01 0.12498704E+03</pdfrwt>
<totfact> 0.40274051E+06</totfact>
</mgrwt>
</event>
<event>
 5    0  0.1557326E+000  0.1249802E+03  0.7546771E-02  0.1235100E+00
         21   -1    0    0  503  502  0.00000000000E+00  0.00000000000E+00  0.21585437544E+03  0.21585437544E+03  0.00000000000E+00 0. -1.
         21   -1    0    0  502  503 -0.00000000000E+00 -0.00000000000E+00 -0.18090969960E+02  0.18090969960E+02  0.00000000000E+00 0. -1.
         25    2    1    2    0    0  0.00000000000E+00  0.00000000000E+00  0.19776340548E+03  0.23394534540E+03  0.12498023879E+03 0.  0.
          4    1    3    3  501    0  0.41742861404E+01  0.60201744300E+02  0.12911890400E+03  0.14253339451E+03  0.15500000000E+01 0. -1.
         -4    1    3    3    0  501 -0.41742861404E+01 -0.60201744300E+02  0.68644501485E+02  0.91411950891E+02  0.15500000000E+01 0. -1.
<mgrwt>
<rscale>  2 0.12498024E+03</rscale>
<asrwt>0</asrwt>
<pdfrwt beam="1">  1       21 0.33208364E-01 0.12498024E+03</pdfrwt>
<pdfrwt beam="2">  1       21 0.27832263E-02 0.12498024E+03</pdfrwt>
<totfact> 0.61454170E+06</totfact>
</mgrwt>
</event>
<event>
 5    0  0.1222151E+000  0.1249869E+03  0.7546771E-02  0.1235090E+00
         21   -1    0    0  503  502  0.00000000000E+00  0.00000000000E+00  0.30416250091E+04  0.30416250091E+04  0.00000000000E+00 0.  1.
         21   -1    0    0  502  503 -0.00000000000E+00 -0.00000000000E+00 -0.12839949130E+01  0.12839949130E+01  0.00000000000E+00 0.  1.
         25    2    1    2    0    0  0.00000000000E+00  0.00000000000E+00  0.30403410142E+04  0.30429090040E+04  0.12498689594E+03 0.  0.
          4    1    3    3  501    0  0.50738860990E+02  0.32129011552E+02  0.19392604772E+04  0.19401907913E+04  0.15500000000E+01 0. -1.
         -4    1    3    3    0  501 -0.50738860990E+02 -0.32129011552E+02  0.11010805369E+04  0.11027182127E+04  0.15500000000E+01 0. -1.
<mgrwt>
<rscale>  2 0.12498690E+03</rscale>
<asrwt>0</asrwt>
<pdfrwt beam="1">  1       21 0.46793654E+00 0.12498690E+03</pdfrwt>
<pdfrwt beam="2">  1       21 0.19754011E-03 0.12498690E+03</pdfrwt>
<totfact> 0.16036485E+05</totfact>
</mgrwt>
</event>
<event>
 5    0  0.1455384E+000  0.1249992E+03  0.7546771E-02  0.1235070E+00
         21   -1    0    0  503  502  0.00000000000E+00  0.00000000000E+00  0.18267377361E+02  0.18267377361E+02  0.00000000000E+00 0. -1.
         21   -1    0    0  502  503 -0.00000000000E+00 -0.00000000000E+00 -0.21383491626E+03  0.21383491626E+03  0.00000000000E+00 0. -1.
         25    2    1    2    0    0  0.00000000000E+00  0.00000000000E+00 -0.19556753890E+03  0.23210229362E+03  0.12499924973E+03 0.  0.
          4    1    3    3  501    0  0.48202557074E+02  0.98003651381E+00 -0.17157618333E+03  0.17822804539E+03  0.15500000000E+01 0.  1.
         -4    1    3    3    0  501 -0.48202557074E+02 -0.98003651381E+00 -0.23991355575E+02  0.53874248230E+02  0.15500000000E+01 0.  1.
<mgrwt>
<rscale>  2 0.12499925E+03</rscale>
<asrwt>0</asrwt>
<pdfrwt beam="1">  1       21 0.28103656E-02 0.12499925E+03</pdfrwt>
<pdfrwt beam="2">  1       21 0.32897681E-01 0.12499925E+03</pdfrwt>
<totfact> 0.61606550E+06</totfact>
</mgrwt>
</event>
<event>
 5    0  0.1542095E+000  0.1250060E+03  0.7546771E-02  0.1235060E+00
         21   -1    0    0  503  502  0.00000000000E+00  0.00000000000E+00  0.59824816456E+02  0.59824816456E+02  0.00000000000E+00 0. -1.
         21   -1    0    0  502  503 -0.00000000000E+00 -0.00000000000E+00 -0.65301074035E+02  0.65301074035E+02  0.00000000000E+00 0. -1.
         25    2    1    2    0    0  0.00000000000E+00  0.00000000000E+00 -0.54762575793E+01  0.12512589049E+03  0.12500599615E+03 0.  0.
          4    1    3    3  501    0  0.61190178126E+02  0.12354336889E+02 -0.23567276316E-01  0.62444139793E+02  0.15500000000E+01 0.  1.
         -4    1    3    3    0  501 -0.61190178126E+02 -0.12354336889E+02 -0.54526903030E+01  0.62681750698E+02  0.15500000000E+01 0.  1.
<mgrwt>
<rscale>  2 0.12500600E+03</rscale>
<asrwt>0</asrwt>
<pdfrwt beam="1">  1       21 0.92038179E-02 0.12500600E+03</pdfrwt>
<pdfrwt beam="2">  1       21 0.10046319E-01 0.12500600E+03</pdfrwt>
<totfact> 0.74015232E+06</totfact>
</mgrwt>
</event>
<event>
 5    0  0.1486557E+000  0.1249999E+03  0.7546771E-02  0.1235069E+00
         21   -1    0    0  503  502  0.00000000000E+00  0.00000000000E+00  0.27114292494E+02  0.27114292494E+02  0.00000000000E+00 0. -1.
         21   -1    0    0  502  503 -0.00000000000E+00 -0.00000000000E+00 -0.14406577850E+03  0.14406577850E+03  0.00000000000E+00 0. -1.
         25    2    1    2    0    0  0.00000000000E+00  0.00000000000E+00 -0.11695148601E+03  0.17118007100E+03  0.12499986651E+03 0.  0.
          4    1    3    3  501    0  0.10262673652E+02  0.32326654293E+02 -0.13033562792E+03  0.13468523844E+03  0.15500000000E+01 0. -1.
         -4    1    3    3    0  501 -0.10262673652E+02 -0.32326654293E+02  0.13384141916E+02  0.36494832553E+02  0.15500000000E+01 0. -1.
<mgrwt>
<rscale>  2 0.12499987E+03</rscale>
<asrwt>0</asrwt>
<pdfrwt beam="1">  1       21 0.41714296E-02 0.12499987E+03</pdfrwt>
<pdfrwt beam="2">  1       21 0.22163966E-01 0.12499987E+03</pdfrwt>
<totfact> 0.68178250E+06</totfact>
</mgrwt>
</event>
<event>
 5    0  0.1344891E+000  0.1249990E+03  0.7546771E-02  0.1235071E+00
         21   -1    0    0  503  502  0.00000000000E+00  0.00000000000E+00  0.82871202252E+01  0.82871202252E+01  0.00000000000E+00 0. -1.
         21   -1    0    0  502  503 -0.00000000000E+00 -0.00000000000E+00 -0.47135637398E+03  0.47135637398E+03  0.00000000000E+00 0. -1.
         25    2    1    2    0    0  0.00000000000E+00  0.00000000000E+00 -0.46306925375E+03  0.47964349420E+03  0.12499899104E+03 0.  0.
          4    1    3    3  501    0  0.18279646134E+02 -0.54716289660E+02 -0.32360826278E+03  0.32871374790E+03  0.15500000000E+01 0.  1.
         -4    1    3    3    0  501 -0.18279646134E+02  0.54716289660E+02 -0.13946099097E+03  0.15092974630E+03  0.15500000000E+01 0.  1.
<mgrwt>
<rscale>  2 0.12499899E+03</rscale>
<asrwt>0</asrwt>
<pdfrwt beam="1">  1       21 0.12749415E-02 0.12499899E+03</pdfrwt>
<pdfrwt beam="2">  1       21 0.72516370E-01 0.12499899E+03</pdfrwt>
<totfact> 0.43171094E+06</totfact>
</mgrwt>
</event>
<event>
 5    0  0.1402098E+000  0.1249994E+03  0.7546771E-02  0.1235070E+00
         21   -1    0    0  503  502  0.00000000000E+00  0.00000000000E+00  0.61017192642E+01  0.61017192642E+01  0.00000000000E+00 0. -1.
         21   -1    0    0  502  503 -0.00000000000E+00 -0.00000000000E+00 -0.64018272927E+03  0.64018272927E+03  0.00000000000E+00 0. -1.
         25    2    1    2    0    0  0.00000000000E+00  0.00000000000E+00 -0.63408101000E+03  0.64628444853E+03  0.12499944467E+03 0.  0.
          4    1    3    3  501    0  0.58810727068E+02  0.20362679423E+02 -0.28849949214E+03  0.29514013586E+03  0.15500000000E+01 0.  1.
         -4    1    3    3    0  501 -0.58810727068E+02 -0.20362679423E+02 -0.34558151787E+03  0.35114431267E+03  0.15500000000E+01 0.  1.
<mgrwt>
<rscale>  2 0.12499944E+03</rscale>
<asrwt>0</asrwt>
<pdfrwt beam="1">  1       21 0.93872640E-03 0.12499944E+03</pdfrwt>
<pdfrwt beam="2">  1       21 0.98489613E-01 0.12499944E+03</pdfrwt>
<totfact> 0.35080026E+06</totfact>
</mgrwt>
</event>
<event>
 5    0  0.1398942E+000  0.1249944E+03  0.7546771E-02  0.1235078E+00
         21   -1    0    0  503  502  0.00000000000E+00  0.00000000000E+00  0.41959709921E+03  0.41959709921E+03  0.00000000000E+00 0. -1.
         21   -1    0    0  502  503 -0.00000000000E+00 -0.00000000000E+00 -0.93086848207E+01  0.93086848207E+01  0.00000000000E+00 0. -1.
         25    2    1    2    0    0  0.00000000000E+00  0.00000000000E+00  0.41028841439E+03  0.42890578403E+03  0.12499435424E+03 0.  0.
          4    1    3    3  501    0  0.44971764514E+02  0.42199710641E+02  0.23949585298E+03  0.24731344743E+03  0.15500000000E+01 0. -1.
         -4    1    3    3    0  501 -0.44971764514E+02 -0.42199710641E+02  0.17079256140E+03  0.18159233660E+03  0.15500000000E+01 0. -1.
<mgrwt>
<rscale>  2 0.12499435E+03</rscale>
<asrwt>0</asrwt>
<pdfrwt beam="1">  1       21 0.64553385E-01 0.12499435E+03</pdfrwt>
<pdfrwt beam="2">  1       21 0.14321057E-02 0.12499435E+03</pdfrwt>
<totfact> 0.46187869E+06</totfact>
</mgrwt>
</event>
<event>
 5    0  0.1536861E+000  0.1249888E+03  0.7546771E-02  0.1235087E+00
         21   -1    0    0  503  502  0.00000000000E+00  0.00000000000E+00  0.18141572493E+03  0.18141572493E+03  0.00000000000E+00 0. -1.
         21   -1    0    0  502  503 -0.00000000000E+00 -0.00000000000E+00 -0.21528181960E+02  0.21528181960E+02  0.00000000000E+00 0. -1.
         25    2    1    2    0    0  0.00000000000E+00  0.00000000000E+00  0.15988754297E+03  0.20294390689E+03  0.12498881129E+03 0.  0.
          4    1    3    3  501    0 -0.36508489074E+02 -0.44857535019E+02  0.11830152058E+03  0.13169176320E+03  0.15500000000E+01 0.  1.
         -4    1    3    3    0  501  0.36508489074E+02  0.44857535019E+02  0.41586022388E+02  0.71252143691E+02  0.15500000000E+01 0.  1.
<mgrwt>
<rscale>  2 0.12498881E+03</rscale>
<asrwt>0</asrwt>
<pdfrwt beam="1">  1       21 0.27910111E-01 0.12498881E+03</pdfrwt>
<pdfrwt beam="2">  1       21 0.33120281E-02 0.12498881E+03</pdfrwt>
<totfact> 0.64627950E+06</totfact>
</mgrwt>
</event>
<event>
 5    0  0.1503045E+000  0.1250019E+03  0.7546771E-02  0.1235066E+00
         21   -1    0    0  503  502  0.00000000000E+00  0.00000000000E+00  0.18702233932E+03  0.18702233932E+03  0.00000000000E+00 0.  1.
         21   -1    0    0  502  503 -0.00000000000E+00 -0.00000000000E+00 -0.20887189401E+02  0.20887189401E+02  0.00000000000E+00 0.  1.
         25    2    1    2    0    0  0.00000000000E+00  0.00000000000E+00  0.16613514992E+03  0.20790952873E+03  0.12500193636E+03 0.  0.
          4    1    3    3  501    0  0.18640369028E+02 -0.57856044216E+02  0.10712345076E+03  0.12317719518E+03  0.15500000000E+01 0. -1.
         -4    1    3    3    0  501 -0.18640369028E+02  0.57856044216E+02  0.59011699166E+02  0.84732333547E+02  0.15500000000E+01 0. -1.
<mgrwt>
<rscale>  2 0.12500194E+03</rscale>
<asrwt>0</asrwt>
<pdfrwt beam="1">  1       21 0.28772666E-01 0.12500194E+03</pdfrwt>
<pdfrwt beam="2">  1       21 0.32134139E-02 0.12500194E+03</pdfrwt>
<totfact> 0.64077012E+06</totfact>
</mgrwt>
</event>
<event>
 5    0  0.1568995E+000  0.1249972E+03  0.7546771E-02  0.1235074E+00
         21   -1    0    0  503  502  0.00000000000E+00  0.00000000000E+00  0.26741853013E+02  0.26741853013E+02  0.00000000000E+00 0.  1.
         21   -1    0    0  502  503 -0.00000000000E+00 -0.00000000000E+00 -0.14606588594E+03  0.14606588594E+03  0.00000000000E+00 0.  1.
         25    2    1    2    0    0  0.00000000000E+00  0.00000000000E+00 -0.11932403292E+03  0.17280773895E+03  0.12499715920E+03 0.  0.
          4    1    3    3  501    0  0.55338626008E+02  0.20146844732E+02 -0.88509821778E+02  0.10632332732E+03  0.15500000000E+01 0.  1.
         -4    1    3    3    0  501 -0.55338626008E+02 -0.20146844732E+02 -0.30814211145E+02  0.66484411629E+02  0.15500000000E+01 0.  1.
<mgrwt>
<rscale>  2 0.12499716E+03</rscale>
<asrwt>0</asrwt>
<pdfrwt beam="1">  1       21 0.41141311E-02 0.12499716E+03</pdfrwt>
<pdfrwt beam="2">  1       21 0.22471675E-01 0.12499716E+03</pdfrwt>
<totfact> 0.67991245E+06</totfact>
</mgrwt>
</event>
<event>
 5    0  0.1255287E+000  0.1249996E+03  0.7546771E-02  0.1235070E+00
         21   -1    0    0  503  502  0.00000000000E+00  0.00000000000E+00  0.66202474355E+03  0.66202474355E+03  0.00000000000E+00 0.  1.
         21   -1    0    0  502  503 -0.00000000000E+00 -0.00000000000E+00 -0.59004240600E+01  0.59004240600E+01  0.00000000000E+00 0.  1.
         25    2    1    2    0    0  0.00000000000E+00  0.00000000000E+00  0.65612431949E+03  0.66792516761E+03  0.12499962760E+03 0.  0.
          4    1    3    3  501    0  0.24419791656E+02 -0.54883444683E+02  0.23623844524E+03  0.24376120330E+03  0.15500000000E+01 0.  1.
         -4    1    3    3    0  501 -0.24419791656E+02  0.54883444683E+02  0.41988587425E+03  0.42416396431E+03  0.15500000000E+01 0.  1.
<mgrwt>
<rscale>  2 0.12499963E+03</rscale>
<asrwt>0</asrwt>
<pdfrwt beam="1">  1       21 0.10184990E+00 0.12499963E+03</pdfrwt>
<pdfrwt beam="2">  1       21 0.90775807E-03 0.12499963E+03</pdfrwt>
<totfact> 0.34184085E+06</totfact>
</mgrwt>
</event>
<event>
 5    0  0.1469598E+000  0.1250012E+03  0.7546771E-02  0.1235067E+00
         21   -1    0    0  503  502  0.00000000000E+00  0.00000000000E+00  0.26661411281E+02  0.26661411281E+02  0.00000000000E+00 0. -1.
         21   -1    0    0  502  503 -0.00000000000E+00 -0.00000000000E+00 -0.14651606836E+03  0.14651606836E+03  0.00000000000E+00 0. -1.
         25    2    1    2    0    0  0.00000000000E+00  0.00000000000E+00 -0.11985465708E+03  0.17317747964E+03  0.12500120252E+03 0.  0.
          4    1    3    3  501    0  0.22616644766E+02 -0.39368374254E+02 -0.11939566930E+03  0.12774627141E+03  0.15500000000E+01 0. -1.
         -4    1    3    3    0  501 -0.22616644766E+02  0.39368374254E+02 -0.45898778346E+00  0.45431208234E+02  0.15500000000E+01 0. -1.
<mgrwt>
<rscale>  2 0.12500120E+03</rscale>
<asrwt>0</asrwt>
<pdfrwt beam="1">  1       21 0.41017555E-02 0.12500120E+03</pdfrwt>
<pdfrwt beam="2">  1       21 0.22540934E-01 0.12500120E+03</pdfrwt>
<totfact> 0.67940871E+06</totfact>
</mgrwt>
</event>
<event>
 5    0  0.1452356E+000  0.1250029E+03  0.7546771E-02  0.1235065E+00
         21   -1    0    0  503  502  0.00000000000E+00  0.00000000000E+00  0.27576784387E+03  0.27576784387E+03  0.00000000000E+00 0.  1.
         21   -1    0    0  502  503 -0.00000000000E+00 -0.00000000000E+00 -0.14165643362E+02  0.14165643362E+02  0.00000000000E+00 0.  1.
         25    2    1    2    0    0  0.00000000000E+00  0.00000000000E+00  0.26160220051E+03  0.28993348723E+03  0.12500286280E+03 0.  0.
          4    1    3    3  501    0  0.20853624570E+02  0.53551918313E+02  0.18767856172E+03  0.19628633840E+03  0.15500000000E+01 0. -1.
         -4    1    3    3    0  501 -0.20853624570E+02 -0.53551918313E+02  0.73923638784E+02  0.93647148829E+02  0.15500000000E+01 0. -1.
<mgrwt>
<rscale>  2 0.12500286E+03</rscale>
<asrwt>0</asrwt>
<pdfrwt beam="1">  1       21 0.42425818E-01 0.12500286E+03</pdfrwt>
<pdfrwt beam="2">  1       21 0.21793299E-02 0.12500286E+03</pdfrwt>
<totfact> 0.56299205E+06</totfact>
</mgrwt>
</event>
<event>
 5    0  0.1574183E+000  0.1249995E+03  0.7546771E-02  0.1235070E+00
         21   -1    0    0  503  502  0.00000000000E+00  0.00000000000E+00  0.11015206306E+03  0.11015206306E+03  0.00000000000E+00 0.  1.
         21   -1    0    0  502  503 -0.00000000000E+00 -0.00000000000E+00 -0.35462068006E+02  0.35462068006E+02  0.00000000000E+00 0.  1.
         25    2    1    2    0    0  0.00000000000E+00  0.00000000000E+00  0.74689995050E+02  0.14561413106E+03  0.12499951922E+03 0.  0.
          4    1    3    3  501    0  0.33146528222E+02  0.23685795010E+02  0.92529493443E+02  0.10111290163E+03  0.15500000000E+01 0. -1.
         -4    1    3    3    0  501 -0.33146528222E+02 -0.23685795010E+02 -0.17839498393E+02  0.44501229436E+02  0.15500000000E+01 0. -1.
<mgrwt>
<rscale>  2 0.12499952E+03</rscale>
<asrwt>0</asrwt>
<pdfrwt beam="1">  1       21 0.16946471E-01 0.12499952E+03</pdfrwt>
<pdfrwt beam="2">  1       21 0.54557028E-02 0.12499952E+03</pdfrwt>
<totfact> 0.71315471E+06</totfact>
</mgrwt>
</event>
<event>
 5    0  0.1222151E+000  0.1250013E+03  0.7546771E-02  0.1235067E+00
         21   -1    0    0  503  502  0.00000000000E+00  0.00000000000E+00  0.75665404971E+02  0.75665404971E+02  0.00000000000E+00 0.  1.
         21   -1    0    0  502  503 -0.00000000000E+00 -0.00000000000E+00 -0.51626376446E+02  0.51626376446E+02  0.00000000000E+00 0.  1.
         25    2    1    2    0    0  0.00000000000E+00  0.00000000000E+00  0.24039028526E+02  0.12729178142E+03  0.12500129089E+03 0.  0.
          4    1    3    3  501    0  0.52293330270E+01 -0.23230525173E+02  0.70844128311E+02  0.74754907798E+02  0.15500000000E+01 0.  1.
         -4    1    3    3    0  501 -0.52293330270E+01  0.23230525173E+02 -0.46805099786E+02  0.52536873619E+02  0.15500000000E+01 0.  1.
<mgrwt>
<rscale>  2 0.12500129E+03</rscale>
<asrwt>0</asrwt>
<pdfrwt beam="1">  1       21 0.11640831E-01 0.12500129E+03</pdfrwt>
<pdfrwt beam="2">  1       21 0.79425195E-02 0.12500129E+03</pdfrwt>
<totfact> 0.73727038E+06</totfact>
</mgrwt>
</event>
<event>
 5    0  0.1401896E+000  0.1249920E+03  0.7546771E-02  0.1235082E+00
         21   -1    0    0  503  502  0.00000000000E+00  0.00000000000E+00  0.43834502647E+02  0.43834502647E+02  0.00000000000E+00 0. -1.
         21   -1    0    0  502  503 -0.00000000000E+00 -0.00000000000E+00 -0.89102243896E+02  0.89102243896E+02  0.00000000000E+00 0. -1.
         25    2    1    2    0    0  0.00000000000E+00  0.00000000000E+00 -0.45267741249E+02  0.13293674654E+03  0.12499204048E+03 0.  0.
          4    1    3    3  501    0  0.20977136932E+02 -0.20217575249E+02  0.36147130300E+02  0.46452213636E+02  0.15500000000E+01 0. -1.
         -4    1    3    3    0  501 -0.20977136932E+02  0.20217575249E+02 -0.81414871549E+02  0.86484532907E+02  0.15500000000E+01 0. -1.
<mgrwt>
<rscale>  2 0.12499204E+03</rscale>
<asrwt>0</asrwt>
<pdfrwt beam="1">  1       21 0.67437696E-02 0.12499204E+03</pdfrwt>
<pdfrwt beam="2">  1       21 0.13708038E-01 0.12499204E+03</pdfrwt>
<totfact> 0.72985664E+06</totfact>
</mgrwt>
</event>
<event>
 5    0  0.1463129E+000  0.1249981E+03  0.7546771E-02  0.1235072E+00
         21   -1    0    0  503  502  0.00000000000E+00  0.00000000000E+00  0.17664435331E+02  0.17664435331E+02  0.00000000000E+00 0. -1.
         21   -1    0    0  502  503 -0.00000000000E+00 -0.00000000000E+00 -0.22112961553E+03  0.22112961553E+03  0.00000000000E+00 0. -1.
         25    2    1    2    0    0  0.00000000000E+00  0.00000000000E+00 -0.20346518020E+03  0.23879405087E+03  0.12499807668E+03 0.  0.
          4    1    3    3  501    0  0.19920027954E+02 -0.19207464148E+02 -0.20874796184E+03  0.21057979074E+03  0.15500000000E+01 0.  1.
         -4    1    3    3    0  501 -0.19920027954E+02  0.19207464148E+02  0.52827816414E+01  0.28214260128E+02  0.15500000000E+01 0.  1.
<mgrwt>
<rscale>  2 0.12499808E+03</rscale>
<asrwt>0</asrwt>
<pdfrwt beam="1">  1       21 0.27176054E-02 0.12499808E+03</pdfrwt>
<pdfrwt beam="2">  1       21 0.34019941E-01 0.12499808E+03</pdfrwt>
<totfact> 0.60952512E+06</totfact>
</mgrwt>
</event>
<event>
 5    0  0.1494254E+000  0.1250113E+03  0.7546771E-02  0.1235052E+00
         21   -1    0    0  503  502  0.00000000000E+00  0.00000000000E+00  0.80459768980E+02  0.80459768980E+02  0.00000000000E+00 0. -1.
         21   -1    0    0  502  503 -0.00000000000E+00 -0.00000000000E+00 -0.48557860304E+02  0.48557860304E+02  0.00000000000E+00 0. -1.
         25    2    1    2    0    0  0.00000000000E+00  0.00000000000E+00  0.31901908676E+02  0.12901762928E+03  0.12501126705E+03 0.  0.
          4    1    3    3  501    0  0.34445453906E+02 -0.29983628965E+02 -0.28066158482E+02  0.53624798859E+02  0.15500000000E+01 0. -1.
         -4    1    3    3    0  501 -0.34445453906E+02  0.29983628965E+02  0.59968067158E+02  0.75392830425E+02  0.15500000000E+01 0. -1.
<mgrwt>
<rscale>  2 0.12501127E+03</rscale>
<asrwt>0</asrwt>
<pdfrwt beam="1">  1       21 0.12378426E-01 0.12501127E+03</pdfrwt>
<pdfrwt beam="2">  1       21 0.74704401E-02 0.12501127E+03</pdfrwt>
<totfact> 0.73475375E+06</totfact>
</mgrwt>
</event>
<event>
 5    0  0.1552873E+000  0.1249906E+03  0.7546771E-02  0.1235084E+00
         21   -1    0    0  503  502  0.00000000000E+00  0.00000000000E+00  0.10413602384E+03  0.10413602384E+03  0.00000000000E+00 0.  1.
         21   -1    0    0  502  503 -0.00000000000E+00 -0.00000000000E+00 -0.37505370820E+02  0.37505370820E+02  0.00000000000E+00 0.  1.
         25    2    1    2    0    0  0.00000000000E+00  0.00000000000E+00  0.66630653016E+02  0.14164139466E+03  0.12499056268E+03 0.  0.
          4    1    3    3  501    0 -0.39236539127E+02  0.47994550023E+02  0.24517385234E+02  0.66681987922E+02  0.15500000000E+01 0. -1.
         -4    1    3    3    0  501  0.39236539127E+02 -0.47994550023E+02  0.42113267783E+02  0.74959406734E+02  0.15500000000E+01 0. -1.
<mgrwt>
<rscale>  2 0.12499056E+03</rscale>
<asrwt>0</asrwt>
<pdfrwt beam="1">  1       21 0.16020927E-01 0.12499056E+03</pdfrwt>
<pdfrwt beam="2">  1       21 0.57700571E-02 0.12499056E+03</pdfrwt>
<totfact> 0.71843016E+06</totfact>
</mgrwt>
</event>
<event>
 5    0  0.1281376E+000  0.1249984E+03  0.7546771E-02  0.1235072E+00
         21   -1    0    0  503  502  0.00000000000E+00  0.00000000000E+00  0.54286082322E+03  0.54286082322E+03  0.00000000000E+00 0.  1.
         21   -1    0    0  502  503 -0.00000000000E+00 -0.00000000000E+00 -0.71954874847E+01  0.71954874847E+01  0.00000000000E+00 0.  1.
         25    2    1    2    0    0  0.00000000000E+00  0.00000000000E+00  0.53566533574E+03  0.55005631071E+03  0.12499837214E+03 0.  0.
          4    1    3    3  501    0 -0.41477124541E+02 -0.19067473908E+02  0.80109597781E+02  0.92216433340E+02  0.15500000000E+01 0.  1.
         -4    1    3    3    0  501  0.41477124541E+02  0.19067473908E+02  0.45555573796E+03  0.45783987737E+03  0.15500000000E+01 0.  1.
<mgrwt>
<rscale>  2 0.12499837E+03</rscale>
<asrwt>0</asrwt>
<pdfrwt beam="1">  1       21 0.83517018E-01 0.12499837E+03</pdfrwt>
<pdfrwt beam="2">  1       21 0.11069985E-02 0.12499837E+03</pdfrwt>
<totfact> 0.39454900E+06</totfact>
</mgrwt>
</event>
<event>
 5    0  0.1222151E+000  0.1249967E+03  0.7546771E-02  0.1235074E+00
         21   -1    0    0  503  502  0.00000000000E+00  0.00000000000E+00  0.10037041474E+04  0.10037041474E+04  0.00000000000E+00 0.  1.
         21   -1    0    0  502  503 -0.00000000000E+00 -0.00000000000E+00 -0.38916278109E+01  0.38916278109E+01  0.00000000000E+00 0.  1.
         25    2    1    2    0    0  0.00000000000E+00  0.00000000000E+00  0.99981251958E+03  0.10075957752E+04  0.12499668754E+03 0.  0.
          4    1    3    3  501    0  0.44913877844E+02  0.94673360905E+01  0.15821639629E+03  0.16474743528E+03  0.15500000000E+01 0.  1.
         -4    1    3    3    0  501 -0.44913877844E+02 -0.94673360905E+01  0.84159612329E+03  0.84284833992E+03  0.15500000000E+01 0.  1.
<mgrwt>
<rscale>  2 0.12499669E+03</rscale>
<asrwt>0</asrwt>
<pdfrwt beam="1">  1       21 0.15441582E+00 0.12499669E+03</pdfrwt>
<pdfrwt beam="2">  1       21 0.59871277E-03 0.12499669E+03</pdfrwt>
<totfact> 0.23431879E+06</totfact>
</mgrwt>
</event>
<event>
 5    0  0.1489129E+000  0.1250025E+03  0.7546771E-02  0.1235065E+00
         21   -1    0    0  503  502  0.00000000000E+00  0.00000000000E+00  0.19299085209E+02  0.19299085209E+02  0.00000000000E+00 0. -1.
         21   -1    0    0  502  503 -0.00000000000E+00 -0.00000000000E+00 -0.20241392865E+03  0.20241392865E+03  0.00000000000E+00 0. -1.
         25    2    1    2    0    0  0.00000000000E+00  0.00000000000E+00 -0.18311484344E+03  0.22171301386E+03  0.12500245848E+03 0.  0.
          4    1    3    3  501    0 -0.38075970125E+02 -0.28373944921E+02 -0.16358544778E+03  0.17034512460E+03  0.15500000000E+01 0.  1.
         -4    1    3    3    0  501  0.38075970125E+02  0.28373944921E+02 -0.19529395660E+02  0.51367889252E+02  0.15500000000E+01 0.  1.
<mgrwt>
<rscale>  2 0.12500246E+03</rscale>
<asrwt>0</asrwt>
<pdfrwt beam="1">  1       21 0.29690899E-02 0.12500246E+03</pdfrwt>
<pdfrwt beam="2">  1       21 0.31140605E-01 0.12500246E+03</pdfrwt>
<totfact> 0.62643978E+06</totfact>
</mgrwt>
</event>
<event>
 5    0  0.1472863E+000  0.1250049E+03  0.7546771E-02  0.1235062E+00
         21   -1    0    0  503  502  0.00000000000E+00  0.00000000000E+00  0.19693503631E+02  0.19693503631E+02  0.00000000000E+00 0. -1.
         21   -1    0    0  502  503 -0.00000000000E+00 -0.00000000000E+00 -0.19836771502E+03  0.19836771502E+03  0.00000000000E+00 0. -1.
         25    2    1    2    0    0  0.00000000000E+00  0.00000000000E+00 -0.17867421139E+03  0.21806121865E+03  0.12500488496E+03 0.  0.
          4    1    3    3  501    0  0.75417501485E+01 -0.38346601593E+02 -0.17438213872E+03  0.17871450040E+03  0.15500000000E+01 0.  1.
         -4    1    3    3    0  501 -0.75417501485E+01  0.38346601593E+02 -0.42920726671E+01  0.39346718247E+02  0.15500000000E+01 0.  1.
<mgrwt>
<rscale>  2 0.12500488E+03</rscale>
<asrwt>0</asrwt>
<pdfrwt beam="1">  1       21 0.30297697E-02 0.12500488E+03</pdfrwt>
<pdfrwt beam="2">  1       21 0.30518111E-01 0.12500488E+03</pdfrwt>
<totfact> 0.63013474E+06</totfact>
</mgrwt>
</event>
<event>
 5    0  0.1588816E+000  0.1249974E+03  0.7546771E-02  0.1235073E+00
         21   -1    0    0  503  502  0.00000000000E+00  0.00000000000E+00  0.15105149138E+02  0.15105149138E+02  0.00000000000E+00 0. -1.
         21   -1    0    0  502  503 -0.00000000000E+00 -0.00000000000E+00 -0.25859294901E+03  0.25859294901E+03  0.00000000000E+00 0. -1.
         25    2    1    2    0    0  0.00000000000E+00  0.00000000000E+00 -0.24348779988E+03  0.27369809815E+03  0.12499736095E+03 0.  0.
          4    1    3    3  501    0  0.32623081198E+02  0.53022267529E+02 -0.13334197675E+03  0.14716695126E+03  0.15500000000E+01 0.  1.
         -4    1    3    3    0  501 -0.32623081198E+02 -0.53022267529E+02 -0.11014582313E+03  0.12653114689E+03  0.15500000000E+01 0.  1.
<mgrwt>
<rscale>  2 0.12499736E+03</rscale>
<asrwt>0</asrwt>
<pdfrwt beam="1">  1       21 0.23238691E-02 0.12499736E+03</pdfrwt>
<pdfrwt beam="2">  1       21 0.39783531E-01 0.12499736E+03</pdfrwt>
<totfact> 0.57719165E+06</totfact>
</mgrwt>
</event>
<event>
 5    0  0.1353612E+000  0.1250123E+03  0.7546771E-02  0.1235050E+00
         21   -1    0    0  503  502  0.00000000000E+00  0.00000000000E+00  0.10062662557E+02  0.10062662557E+02  0.00000000000E+00 0. -1.
         21   -1    0    0  502  503 -0.00000000000E+00 -0.00000000000E+00 -0.38826858297E+03  0.38826858297E+03  0.00000000000E+00 0. -1.
         25    2    1    2    0    0  0.00000000000E+00  0.00000000000E+00 -0.37820592041E+03  0.39833124553E+03  0.12501225111E+03 0.  0.
          4    1    3    3  501    0 -0.30003939131E+02  0.38117404818E+02 -0.31460747106E+03  0.31832913197E+03  0.15500000000E+01 0. -1.
         -4    1    3    3    0  501  0.30003939131E+02 -0.38117404818E+02 -0.63598449351E+02  0.80002113555E+02  0.15500000000E+01 0. -1.
<mgrwt>
<rscale>  2 0.12501225E+03</rscale>
<asrwt>0</asrwt>
<pdfrwt beam="1">  1       21 0.15481020E-02 0.12501225E+03</pdfrwt>
<pdfrwt beam="2">  1       21 0.59733626E-01 0.12501225E+03</pdfrwt>
<totfact> 0.48137493E+06</totfact>
</mgrwt>
</event>
<event>
 5    0  0.1529249E+000  0.1249736E+03  0.7546771E-02  0.1235110E+00
         21   -1    0    0  503  502  0.00000000000E+00  0.00000000000E+00  0.40007046392E+02  0.40007046392E+02  0.00000000000E+00 0.  1.
         21   -1    0    0  502  503 -0.00000000000E+00 -0.00000000000E+00 -0.97597882490E+02  0.97597882490E+02  0.00000000000E+00 0.  1.
         25    2    1    2    0    0  0.00000000000E+00  0.00000000000E+00 -0.57590836098E+02  0.13760492888E+03  0.12497364542E+03 0.  0.
          4    1    3    3  501    0 -0.45085942374E+02  0.13166009948E+02  0.16551015387E+02  0.49823936296E+02  0.15500000000E+01 0.  1.
         -4    1    3    3    0  501  0.45085942374E+02 -0.13166009948E+02 -0.74141851484E+02  0.87780992585E+02  0.15500000000E+01 0.  1.
<mgrwt>
<rscale>  2 0.12497365E+03</rscale>
<asrwt>0</asrwt>
<pdfrwt beam="1">  1       21 0.61549303E-02 0.12497365E+03</pdfrwt>
<pdfrwt beam="2">  1       21 0.15015059E-01 0.12497365E+03</pdfrwt>
<totfact> 0.72402008E+06</totfact>
</mgrwt>
</event>
<event>
 5    0  0.1380211E+000  0.1250016E+03  0.7546771E-02  0.1235067E+00
         21   -1    0    0  503  502  0.00000000000E+00  0.00000000000E+00  0.11000045380E+02  0.11000045380E+02  0.00000000000E+00 0. -1.
         21   -1    0    0  502  503 -0.00000000000E+00 -0.00000000000E+00 -0.35512134508E+03  0.35512134508E+03  0.00000000000E+00 0. -1.
         25    2    1    2    0    0  0.00000000000E+00  0.00000000000E+00 -0.34412129970E+03  0.36612139046E+03  0.12500161457E+03 0.  0.
          4    1    3    3  501    0  0.27801875502E+02 -0.13962863218E+02 -0.33076566664E+03  0.33222918980E+03  0.15500000000E+01 0.  1.
         -4    1    3    3    0  501 -0.27801875502E+02  0.13962863218E+02 -0.13355633057E+02  0.33892200652E+02  0.15500000000E+01 0.  1.
<mgrwt>
<rscale>  2 0.12500161E+03</rscale>
<asrwt>0</asrwt>
<pdfrwt beam="1">  1       21 0.16923145E-02 0.12500161E+03</pdfrwt>
<pdfrwt beam="2">  1       21 0.54634058E-01 0.12500161E+03</pdfrwt>
<totfact> 0.50367379E+06</totfact>
</mgrwt>
</event>
<event>
 5    0  0.1222151E+000  0.1250058E+03  0.7546771E-02  0.1235060E+00
         21   -1    0    0  503  502  0.00000000000E+00  0.00000000000E+00  0.97104381034E+03  0.97104381034E+03  0.00000000000E+00 0.  1.
         21   -1    0    0  502  503 -0.00000000000E+00 -0.00000000000E+00 -0.40231078061E+01  0.40231078061E+01  0.00000000000E+00 0.  1.
         25    2    1    2    0    0  0.00000000000E+00  0.00000000000E+00  0.96702070254E+03  0.97506691815E+03  0.12500582280E+03 0.  0.
          4    1    3    3  501    0 -0.62199433843E+02  0.58664534594E+01  0.47560716812E+03  0.47969549269E+03  0.15500000000E+01 0.  1.
         -4    1    3    3    0  501  0.62199433843E+02 -0.58664534594E+01  0.49141353442E+03  0.49537142545E+03  0.15500000000E+01 0.  1.
<mgrwt>
<rscale>  2 0.12500582E+03</rscale>
<asrwt>0</asrwt>
<pdfrwt beam="1">  1       21 0.14939117E+00 0.12500582E+03</pdfrwt>
<pdfrwt beam="2">  1       21 0.61894043E-03 0.12500582E+03</pdfrwt>
<totfact> 0.24248606E+06</totfact>
</mgrwt>
</event>
<event>
 5    0  0.1222151E+000  0.1250342E+03  0.7546771E-02  0.1235016E+00
         21   -1    0    0  503  502  0.00000000000E+00  0.00000000000E+00  0.80929730345E+03  0.80929730345E+03  0.00000000000E+00 0.  1.
         21   -1    0    0  502  503 -0.00000000000E+00 -0.00000000000E+00 -0.48293590894E+01  0.48293590894E+01  0.00000000000E+00 0.  1.
         25    2    1    2    0    0  0.00000000000E+00  0.00000000000E+00  0.80446794436E+03  0.81412666254E+03  0.12503419194E+03 0.  0.
          4    1    3    3  501    0 -0.34142043393E+02 -0.28129045307E+01  0.74259105023E+03  0.74338244662E+03  0.15500000000E+01 0. -1.
         -4    1    3    3    0  501  0.34142043393E+02  0.28129045307E+01  0.61876894126E+02  0.70744215916E+02  0.15500000000E+01 0. -1.
<mgrwt>
<rscale>  2 0.12503419E+03</rscale>
<asrwt>0</asrwt>
<pdfrwt beam="1">  1       21 0.12450717E+00 0.12503419E+03</pdfrwt>
<pdfrwt beam="2">  1       21 0.74297896E-03 0.12503419E+03</pdfrwt>
<totfact> 0.28875648E+06</totfact>
</mgrwt>
</event>
<event>
 5    0  0.1528367E+000  0.1249988E+03  0.7546771E-02  0.1235071E+00
         21   -1    0    0  503  502  0.00000000000E+00  0.00000000000E+00  0.18108148111E+03  0.18108148111E+03  0.00000000000E+00 0.  1.
         21   -1    0    0  502  503 -0.00000000000E+00 -0.00000000000E+00 -0.21571365632E+02  0.21571365632E+02  0.00000000000E+00 0.  1.
         25    2    1    2    0    0  0.00000000000E+00  0.00000000000E+00  0.15951011548E+03  0.20265284674E+03  0.12499879741E+03 0.  0.
          4    1    3    3  501    0 -0.50304585215E+02  0.30770512699E+02  0.11323261310E+03  0.12767694747E+03  0.15500000000E+01 0. -1.
         -4    1    3    3    0  501  0.50304585215E+02 -0.30770512699E+02  0.46277502374E+02  0.74975899270E+02  0.15500000000E+01 0. -1.
<mgrwt>
<rscale>  2 0.12499880E+03</rscale>
<asrwt>0</asrwt>
<pdfrwt beam="1">  1       21 0.27858688E-01 0.12499880E+03</pdfrwt>
<pdfrwt beam="2">  1       21 0.33186718E-02 0.12499880E+03</pdfrwt>
<totfact> 0.64642895E+06</totfact>
</mgrwt>
</event>
<event>
 5    0  0.1383974E+000  0.1250100E+03  0.7546771E-02  0.1235054E+00
         21   -1    0    0  503  502  0.00000000000E+00  0.00000000000E+00  0.40363076746E+03  0.40363076746E+03  0.00000000000E+00 0.  1.
         21   -1    0    0  502  503 -0.00000000000E+00 -0.00000000000E+00 -0.96793268515E+01  0.96793268515E+01  0.00000000000E+00 0.  1.
         25    2    1    2    0    0  0.00000000000E+00  0.00000000000E+00  0.39395144061E+03  0.41331009431E+03  0.12500998561E+03 0.  0.
          4    1    3    3  501    0  0.19663158803E+02  0.59178167408E+02  0.21010781704E+03  0.21917206161E+03  0.15500000000E+01 0.  1.
         -4    1    3    3    0  501 -0.19663158803E+02 -0.59178167408E+02  0.18384362357E+03  0.19413803270E+03  0.15500000000E+01 0.  1.
<mgrwt>
<rscale>  2 0.12500999E+03</rscale>
<asrwt>0</asrwt>
<pdfrwt beam="1">  1       21 0.62097028E-01 0.12500999E+03</pdfrwt>
<pdfrwt beam="2">  1       21 0.14891275E-02 0.12500999E+03</pdfrwt>
<totfact> 0.47159099E+06</totfact>
</mgrwt>
</event>
<event>
 5    0  0.1520963E+000  0.1250012E+03  0.7546771E-02  0.1235067E+00
         21   -1    0    0  503  502  0.00000000000E+00  0.00000000000E+00  0.30266781406E+02  0.30266781406E+02  0.00000000000E+00 0. -1.
         21   -1    0    0  502  503 -0.00000000000E+00 -0.00000000000E+00 -0.12906307467E+03  0.12906307467E+03  0.00000000000E+00 0. -1.
         25    2    1    2    0    0  0.00000000000E+00  0.00000000000E+00 -0.98796293269E+02  0.15932985608E+03  0.12500118189E+03 0.  0.
          4    1    3    3  501    0 -0.20441356992E+02 -0.35368176750E+02 -0.10965934684E+03  0.11703132850E+03  0.15500000000E+01 0.  1.
         -4    1    3    3    0  501  0.20441356992E+02  0.35368176750E+02  0.10863053570E+02  0.42298527576E+02  0.15500000000E+01 0.  1.
<mgrwt>
<rscale>  2 0.12500118E+03</rscale>
<asrwt>0</asrwt>
<pdfrwt beam="1">  1       21 0.46564279E-02 0.12500118E+03</pdfrwt>
<pdfrwt beam="2">  1       21 0.19855857E-01 0.12500118E+03</pdfrwt>
<totfact> 0.69599382E+06</totfact>
</mgrwt>
</event>
<event>
 5    0  0.1256339E+000  0.1249944E+03  0.7546771E-02  0.1235078E+00
         21   -1    0    0  503  502  0.00000000000E+00  0.00000000000E+00  0.60396132213E+03  0.60396132213E+03  0.00000000000E+00 0.  1.
         21   -1    0    0  502  503 -0.00000000000E+00 -0.00000000000E+00 -0.64671354919E+01  0.64671354919E+01  0.00000000000E+00 0.  1.
         25    2    1    2    0    0  0.00000000000E+00  0.00000000000E+00  0.59749418663E+03  0.61042845762E+03  0.12499439511E+03 0.  0.
          4    1    3    3  501    0 -0.18732278292E+02  0.49331930616E+02  0.13538494694E+03  0.14531353683E+03  0.15500000000E+01 0.  1.
         -4    1    3    3    0  501  0.18732278292E+02 -0.49331930616E+02  0.46210923970E+03  0.46511492079E+03  0.15500000000E+01 0.  1.
<mgrwt>
<rscale>  2 0.12499440E+03</rscale>
<asrwt>0</asrwt>
<pdfrwt beam="1">  1       21 0.92917082E-01 0.12499440E+03</pdfrwt>
<pdfrwt beam="2">  1       21 0.99494440E-03 0.12499440E+03</pdfrwt>
<totfact> 0.36630335E+06</totfact>
</mgrwt>
</event>
<event>
 5    0  0.1608320E+000  0.1250021E+03  0.7546771E-02  0.1235066E+00
         21   -1    0    0  503  502  0.00000000000E+00  0.00000000000E+00  0.36668245265E+02  0.36668245265E+02  0.00000000000E+00 0. -1.
         21   -1    0    0  502  503 -0.00000000000E+00 -0.00000000000E+00 -0.10653314469E+03  0.10653314469E+03  0.00000000000E+00 0. -1.
         25    2    1    2    0    0  0.00000000000E+00  0.00000000000E+00 -0.69864899420E+02  0.14320138995E+03  0.12500213563E+03 0.  0.
          4    1    3    3  501    0 -0.27760981020E+02 -0.49742508972E+02 -0.64340740013E+02  0.85948371662E+02  0.15500000000E+01 0.  1.
         -4    1    3    3    0  501  0.27760981020E+02  0.49742508972E+02 -0.55241594068E+01  0.57253018288E+02  0.15500000000E+01 0.  1.
<mgrwt>
<rscale>  2 0.12500214E+03</rscale>
<asrwt>0</asrwt>
<pdfrwt beam="1">  1       21 0.56412685E-02 0.12500214E+03</pdfrwt>
<pdfrwt beam="2">  1       21 0.16389715E-01 0.12500214E+03</pdfrwt>
<totfact> 0.71620183E+06</totfact>
</mgrwt>
</event>
<event>
 5    0  0.1232189E+000  0.1249998E+03  0.7546771E-02  0.1235070E+00
         21   -1    0    0  503  502  0.00000000000E+00  0.00000000000E+00  0.92050751816E+03  0.92050751816E+03  0.00000000000E+00 0.  1.
         21   -1    0    0  502  503 -0.00000000000E+00 -0.00000000000E+00 -0.42435688509E+01  0.42435688509E+01  0.00000000000E+00 0.  1.
         25    2    1    2    0    0  0.00000000000E+00  0.00000000000E+00  0.91626394931E+03  0.92475108701E+03  0.12499979250E+03 0.  0.
          4    1    3    3  501    0 -0.10619377261E+02 -0.54962139613E+02  0.25281502398E+03  0.25894294124E+03  0.15500000000E+01 0. -1.
         -4    1    3    3    0  501  0.10619377261E+02  0.54962139613E+02  0.66344892533E+03  0.66580814578E+03  0.15500000000E+01 0. -1.
<mgrwt>
<rscale>  2 0.12499979E+03</rscale>
<asrwt>0</asrwt>
<pdfrwt beam="1">  1       21 0.14161638E+00 0.12499979E+03</pdfrwt>
<pdfrwt beam="2">  1       21 0.65285748E-03 0.12499979E+03</pdfrwt>
<totfact> 0.25599965E+06</totfact>
</mgrwt>
</event>
<event>
 5    0  0.1572331E+000  0.1250408E+03  0.7546771E-02  0.1235005E+00
         21   -1    0    0  503  502  0.00000000000E+00  0.00000000000E+00  0.97845184860E+02  0.97845184860E+02  0.00000000000E+00 0.  1.
         21   -1    0    0  502  503 -0.00000000000E+00 -0.00000000000E+00 -0.39948848059E+02  0.39948848059E+02  0.00000000000E+00 0.  1.
         25    2    1    2    0    0  0.00000000000E+00  0.00000000000E+00  0.57896336802E+02  0.13779403292E+03  0.12504083210E+03 0.  0.
          4    1    3    3  501    0  0.13785496942E+02 -0.58916309813E+02  0.46205115574E+02  0.76147795064E+02  0.15500000000E+01 0.  1.
         -4    1    3    3    0  501 -0.13785496942E+02  0.58916309813E+02  0.11691221228E+02  0.61646237855E+02  0.15500000000E+01 0.  1.
<mgrwt>
<rscale>  2 0.12504083E+03</rscale>
<asrwt>0</asrwt>
<pdfrwt beam="1">  1       21 0.15053105E-01 0.12504083E+03</pdfrwt>
<pdfrwt beam="2">  1       21 0.61459767E-02 0.12504083E+03</pdfrwt>
<totfact> 0.72253336E+06</totfact>
</mgrwt>
</event>
<event>
 5    0  0.1477376E+000  0.1249990E+03  0.7546771E-02  0.1235071E+00
         21   -1    0    0  503  502  0.00000000000E+00  0.00000000000E+00  0.21917709176E+03  0.21917709176E+03  0.00000000000E+00 0.  1.
         21   -1    0    0  502  503 -0.00000000000E+00 -0.00000000000E+00 -0.17822049715E+02  0.17822049715E+02  0.00000000000E+00 0.  1.
         25    2    1    2    0    0  0.00000000000E+00  0.00000000000E+00  0.20135504205E+03  0.23699914148E+03  0.12499896041E+03 0.  0.
          4    1    3    3  501    0 -0.46808236387E+02  0.32745596062E+02  0.14866181191E+03  0.15926713998E+03  0.15500000000E+01 0.  1.
         -4    1    3    3    0  501  0.46808236387E+02 -0.32745596062E+02  0.52693230133E+02  0.77732001499E+02  0.15500000000E+01 0.  1.
<mgrwt>
<rscale>  2 0.12499896E+03</rscale>
<asrwt>0</asrwt>
<pdfrwt beam="1">  1       21 0.33719551E-01 0.12499896E+03</pdfrwt>
<pdfrwt beam="2">  1       21 0.27418540E-02 0.12499896E+03</pdfrwt>
<totfact> 0.61125868E+06</totfact>
</mgrwt>
</event>
<event>
 5    0  0.1307682E+000  0.1249985E+03  0.7546771E-02  0.1235072E+00
         21   -1    0    0  503  502  0.00000000000E+00  0.00000000000E+00  0.44723336086E+03  0.44723336086E+03  0.00000000000E+00 0. -1.
         21   -1    0    0  502  503 -0.00000000000E+00 -0.00000000000E+00 -0.87340485848E+01  0.87340485848E+01  0.00000000000E+00 0. -1.
         25    2    1    2    0    0  0.00000000000E+00  0.00000000000E+00  0.43849931227E+03  0.45596740944E+03  0.12499852643E+03 0.  0.
          4    1    3    3  501    0  0.31062048693E+02 -0.32314460859E+02  0.60469267012E+02  0.75286187330E+02  0.15500000000E+01 0.  1.
         -4    1    3    3    0  501 -0.31062048693E+02  0.32314460859E+02  0.37803004526E+03  0.38068122211E+03  0.15500000000E+01 0.  1.
<mgrwt>
<rscale>  2 0.12499853E+03</rscale>
<asrwt>0</asrwt>
<pdfrwt beam="1">  1       21 0.68805114E-01 0.12499853E+03</pdfrwt>
<pdfrwt beam="2">  1       21 0.13437001E-02 0.12499853E+03</pdfrwt>
<totfact> 0.44538976E+06</totfact>
</mgrwt>
</event>
<event>
 5    0  0.1511945E+000  0.1250449E+03  0.7546771E-02  0.1234999E+00
         21   -1    0    0  503  502  0.00000000000E+00  0.00000000000E+00  0.21100922972E+03  0.21100922972E+03  0.00000000000E+00 0. -1.
         21   -1    0    0  502  503 -0.00000000000E+00 -0.00000000000E+00 -0.18525512139E+02  0.18525512139E+02  0.00000000000E+00 0. -1.
         25    2    1    2    0    0  0.00000000000E+00  0.00000000000E+00  0.19248371758E+03  0.22953474186E+03  0.12504485670E+03 0.  0.
          4    1    3    3  501    0 -0.31452436042E+02  0.53059483061E+02  0.77695102426E+02  0.99214393697E+02  0.15500000000E+01 0.  1.
         -4    1    3    3    0  501  0.31452436042E+02 -0.53059483061E+02  0.11478861515E+03  0.13032034816E+03  0.15500000000E+01 0.  1.
<mgrwt>
<rscale>  2 0.12504486E+03</rscale>
<asrwt>0</asrwt>
<pdfrwt beam="1">  1       21 0.32462957E-01 0.12504486E+03</pdfrwt>
<pdfrwt beam="2">  1       21 0.28500789E-02 0.12504486E+03</pdfrwt>
<totfact> 0.61790311E+06</totfact>
</mgrwt>
</event>
<event>
 5    0  0.1548222E+000  0.1250092E+03  0.7546771E-02  0.1235055E+00
         21   -1    0    0  503  502  0.00000000000E+00  0.00000000000E+00  0.23576683683E+02  0.23576683683E+02  0.00000000000E+00 0. -1.
         21   -1    0    0  502  503 -0.00000000000E+00 -0.00000000000E+00 -0.16570712300E+03  0.16570712300E+03  0.00000000000E+00 0. -1.
         25    2    1    2    0    0  0.00000000000E+00  0.00000000000E+00 -0.14213043932E+03  0.18928380668E+03  0.12500919043E+03 0.  0.
          4    1    3    3  501    0 -0.46044864718E+02  0.39502081111E+02 -0.48409535912E+02  0.77630082096E+02  0.15500000000E+01 0. -1.
         -4    1    3    3    0  501  0.46044864718E+02 -0.39502081111E+02 -0.93720903404E+02  0.11165372459E+03  0.15500000000E+01 0. -1.
<mgrwt>
<rscale>  2 0.12500919E+03</rscale>
<asrwt>0</asrwt>
<pdfrwt beam="1">  1       21 0.36271820E-02 0.12500919E+03</pdfrwt>
<pdfrwt beam="2">  1       21 0.25493404E-01 0.12500919E+03</pdfrwt>
<totfact> 0.66086756E+06</totfact>
</mgrwt>
</event>
<event>
 5    0  0.1394301E+000  0.1250095E+03  0.7546771E-02  0.1235054E+00
         21   -1    0    0  503  502  0.00000000000E+00  0.00000000000E+00  0.11243525324E+02  0.11243525324E+02  0.00000000000E+00 0. -1.
         21   -1    0    0  502  503 -0.00000000000E+00 -0.00000000000E+00 -0.34747493137E+03  0.34747493137E+03  0.00000000000E+00 0. -1.
         25    2    1    2    0    0  0.00000000000E+00  0.00000000000E+00 -0.33623140604E+03  0.35871845669E+03  0.12500949068E+03 0.  0.
          4    1    3    3  501    0 -0.44043672172E+02  0.44106917463E+01 -0.41558657178E+02  0.60735687586E+02  0.15500000000E+01 0.  1.
         -4    1    3    3    0  501  0.44043672172E+02 -0.44106917463E+01 -0.29467274886E+03  0.29798276911E+03  0.15500000000E+01 0.  1.
<mgrwt>
<rscale>  2 0.12500949E+03</rscale>
<asrwt>0</asrwt>
<pdfrwt beam="1">  1       21 0.17297732E-02 0.12500949E+03</pdfrwt>
<pdfrwt beam="2">  1       21 0.53457679E-01 0.12500949E+03</pdfrwt>
<totfact> 0.50888832E+06</totfact>
</mgrwt>
</event>
<event>
 5    0  0.1222151E+000  0.1250025E+03  0.7546771E-02  0.1235065E+00
         21   -1    0    0  503  502  0.00000000000E+00  0.00000000000E+00  0.69847236886E+03  0.69847236886E+03  0.00000000000E+00 0.  1.
         21   -1    0    0  502  503 -0.00000000000E+00 -0.00000000000E+00 -0.55927859632E+01  0.55927859632E+01  0.00000000000E+00 0.  1.
         25    2    1    2    0    0  0.00000000000E+00  0.00000000000E+00  0.69287958289E+03  0.70406515482E+03  0.12500250334E+03 0.  0.
          4    1    3    3  501    0  0.53334026275E+02 -0.95619261141E+01  0.52168421010E+03  0.52449286588E+03  0.15500000000E+01 0.  1.
         -4    1    3    3    0  501 -0.53334026275E+02  0.95619261141E+01  0.17119537279E+03  0.17957228894E+03  0.15500000000E+01 0.  1.
<mgrwt>
<rscale>  2 0.12500250E+03</rscale>
<asrwt>0</asrwt>
<pdfrwt beam="1">  1       21 0.10745722E+00 0.12500250E+03</pdfrwt>
<pdfrwt beam="2">  1       21 0.86042916E-03 0.12500250E+03</pdfrwt>
<totfact> 0.32751987E+06</totfact>
</mgrwt>
</event>
<event>
 5    0  0.1222151E+000  0.1250082E+03  0.7546771E-02  0.1235056E+00
         21   -1    0    0  503  502  0.00000000000E+00  0.00000000000E+00  0.26819600411E+01  0.26819600411E+01  0.00000000000E+00 0.  1.
         21   -1    0    0  502  503 -0.00000000000E+00 -0.00000000000E+00 -0.14566824091E+04  0.14566824091E+04  0.00000000000E+00 0.  1.
         25    2    1    2    0    0  0.00000000000E+00  0.00000000000E+00 -0.14540004491E+04  0.14593643692E+04  0.12500822395E+03 0.  0.
          4    1    3    3  501    0 -0.31902891291E+02  0.46019142086E+02 -0.10506933108E+04  0.10521855311E+04  0.15500000000E+01 0. -1.
         -4    1    3    3    0  501  0.31902891291E+02 -0.46019142086E+02 -0.40330713828E+03  0.40717883810E+03  0.15500000000E+01 0. -1.
<mgrwt>
<rscale>  2 0.12500822E+03</rscale>
<asrwt>0</asrwt>
<pdfrwt beam="1">  1       21 0.41260872E-03 0.12500822E+03</pdfrwt>
<pdfrwt beam="2">  1       21 0.22410526E+00 0.12500822E+03</pdfrwt>
<totfact> 0.14603158E+06</totfact>
</mgrwt>
</event>
<event>
 5    0  0.1362568E+000  0.1250070E+03  0.7546771E-02  0.1235058E+00
         21   -1    0    0  503  502  0.00000000000E+00  0.00000000000E+00  0.20079966150E+02  0.20079966150E+02  0.00000000000E+00 0. -1.
         21   -1    0    0  502  503 -0.00000000000E+00 -0.00000000000E+00 -0.19455635633E+03  0.19455635633E+03  0.00000000000E+00 0. -1.
         25    2    1    2    0    0  0.00000000000E+00  0.00000000000E+00 -0.17447639018E+03  0.21463632248E+03  0.12500696060E+03 0.  0.
          4    1    3    3  501    0  0.49227025892E+02 -0.73515746051E+00 -0.21174216676E+02  0.53615207605E+02  0.15500000000E+01 0. -1.
         -4    1    3    3    0  501 -0.49227025892E+02  0.73515746051E+00 -0.15330217350E+03  0.16102111488E+03  0.15500000000E+01 0. -1.
<mgrwt>
<rscale>  2 0.12500696E+03</rscale>
<asrwt>0</asrwt>
<pdfrwt beam="1">  1       21 0.30892256E-02 0.12500696E+03</pdfrwt>
<pdfrwt beam="2">  1       21 0.29931747E-01 0.12500696E+03</pdfrwt>
<totfact> 0.63363866E+06</totfact>
</mgrwt>
</event>
<event>
 5    0  0.1568397E+000  0.1250001E+03  0.7546771E-02  0.1235069E+00
         21   -1    0    0  503  502  0.00000000000E+00  0.00000000000E+00  0.37952551827E+02  0.37952551827E+02  0.00000000000E+00 0. -1.
         21   -1    0    0  502  503 -0.00000000000E+00 -0.00000000000E+00 -0.10292481356E+03  0.10292481356E+03  0.00000000000E+00 0. -1.
         25    2    1    2    0    0  0.00000000000E+00  0.00000000000E+00 -0.64972261736E+02  0.14087736539E+03  0.12500014914E+03 0.  0.
          4    1    3    3  501    0  0.16079080545E+02 -0.53933211745E+02 -0.63072330277E+02  0.84544955538E+02  0.15500000000E+01 0.  1.
         -4    1    3    3    0  501 -0.16079080545E+02  0.53933211745E+02 -0.18999314588E+01  0.56332409853E+02  0.15500000000E+01 0.  1.
<mgrwt>
<rscale>  2 0.12500015E+03</rscale>
<asrwt>0</asrwt>
<pdfrwt beam="1">  1       21 0.58388542E-02 0.12500015E+03</pdfrwt>
<pdfrwt beam="2">  1       21 0.15834587E-01 0.12500015E+03</pdfrwt>
<totfact> 0.71924703E+06</totfact>
</mgrwt>
</event>
<event>
 5    0  0.1460498E+000  0.1249987E+03  0.7546771E-02  0.1235071E+00
         21   -1    0    0  503  502  0.00000000000E+00  0.00000000000E+00  0.61917795849E+02  0.61917795849E+02  0.00000000000E+00 0. -1.
         21   -1    0    0  502  503 -0.00000000000E+00 -0.00000000000E+00 -0.63086399900E+02  0.63086399900E+02  0.00000000000E+00 0. -1.
         25    2    1    2    0    0  0.00000000000E+00  0.00000000000E+00 -0.11686040513E+01  0.12500419575E+03  0.12499873327E+03 0.  0.
          4    1    3    3  501    0 -0.18566898004E+02 -0.20311221721E+02 -0.56680361707E+02  0.63026512933E+02  0.15500000000E+01 0. -1.
         -4    1    3    3    0  501  0.18566898004E+02  0.20311221721E+02  0.55511757655E+02  0.61977682816E+02  0.15500000000E+01 0. -1.
<mgrwt>
<rscale>  2 0.12499873E+03</rscale>
<asrwt>0</asrwt>
<pdfrwt beam="1">  1       21 0.95258148E-02 0.12499873E+03</pdfrwt>
<pdfrwt beam="2">  1       21 0.97055999E-02 0.12499873E+03</pdfrwt>
<totfact> 0.74045413E+06</totfact>
</mgrwt>
</event>
<event>
 5    0  0.1222151E+000  0.1250751E+03  0.7546771E-02  0.1234952E+00
         21   -1    0    0  503  502  0.00000000000E+00  0.00000000000E+00  0.49641928539E+01  0.49641928539E+01  0.00000000000E+00 0.  1.
         21   -1    0    0  502  503 -0.00000000000E+00 -0.00000000000E+00 -0.78783093669E+03  0.78783093669E+03  0.00000000000E+00 0.  1.
         25    2    1    2    0    0  0.00000000000E+00  0.00000000000E+00 -0.78286674384E+03  0.79279512955E+03  0.12507509274E+03 0.  0.
          4    1    3    3  501    0  0.97206458910E+01  0.55755833470E+02 -0.22309277292E+03  0.23016514018E+03  0.15500000000E+01 0.  1.
         -4    1    3    3    0  501 -0.97206458910E+01 -0.55755833470E+02 -0.55977397092E+03  0.56262998937E+03  0.15500000000E+01 0.  1.
<mgrwt>
<rscale>  2 0.12507509E+03</rscale>
<asrwt>0</asrwt>
<pdfrwt beam="1">  1       21 0.76372181E-03 0.12507509E+03</pdfrwt>
<pdfrwt beam="2">  1       21 0.12120479E+00 0.12507509E+03</pdfrwt>
<totfact> 0.29547935E+06</totfact>
</mgrwt>
</event>
<event>
 5    0  0.1370803E+000  0.1249962E+03  0.7546771E-02  0.1235075E+00
         21   -1    0    0  503  502  0.00000000000E+00  0.00000000000E+00  0.44389833177E+03  0.44389833177E+03  0.00000000000E+00 0.  1.
         21   -1    0    0  502  503 -0.00000000000E+00 -0.00000000000E+00 -0.87993335895E+01  0.87993335895E+01  0.00000000000E+00 0.  1.
         25    2    1    2    0    0  0.00000000000E+00  0.00000000000E+00  0.43509899818E+03  0.45269766536E+03  0.12499615196E+03 0.  0.
          4    1    3    3  501    0  0.43337333185E+00  0.39134817730E+02  0.39393319837E+03  0.39587559794E+03  0.15500000000E+01 0.  1.
         -4    1    3    3    0  501 -0.43337333185E+00 -0.39134817730E+02  0.41165799814E+02  0.56822067417E+02  0.15500000000E+01 0.  1.
<mgrwt>
<rscale>  2 0.12499615E+03</rscale>
<asrwt>0</asrwt>
<pdfrwt beam="1">  1       21 0.68292034E-01 0.12499615E+03</pdfrwt>
<pdfrwt beam="2">  1       21 0.13537440E-02 0.12499615E+03</pdfrwt>
<totfact> 0.44735585E+06</totfact>
</mgrwt>
</event>
<event>
 5    0  0.1529875E+000  0.1249998E+03  0.7546771E-02  0.1235070E+00
         21   -1    0    0  503  502  0.00000000000E+00  0.00000000000E+00  0.37870914872E+02  0.37870914872E+02  0.00000000000E+00 0. -1.
         21   -1    0    0  502  503 -0.00000000000E+00 -0.00000000000E+00 -0.10314614865E+03  0.10314614865E+03  0.00000000000E+00 0. -1.
         25    2    1    2    0    0  0.00000000000E+00  0.00000000000E+00 -0.65275233773E+02  0.14101706352E+03  0.12499982424E+03 0.  0.
          4    1    3    3  501    0  0.52640183938E+02  0.14405419370E+02 -0.66954744075E+02  0.86393549102E+02  0.15500000000E+01 0. -1.
         -4    1    3    3    0  501 -0.52640183938E+02 -0.14405419370E+02  0.16795103021E+01  0.54623514416E+02  0.15500000000E+01 0. -1.
<mgrwt>
<rscale>  2 0.12499982E+03</rscale>
<asrwt>0</asrwt>
<pdfrwt beam="1">  1       21 0.58262947E-02 0.12499982E+03</pdfrwt>
<pdfrwt beam="2">  1       21 0.15868638E-01 0.12499982E+03</pdfrwt>
<totfact> 0.71907132E+06</totfact>
</mgrwt>
</event>
<event>
 5    0  0.1485128E+000  0.1250046E+03  0.7546771E-02  0.1235062E+00
         21   -1    0    0  503  502  0.00000000000E+00  0.00000000000E+00  0.48545605328E+02  0.48545605328E+02  0.00000000000E+00 0.  1.
         21   -1    0    0  502  503 -0.00000000000E+00 -0.00000000000E+00 -0.80471445867E+02  0.80471445867E+02  0.00000000000E+00 0.  1.
         25    2    1    2    0    0  0.00000000000E+00  0.00000000000E+00 -0.31925840538E+02  0.12901705120E+03  0.12500456074E+03 0.  0.
          4    1    3    3  501    0 -0.32418196544E+02  0.49301158467E+02 -0.37179739405E+02  0.69758721430E+02  0.15500000000E+01 0. -1.
         -4    1    3    3    0  501  0.32418196544E+02 -0.49301158467E+02  0.52538988663E+01  0.59258329766E+02  0.15500000000E+01 0. -1.
<mgrwt>
<rscale>  2 0.12500456E+03</rscale>
<asrwt>0</asrwt>
<pdfrwt beam="1">  1       21 0.74685547E-02 0.12500456E+03</pdfrwt>
<pdfrwt beam="2">  1       21 0.12380222E-01 0.12500456E+03</pdfrwt>
<totfact> 0.73488034E+06</totfact>
</mgrwt>
</event>
<event>
 5    0  0.1389159E+000  0.1250103E+03  0.7546771E-02  0.1235053E+00
         21   -1    0    0  503  502  0.00000000000E+00  0.00000000000E+00  0.21375344997E+03  0.21375344997E+03  0.00000000000E+00 0. -1.
         21   -1    0    0  502  503 -0.00000000000E+00 -0.00000000000E+00 -0.18277567739E+02  0.18277567739E+02  0.00000000000E+00 0. -1.
         25    2    1    2    0    0  0.00000000000E+00  0.00000000000E+00  0.19547588224E+03  0.23203101771E+03  0.12501029016E+03 0.  0.
          4    1    3    3  501    0  0.42376313028E+02  0.14636593477E+00  0.12504609308E+02  0.44210192069E+02  0.15500000000E+01 0. -1.
         -4    1    3    3    0  501 -0.42376313028E+02 -0.14636593477E+00  0.18297127293E+03  0.18782082564E+03  0.15500000000E+01 0. -1.
<mgrwt>
<rscale>  2 0.12501029E+03</rscale>
<asrwt>0</asrwt>
<pdfrwt beam="1">  1       21 0.32885144E-01 0.12501029E+03</pdfrwt>
<pdfrwt beam="2">  1       21 0.28119336E-02 0.12501029E+03</pdfrwt>
<totfact> 0.61596438E+06</totfact>
</mgrwt>
</event>
<event>
 5    0  0.1222151E+000  0.1250080E+03  0.7546771E-02  0.1235057E+00
         21   -1    0    0  503  502  0.00000000000E+00  0.00000000000E+00  0.63155218790E+03  0.63155218790E+03  0.00000000000E+00 0.  1.
         21   -1    0    0  502  503 -0.00000000000E+00 -0.00000000000E+00 -0.61859496439E+01  0.61859496439E+01  0.00000000000E+00 0.  1.
         25    2    1    2    0    0  0.00000000000E+00  0.00000000000E+00  0.62536623826E+03  0.63773813755E+03  0.12500800025E+03 0.  0.
          4    1    3    3  501    0  0.36274472251E+02 -0.36777956814E+02  0.13333581327E+03  0.14300103861E+03  0.15500000000E+01 0.  1.
         -4    1    3    3    0  501 -0.36274472251E+02  0.36777956814E+02  0.49203042499E+03  0.49473709894E+03  0.15500000000E+01 0.  1.
<mgrwt>
<rscale>  2 0.12500800E+03</rscale>
<asrwt>0</asrwt>
<pdfrwt beam="1">  1       21 0.97161824E-01 0.12500800E+03</pdfrwt>
<pdfrwt beam="2">  1       21 0.95168506E-03 0.12500800E+03</pdfrwt>
<totfact> 0.35432672E+06</totfact>
</mgrwt>
</event>
<event>
 5    0  0.1395036E+000  0.1249932E+03  0.7546771E-02  0.1235080E+00
         21   -1    0    0  503  502  0.00000000000E+00  0.00000000000E+00  0.29515725877E+03  0.29515725877E+03  0.00000000000E+00 0.  1.
         21   -1    0    0  502  503 -0.00000000000E+00 -0.00000000000E+00 -0.13233030316E+02  0.13233030316E+02  0.00000000000E+00 0.  1.
         25    2    1    2    0    0  0.00000000000E+00  0.00000000000E+00  0.28192422845E+03  0.30839028909E+03  0.12499319907E+03 0.  0.
          4    1    3    3  501    0  0.58165280668E+02  0.81871969160E+01  0.19348585054E+03  0.20221129278E+03  0.15500000000E+01 0.  1.
         -4    1    3    3    0  501 -0.58165280668E+02 -0.81871969160E+01  0.88438377915E+02  0.10617899631E+03  0.15500000000E+01 0.  1.
<mgrwt>
<rscale>  2 0.12499320E+03</rscale>
<asrwt>0</asrwt>
<pdfrwt beam="1">  1       21 0.45408804E-01 0.12499320E+03</pdfrwt>
<pdfrwt beam="2">  1       21 0.20358510E-02 0.12499320E+03</pdfrwt>
<totfact> 0.54775394E+06</totfact>
</mgrwt>
</event>
<event>
 5    0  0.1222151E+000  0.1249973E+03  0.7546771E-02  0.1235073E+00
         21   -1    0    0  503  502  0.00000000000E+00  0.00000000000E+00  0.21216008703E+04  0.21216008703E+04  0.00000000000E+00 0. -1.
         21   -1    0    0  502  503 -0.00000000000E+00 -0.00000000000E+00 -0.18411021231E+01  0.18411021231E+01  0.00000000000E+00 0. -1.
         25    2    1    2    0    0  0.00000000000E+00  0.00000000000E+00  0.21197597682E+04  0.21234419724E+04  0.12499734184E+03 0.  0.
          4    1    3    3  501    0  0.39621151484E+02  0.43816817570E+02  0.14055041579E+04  0.14067459222E+04  0.15500000000E+01 0.  1.
         -4    1    3    3    0  501 -0.39621151484E+02 -0.43816817570E+02  0.71425561024E+03  0.71669605022E+03  0.15500000000E+01 0.  1.
<mgrwt>
<rscale>  2 0.12499734E+03</rscale>
<asrwt>0</asrwt>
<pdfrwt beam="1">  1       21 0.32639818E+00 0.12499734E+03</pdfrwt>
<pdfrwt beam="2">  1       21 0.28324818E-03 0.12499734E+03</pdfrwt>
<totfact> 0.68064301E+05</totfact>
</mgrwt>
</event>
<event>
 5    0  0.1726771E+000  0.1249993E+03  0.7546771E-02  0.1235070E+00
         21   -1    0    0  503  502  0.00000000000E+00  0.00000000000E+00  0.12851850057E+03  0.12851850057E+03  0.00000000000E+00 0.  1.
         21   -1    0    0  502  503 -0.00000000000E+00 -0.00000000000E+00 -0.30394117127E+02  0.30394117127E+02  0.00000000000E+00 0.  1.
         25    2    1    2    0    0  0.00000000000E+00  0.00000000000E+00  0.98124383445E+02  0.15891261770E+03  0.12499930175E+03 0.  0.
          4    1    3    3  501    0 -0.38435259467E+02 -0.10704563630E+01  0.11167187107E+03  0.11811614765E+03  0.15500000000E+01 0.  1.
         -4    1    3    3    0  501  0.38435259467E+02  0.10704563630E+01 -0.13547487629E+02  0.40796470046E+02  0.15500000000E+01 0.  1.
<mgrwt>
<rscale>  2 0.12499930E+03</rscale>
<asrwt>0</asrwt>
<pdfrwt beam="1">  1       21 0.19772077E-01 0.12499930E+03</pdfrwt>
<pdfrwt beam="2">  1       21 0.46760181E-02 0.12499930E+03</pdfrwt>
<totfact> 0.69653844E+06</totfact>
</mgrwt>
</event>
<event>
 5    0  0.1476681E+000  0.1249921E+03  0.7546771E-02  0.1235082E+00
         21   -1    0    0  503  502  0.00000000000E+00  0.00000000000E+00  0.19626449169E+02  0.19626449169E+02  0.00000000000E+00 0.  1.
         21   -1    0    0  502  503 -0.00000000000E+00 -0.00000000000E+00 -0.19900485132E+03  0.19900485132E+03  0.00000000000E+00 0.  1.
         25    2    1    2    0    0  0.00000000000E+00  0.00000000000E+00 -0.17937840215E+03  0.21863130049E+03  0.12499213733E+03 0.  0.
          4    1    3    3  501    0  0.48764679629E+02 -0.34637308992E+02 -0.58125750408E+02  0.83419077639E+02  0.15500000000E+01 0. -1.
         -4    1    3    3    0  501 -0.48764679629E+02  0.34637308992E+02 -0.12125265174E+03  0.13521222285E+03  0.15500000000E+01 0. -1.
<mgrwt>
<rscale>  2 0.12499214E+03</rscale>
<asrwt>0</asrwt>
<pdfrwt beam="1">  1       21 0.30194537E-02 0.12499214E+03</pdfrwt>
<pdfrwt beam="2">  1       21 0.30616131E-01 0.12499214E+03</pdfrwt>
<totfact> 0.62975224E+06</totfact>
</mgrwt>
</event>
<event>
 5    0  0.1222151E+000  0.1250005E+03  0.7546771E-02  0.1235069E+00
         21   -1    0    0  503  502  0.00000000000E+00  0.00000000000E+00  0.43679496658E+01  0.43679496658E+01  0.00000000000E+00 0. -1.
         21   -1    0    0  502  503 -0.00000000000E+00 -0.00000000000E+00 -0.89430498397E+03  0.89430498397E+03  0.00000000000E+00 0. -1.
         25    2    1    2    0    0  0.00000000000E+00  0.00000000000E+00 -0.88993703430E+03  0.89867293363E+03  0.12500046649E+03 0.  0.
          4    1    3    3  501    0 -0.52122402809E+02 -0.67285998331E+01 -0.20203019637E+03  0.20875972235E+03  0.15500000000E+01 0.  1.
         -4    1    3    3    0  501  0.52122402809E+02  0.67285998331E+01 -0.68790683793E+03  0.68991321128E+03  0.15500000000E+01 0.  1.
<mgrwt>
<rscale>  2 0.12500047E+03</rscale>
<asrwt>0</asrwt>
<pdfrwt beam="1">  1       21 0.67199115E-03 0.12500047E+03</pdfrwt>
<pdfrwt beam="2">  1       21 0.13758561E+00 0.12500047E+03</pdfrwt>
<totfact> 0.26336958E+06</totfact>
</mgrwt>
</event>
<event>
 5    0  0.1461358E+000  0.1249994E+03  0.7546771E-02  0.1235070E+00
         21   -1    0    0  503  502  0.00000000000E+00  0.00000000000E+00  0.97018426913E+02  0.97018426913E+02  0.00000000000E+00 0.  1.
         21   -1    0    0  502  503 -0.00000000000E+00 -0.00000000000E+00 -0.40262591058E+02  0.40262591058E+02  0.00000000000E+00 0.  1.
         25    2    1    2    0    0  0.00000000000E+00  0.00000000000E+00  0.56755835856E+02  0.13728101797E+03  0.12499941196E+03 0.  0.
          4    1    3    3  501    0  0.31520793699E+02  0.60052382644E+00 -0.30865592360E+02  0.44147574747E+02  0.15500000000E+01 0. -1.
         -4    1    3    3    0  501 -0.31520793699E+02 -0.60052382644E+00  0.87621428216E+02  0.93133443224E+02  0.15500000000E+01 0. -1.
<mgrwt>
<rscale>  2 0.12499941E+03</rscale>
<asrwt>0</asrwt>
<pdfrwt beam="1">  1       21 0.14925912E-01 0.12499941E+03</pdfrwt>
<pdfrwt beam="2">  1       21 0.61942448E-02 0.12499941E+03</pdfrwt>
<totfact> 0.72396921E+06</totfact>
</mgrwt>
</event>
<event>
 5    0  0.1492774E+000  0.1250031E+03  0.7546771E-02  0.1235064E+00
         21   -1    0    0  503  502  0.00000000000E+00  0.00000000000E+00  0.11736616244E+02  0.11736616244E+02  0.00000000000E+00 0.  1.
         21   -1    0    0  502  503 -0.00000000000E+00 -0.00000000000E+00 -0.33284235219E+03  0.33284235219E+03  0.00000000000E+00 0.  1.
         25    2    1    2    0    0  0.00000000000E+00  0.00000000000E+00 -0.32110573594E+03  0.34457896843E+03  0.12500308728E+03 0.  0.
          4    1    3    3  501    0 -0.52890187371E+02  0.32376559105E+02 -0.13948237657E+03  0.15265434607E+03  0.15500000000E+01 0.  1.
         -4    1    3    3    0  501  0.52890187371E+02 -0.32376559105E+02 -0.18162335937E+03  0.19192462236E+03  0.15500000000E+01 0.  1.
<mgrwt>
<rscale>  2 0.12500309E+03</rscale>
<asrwt>0</asrwt>
<pdfrwt beam="1">  1       21 0.18056334E-02 0.12500309E+03</pdfrwt>
<pdfrwt beam="2">  1       21 0.51206513E-01 0.12500309E+03</pdfrwt>
<totfact> 0.51937282E+06</totfact>
</mgrwt>
</event>
<event>
 5    0  0.1459616E+000  0.1249972E+03  0.7546771E-02  0.1235074E+00
         21   -1    0    0  503  502  0.00000000000E+00  0.00000000000E+00  0.17607905489E+02  0.17607905489E+02  0.00000000000E+00 0. -1.
         21   -1    0    0  502  503 -0.00000000000E+00 -0.00000000000E+00 -0.22183633182E+03  0.22183633182E+03  0.00000000000E+00 0. -1.
         25    2    1    2    0    0  0.00000000000E+00  0.00000000000E+00 -0.20422842633E+03  0.23944423731E+03  0.12499717060E+03 0.  0.
          4    1    3    3  501    0 -0.27683837897E+02 -0.19494039931E+02 -0.20270146077E+03  0.20551568595E+03  0.15500000000E+01 0. -1.
         -4    1    3    3    0  501  0.27683837897E+02  0.19494039931E+02 -0.15269655619E+01  0.33928551360E+02  0.15500000000E+01 0. -1.
<mgrwt>
<rscale>  2 0.12499717E+03</rscale>
<asrwt>0</asrwt>
<pdfrwt beam="1">  1       21 0.27089083E-02 0.12499717E+03</pdfrwt>
<pdfrwt beam="2">  1       21 0.34128669E-01 0.12499717E+03</pdfrwt>
<totfact> 0.60890828E+06</totfact>
</mgrwt>
</event>
<event>
 5    0  0.1428669E+000  0.1250076E+03  0.7546771E-02  0.1235057E+00
         21   -1    0    0  503  502  0.00000000000E+00  0.00000000000E+00  0.28732489403E+03  0.28732489403E+03  0.00000000000E+00 0.  1.
         21   -1    0    0  502  503 -0.00000000000E+00 -0.00000000000E+00 -0.13596893981E+02  0.13596893981E+02  0.00000000000E+00 0.  1.
         25    2    1    2    0    0  0.00000000000E+00  0.00000000000E+00  0.27372800005E+03  0.30092178801E+03  0.12500761772E+03 0.  0.
          4    1    3    3  501    0  0.58156791733E+02 -0.22747408217E+02  0.13166382172E+03  0.14573064694E+03  0.15500000000E+01 0. -1.
         -4    1    3    3    0  501 -0.58156791733E+02  0.22747408217E+02  0.14206417832E+03  0.15519114107E+03  0.15500000000E+01 0. -1.
<mgrwt>
<rscale>  2 0.12500762E+03</rscale>
<asrwt>0</asrwt>
<pdfrwt beam="1">  1       21 0.44203825E-01 0.12500762E+03</pdfrwt>
<pdfrwt beam="2">  1       21 0.20918301E-02 0.12500762E+03</pdfrwt>
<totfact> 0.55369061E+06</totfact>
</mgrwt>
</event>
<event>
 5    0  0.1331365E+000  0.1250115E+03  0.7546771E-02  0.1235051E+00
         21   -1    0    0  503  502  0.00000000000E+00  0.00000000000E+00  0.71593096711E+01  0.71593096711E+01  0.00000000000E+00 0. -1.
         21   -1    0    0  502  503 -0.00000000000E+00 -0.00000000000E+00 -0.54571842838E+03  0.54571842838E+03  0.00000000000E+00 0. -1.
         25    2    1    2    0    0  0.00000000000E+00  0.00000000000E+00 -0.53855911871E+03  0.55287773805E+03  0.12501147503E+03 0.  0.
          4    1    3    3  501    0  0.49160188553E+02 -0.20610001278E+02 -0.12508136096E+03  0.13597516557E+03  0.15500000000E+01 0. -1.
         -4    1    3    3    0  501 -0.49160188553E+02  0.20610001278E+02 -0.41347775775E+03  0.41690257248E+03  0.15500000000E+01 0. -1.
<mgrwt>
<rscale>  2 0.12501148E+03</rscale>
<asrwt>0</asrwt>
<pdfrwt beam="1">  1       21 0.11014323E-02 0.12501148E+03</pdfrwt>
<pdfrwt beam="2">  1       21 0.83956678E-01 0.12501148E+03</pdfrwt>
<totfact> 0.39303039E+06</totfact>
</mgrwt>
</event>
<event>
 5    0  0.1363196E+000  0.1250018E+03  0.7546771E-02  0.1235067E+00
         21   -1    0    0  503  502  0.00000000000E+00  0.00000000000E+00  0.41514026291E+03  0.41514026291E+03  0.00000000000E+00 0.  1.
         21   -1    0    0  502  503 -0.00000000000E+00 -0.00000000000E+00 -0.94097348469E+01  0.94097348469E+01  0.00000000000E+00 0.  1.
         25    2    1    2    0    0  0.00000000000E+00  0.00000000000E+00  0.40573052807E+03  0.42454999776E+03  0.12500175676E+03 0.  0.
          4    1    3    3  501    0 -0.56057292507E+02 -0.26883799886E+02  0.22402062905E+03  0.23249258801E+03  0.15500000000E+01 0.  1.
         -4    1    3    3    0  501  0.56057292507E+02  0.26883799886E+02  0.18170989902E+03  0.19205740975E+03  0.15500000000E+01 0.  1.
<mgrwt>
<rscale>  2 0.12500176E+03</rscale>
<asrwt>0</asrwt>
<pdfrwt beam="1">  1       21 0.63867719E-01 0.12500176E+03</pdfrwt>
<pdfrwt beam="2">  1       21 0.14476518E-02 0.12500176E+03</pdfrwt>
<totfact> 0.46452462E+06</totfact>
</mgrwt>
</event>
<event>
 5    0  0.1222151E+000  0.1250016E+03  0.7546771E-02  0.1235067E+00
         21   -1    0    0  503  502  0.00000000000E+00  0.00000000000E+00  0.33358425112E+01  0.33358425112E+01  0.00000000000E+00 0. -1.
         21   -1    0    0  502  503 -0.00000000000E+00 -0.00000000000E+00 -0.11710226311E+04  0.11710226311E+04  0.00000000000E+00 0. -1.
         25    2    1    2    0    0  0.00000000000E+00  0.00000000000E+00 -0.11676867886E+04  0.11743584736E+04  0.12500155318E+03 0.  0.
          4    1    3    3  501    0 -0.31060298838E+02 -0.42553575048E+02 -0.26825866489E+03  0.27338738577E+03  0.15500000000E+01 0. -1.
         -4    1    3    3    0  501  0.31060298838E+02  0.42553575048E+02 -0.89942812371E+03  0.90097108785E+03  0.15500000000E+01 0. -1.
<mgrwt>
<rscale>  2 0.12500155E+03</rscale>
<asrwt>0</asrwt>
<pdfrwt beam="1">  1       21 0.51320649E-03 0.12500155E+03</pdfrwt>
<pdfrwt beam="2">  1       21 0.18015734E+00 0.12500155E+03</pdfrwt>
<totfact> 0.19661227E+06</totfact>
</mgrwt>
</event>
<event>
 5    0  0.1577472E+000  0.1250133E+03  0.7546771E-02  0.1235048E+00
         21   -1    0    0  503  502  0.00000000000E+00  0.00000000000E+00  0.42170763773E+02  0.42170763773E+02  0.00000000000E+00 0. -1.
         21   -1    0    0  502  503 -0.00000000000E+00 -0.00000000000E+00 -0.92649076998E+02  0.92649076998E+02  0.00000000000E+00 0. -1.
         25    2    1    2    0    0  0.00000000000E+00  0.00000000000E+00 -0.50478313225E+02  0.13481984077E+03  0.12501331673E+03 0.  0.
          4    1    3    3  501    0  0.23598484574E+02  0.57826938286E+02 -0.23126789851E+02  0.66619022618E+02  0.15500000000E+01 0. -1.
         -4    1    3    3    0  501 -0.23598484574E+02 -0.57826938286E+02 -0.27351523374E+02  0.68200818152E+02  0.15500000000E+01 0. -1.
<mgrwt>
<rscale>  2 0.12501332E+03</rscale>
<asrwt>0</asrwt>
<pdfrwt beam="1">  1       21 0.64878100E-02 0.12501332E+03</pdfrwt>
<pdfrwt beam="2">  1       21 0.14253704E-01 0.12501332E+03</pdfrwt>
<totfact> 0.72695640E+06</totfact>
</mgrwt>
</event>
<event>
 5    0  0.1264747E+000  0.1249980E+03  0.7546771E-02  0.1235072E+00
         21   -1    0    0  503  502  0.00000000000E+00  0.00000000000E+00  0.57952340869E+01  0.57952340869E+01  0.00000000000E+00 0.  1.
         21   -1    0    0  502  503 -0.00000000000E+00 -0.00000000000E+00 -0.67402353194E+03  0.67402353194E+03  0.00000000000E+00 0.  1.
         25    2    1    2    0    0  0.00000000000E+00  0.00000000000E+00 -0.66822829785E+03  0.67981876603E+03  0.12499798635E+03 0.  0.
          4    1    3    3  501    0 -0.17451009376E+01  0.47685572887E+02 -0.11475679626E+03  0.12429193066E+03  0.15500000000E+01 0.  1.
         -4    1    3    3    0  501  0.17451009376E+01 -0.47685572887E+02 -0.55347150159E+03  0.55552683537E+03  0.15500000000E+01 0.  1.
<mgrwt>
<rscale>  2 0.12499799E+03</rscale>
<asrwt>0</asrwt>
<pdfrwt beam="1">  1       21 0.89157456E-03 0.12499799E+03</pdfrwt>
<pdfrwt beam="2">  1       21 0.10369592E+00 0.12499799E+03</pdfrwt>
<totfact> 0.33704502E+06</totfact>
</mgrwt>
</event>
<event>
 5    0  0.1465923E+000  0.1250121E+03  0.7546771E-02  0.1235050E+00
         21   -1    0    0  503  502  0.00000000000E+00  0.00000000000E+00  0.23102085345E+03  0.23102085345E+03  0.00000000000E+00 0.  1.
         21   -1    0    0  502  503 -0.00000000000E+00 -0.00000000000E+00 -0.16911921486E+02  0.16911921486E+02  0.00000000000E+00 0.  1.
         25    2    1    2    0    0  0.00000000000E+00  0.00000000000E+00  0.21410893196E+03  0.24793277493E+03  0.12501210398E+03 0.  0.
          4    1    3    3  501    0 -0.43102419229E+02 -0.23172747752E+02  0.29991997190E+02  0.57417046051E+02  0.15500000000E+01 0. -1.
         -4    1    3    3    0  501  0.43102419229E+02  0.23172747752E+02  0.18411693477E+03  0.19051572888E+03  0.15500000000E+01 0. -1.
<mgrwt>
<rscale>  2 0.12501210E+03</rscale>
<asrwt>0</asrwt>
<pdfrwt beam="1">  1       21 0.35541668E-01 0.12501210E+03</pdfrwt>
<pdfrwt beam="2">  1       21 0.26018342E-02 0.12501210E+03</pdfrwt>
<totfact> 0.60055036E+06</totfact>
</mgrwt>
</event>
<event>
 5    0  0.1427198E+000  0.1250065E+03  0.7546771E-02  0.1235059E+00
         21   -1    0    0  503  502  0.00000000000E+00  0.00000000000E+00  0.40035093599E+02  0.40035093599E+02  0.00000000000E+00 0.  1.
         21   -1    0    0  502  503 -0.00000000000E+00 -0.00000000000E+00 -0.97580802614E+02  0.97580802614E+02  0.00000000000E+00 0.  1.
         25    2    1    2    0    0  0.00000000000E+00  0.00000000000E+00 -0.57545709015E+02  0.13761589621E+03  0.12500650489E+03 0.  0.
          4    1    3    3  501    0  0.40743466913E+02 -0.13404046329E+02 -0.78793497770E+02  0.89724669656E+02  0.15500000000E+01 0.  1.
         -4    1    3    3    0  501 -0.40743466913E+02  0.13404046329E+02  0.21247788755E+02  0.47891226556E+02  0.15500000000E+01 0.  1.
<mgrwt>
<rscale>  2 0.12500650E+03</rscale>
<asrwt>0</asrwt>
<pdfrwt beam="1">  1       21 0.61592453E-02 0.12500650E+03</pdfrwt>
<pdfrwt beam="2">  1       21 0.15012431E-01 0.12500650E+03</pdfrwt>
<totfact> 0.72339927E+06</totfact>
</mgrwt>
</event>
<event>
 5    0  0.1533472E+000  0.1250381E+03  0.7546771E-02  0.1235010E+00
         21   -1    0    0  503  502  0.00000000000E+00  0.00000000000E+00  0.14099399010E+03  0.14099399010E+03  0.00000000000E+00 0.  1.
         21   -1    0    0  502  503 -0.00000000000E+00 -0.00000000000E+00 -0.27721965132E+02  0.27721965132E+02  0.00000000000E+00 0.  1.
         25    2    1    2    0    0  0.00000000000E+00  0.00000000000E+00  0.11327202496E+03  0.16871595523E+03  0.12503808183E+03 0.  0.
          4    1    3    3  501    0 -0.60455370122E+02  0.91501781794E+01  0.39165075347E+02  0.72628390897E+02  0.15500000000E+01 0.  1.
         -4    1    3    3    0  501  0.60455370122E+02 -0.91501781794E+01  0.74106949617E+02  0.96087564330E+02  0.15500000000E+01 0.  1.
<mgrwt>
<rscale>  2 0.12503808E+03</rscale>
<asrwt>0</asrwt>
<pdfrwt beam="1">  1       21 0.21691383E-01 0.12503808E+03</pdfrwt>
<pdfrwt beam="2">  1       21 0.42649178E-02 0.12503808E+03</pdfrwt>
<totfact> 0.68403679E+06</totfact>
</mgrwt>
</event>
<event>
 5    0  0.1510492E+000  0.1250078E+03  0.7546771E-02  0.1235057E+00
         21   -1    0    0  503  502  0.00000000000E+00  0.00000000000E+00  0.11438439921E+03  0.11438439921E+03  0.00000000000E+00 0.  1.
         21   -1    0    0  502  503 -0.00000000000E+00 -0.00000000000E+00 -0.34154456499E+02  0.34154456499E+02  0.00000000000E+00 0.  1.
         25    2    1    2    0    0  0.00000000000E+00  0.00000000000E+00  0.80229942714E+02  0.14853885571E+03  0.12500779155E+03 0.  0.
          4    1    3    3  501    0  0.44709450634E+02  0.26463558970E+02 -0.11337842116E+01  0.51989834544E+02  0.15500000000E+01 0.  1.
         -4    1    3    3    0  501 -0.44709450634E+02 -0.26463558970E+02  0.81363726926E+02  0.96549021168E+02  0.15500000000E+01 0.  1.
<mgrwt>
<rscale>  2 0.12500779E+03</rscale>
<asrwt>0</asrwt>
<pdfrwt beam="1">  1       21 0.17597600E-01 0.12500779E+03</pdfrwt>
<pdfrwt beam="2">  1       21 0.52545318E-02 0.12500779E+03</pdfrwt>
<totfact> 0.70929162E+06</totfact>
</mgrwt>
</event>
<event>
 5    0  0.1222151E+000  0.1249773E+03  0.7546771E-02  0.1235105E+00
         21   -1    0    0  503  502  0.00000000000E+00  0.00000000000E+00  0.76511810207E+03  0.76511810207E+03  0.00000000000E+00 0. -1.
         21   -1    0    0  502  503 -0.00000000000E+00 -0.00000000000E+00 -0.51035689274E+01  0.51035689274E+01  0.00000000000E+00 0. -1.
         25    2    1    2    0    0  0.00000000000E+00  0.00000000000E+00  0.76001453315E+03  0.77022167100E+03  0.12497732549E+03 0.  0.
          4    1    3    3  501    0 -0.50754430667E+02 -0.18952851613E+02  0.18834157973E+03  0.19598514222E+03  0.15500000000E+01 0. -1.
         -4    1    3    3    0  501  0.50754430667E+02  0.18952851613E+02  0.57167295342E+03  0.57423652878E+03  0.15500000000E+01 0. -1.
<mgrwt>
<rscale>  2 0.12497733E+03</rscale>
<asrwt>0</asrwt>
<pdfrwt beam="1">  1       21 0.11771039E+00 0.12497733E+03</pdfrwt>
<pdfrwt beam="2">  1       21 0.78516506E-03 0.12497733E+03</pdfrwt>
<totfact> 0.30387136E+06</totfact>
</mgrwt>
</event>
<event>
 4    0  0.1808757E+000  0.1220825E+03  0.7546771E-02  0.1239701E+00
         21   -1    0    0  503  502  0.00000000000E+00  0.00000000000E+00  0.21973734456E+02  0.21973734456E+02  0.00000000000E+00 0.  1.
         21   -1    0    0  502  503 -0.00000000000E+00 -0.00000000000E+00 -0.16956773310E+03  0.16956773310E+03  0.00000000000E+00 0.  1.
          4    1    1    2  501    0 -0.15561264043E+02 -0.44649953363E+02 -0.13278147432E+02  0.49137388749E+02  0.15500000000E+01 0.  1.
         -4    1    1    2    0  501  0.15561264043E+02  0.44649953363E+02 -0.13431585121E+03  0.14240407881E+03  0.15500000000E+01 0.  1.
<mgrwt>
<rscale>  2 0.12208254E+03</rscale>
<asrwt>0</asrwt>
<pdfrwt beam="1">  1       21 0.33805746E-02 0.12208254E+03</pdfrwt>
<pdfrwt beam="2">  1       21 0.26087343E-01 0.12208254E+03</pdfrwt>
<totfact> 0.70959453E+06</totfact>
</mgrwt>
</event>
<event>
 5    0  0.1573835E+000  0.1249977E+03  0.7546771E-02  0.1235073E+00
         21   -1    0    0  503  502  0.00000000000E+00  0.00000000000E+00  0.14114879167E+03  0.14114879167E+03  0.00000000000E+00 0.  1.
         21   -1    0    0  502  503 -0.00000000000E+00 -0.00000000000E+00 -0.27673663675E+02  0.27673663675E+02  0.00000000000E+00 0.  1.
         25    2    1    2    0    0  0.00000000000E+00  0.00000000000E+00  0.11347512799E+03  0.16882245534E+03  0.12499766700E+03 0.  0.
          4    1    3    3  501    0 -0.95136052300E+01  0.52526394913E+02  0.10058899849E+03  0.11388625889E+03  0.15500000000E+01 0. -1.
         -4    1    3    3    0  501  0.95136052300E+01 -0.52526394913E+02  0.12886129504E+02  0.54936196452E+02  0.15500000000E+01 0. -1.
<mgrwt>
<rscale>  2 0.12499767E+03</rscale>
<asrwt>0</asrwt>
<pdfrwt beam="1">  1       21 0.21715198E-01 0.12499767E+03</pdfrwt>
<pdfrwt beam="2">  1       21 0.42574868E-02 0.12499767E+03</pdfrwt>
<totfact> 0.68461290E+06</totfact>
</mgrwt>
</event>
<event>
 5    0  0.1495410E+000  0.1249989E+03  0.7546771E-02  0.1235071E+00
         21   -1    0    0  503  502  0.00000000000E+00  0.00000000000E+00  0.37582034984E+02  0.37582034984E+02  0.00000000000E+00 0.  1.
         21   -1    0    0  502  503 -0.00000000000E+00 -0.00000000000E+00 -0.10393745899E+03  0.10393745899E+03  0.00000000000E+00 0.  1.
         25    2    1    2    0    0  0.00000000000E+00  0.00000000000E+00 -0.66355424002E+02  0.14151949397E+03  0.12499889951E+03 0.  0.
          4    1    3    3  501    0 -0.54531877960E+01  0.39862909730E+02 -0.87297018025E+02  0.96135116817E+02  0.15500000000E+01 0. -1.
         -4    1    3    3    0  501  0.54531877960E+01 -0.39862909730E+02  0.20941594023E+02  0.45384377153E+02  0.15500000000E+01 0. -1.
<mgrwt>
<rscale>  2 0.12499890E+03</rscale>
<asrwt>0</asrwt>
<pdfrwt beam="1">  1       21 0.57818516E-02 0.12499890E+03</pdfrwt>
<pdfrwt beam="2">  1       21 0.15990378E-01 0.12499890E+03</pdfrwt>
<totfact> 0.71843572E+06</totfact>
</mgrwt>
</event>
<event>
 5    0  0.1222151E+000  0.1249984E+03  0.7546771E-02  0.1235072E+00
         21   -1    0    0  503  502  0.00000000000E+00  0.00000000000E+00  0.21506455047E+01  0.21506455047E+01  0.00000000000E+00 0. -1.
         21   -1    0    0  502  503 -0.00000000000E+00 -0.00000000000E+00 -0.18162688280E+04  0.18162688280E+04  0.00000000000E+00 0. -1.
         25    2    1    2    0    0  0.00000000000E+00  0.00000000000E+00 -0.18141181825E+04  0.18184194736E+04  0.12499840624E+03 0.  0.
          4    1    3    3  501    0 -0.52963734384E+02  0.24280667970E+02 -0.57883873876E+03  0.58176575697E+03  0.15500000000E+01 0. -1.
         -4    1    3    3    0  501  0.52963734384E+02 -0.24280667970E+02 -0.12352794438E+04  0.12366537166E+04  0.15500000000E+01 0. -1.
<mgrwt>
<rscale>  2 0.12499841E+03</rscale>
<asrwt>0</asrwt>
<pdfrwt beam="1">  1       21 0.33086905E-03 0.12499841E+03</pdfrwt>
<pdfrwt beam="2">  1       21 0.27942554E+00 0.12499841E+03</pdfrwt>
<totfact> 0.98600064E+05</totfact>
</mgrwt>
</event>
<event>
 5    0  0.1222151E+000  0.1249998E+03  0.7546771E-02  0.1235070E+00
         21   -1    0    0  503  502  0.00000000000E+00  0.00000000000E+00  0.60079577293E+02  0.60079577293E+02  0.00000000000E+00 0. -1.
         21   -1    0    0  502  503 -0.00000000000E+00 -0.00000000000E+00 -0.65017762826E+02  0.65017762826E+02  0.00000000000E+00 0. -1.
         25    2    1    2    0    0  0.00000000000E+00  0.00000000000E+00 -0.49381855332E+01  0.12509734012E+03  0.12499983531E+03 0.  0.
          4    1    3    3  501    0  0.23705982043E+02 -0.61984895347E+01  0.55051320921E+02  0.60278066428E+02  0.15500000000E+01 0. -1.
         -4    1    3    3    0  501 -0.23705982043E+02  0.61984895347E+01 -0.59989506454E+02  0.64819273691E+02  0.15500000000E+01 0. -1.
<mgrwt>
<rscale>  2 0.12499984E+03</rscale>
<asrwt>0</asrwt>
<pdfrwt beam="1">  1       21 0.92430119E-02 0.12499984E+03</pdfrwt>
<pdfrwt beam="2">  1       21 0.10002733E-01 0.12499984E+03</pdfrwt>
<totfact> 0.74030746E+06</totfact>
</mgrwt>
</event>
<event>
 5    0  0.1646383E+000  0.1249998E+03  0.7546771E-02  0.1235070E+00
         21   -1    0    0  503  502  0.00000000000E+00  0.00000000000E+00  0.72409325290E+02  0.72409325290E+02  0.00000000000E+00 0. -1.
         21   -1    0    0  502  503 -0.00000000000E+00 -0.00000000000E+00 -0.53946571905E+02  0.53946571905E+02  0.00000000000E+00 0. -1.
         25    2    1    2    0    0  0.00000000000E+00  0.00000000000E+00  0.18462753385E+02  0.12635589720E+03  0.12499975797E+03 0.  0.
          4    1    3    3  501    0 -0.47257634348E+02 -0.37072298881E+02 -0.81655990214E+01  0.60635953492E+02  0.15500000000E+01 0.  1.
         -4    1    3    3    0  501  0.47257634348E+02  0.37072298881E+02  0.26628352406E+02  0.65719943703E+02  0.15500000000E+01 0.  1.
<mgrwt>
<rscale>  2 0.12499976E+03</rscale>
<asrwt>0</asrwt>
<pdfrwt beam="1">  1       21 0.11139896E-01 0.12499976E+03</pdfrwt>
<pdfrwt beam="2">  1       21 0.82994726E-02 0.12499976E+03</pdfrwt>
<totfact> 0.73857568E+06</totfact>
</mgrwt>
</event>
<event>
 5    0  0.1519358E+000  0.1250017E+03  0.7546771E-02  0.1235067E+00
         21   -1    0    0  503  502  0.00000000000E+00  0.00000000000E+00  0.42437322068E+02  0.42437322068E+02  0.00000000000E+00 0.  1.
         21   -1    0    0  502  503 -0.00000000000E+00 -0.00000000000E+00 -0.92050002530E+02  0.92050002530E+02  0.00000000000E+00 0.  1.
         25    2    1    2    0    0  0.00000000000E+00  0.00000000000E+00 -0.49612680462E+02  0.13448732460E+03  0.12500168965E+03 0.  0.
          4    1    3    3  501    0  0.31413557682E+02  0.51150310106E+02 -0.43465633874E+02  0.74127118237E+02  0.15500000000E+01 0.  1.
         -4    1    3    3    0  501 -0.31413557682E+02 -0.51150310106E+02 -0.61470465889E+01  0.60360206361E+02  0.15500000000E+01 0.  1.
<mgrwt>
<rscale>  2 0.12500169E+03</rscale>
<asrwt>0</asrwt>
<pdfrwt beam="1">  1       21 0.65288188E-02 0.12500169E+03</pdfrwt>
<pdfrwt beam="2">  1       21 0.14161539E-01 0.12500169E+03</pdfrwt>
<totfact> 0.72761289E+06</totfact>
</mgrwt>
</event>
<event>
 4    0  0.1479211E+000  0.1247422E+03  0.7546771E-02  0.1235473E+00
         21   -1    0    0  503  502  0.00000000000E+00  0.00000000000E+00  0.68635443241E+03  0.68635443241E+03  0.00000000000E+00 0. -1.
         21   -1    0    0  502  503 -0.00000000000E+00 -0.00000000000E+00 -0.56678474763E+01  0.56678474763E+01  0.00000000000E+00 0. -1.
          4    1    1    2  501    0 -0.17647501818E+02  0.42963776474E+02  0.10957097245E+03  0.11901899392E+03  0.15500000000E+01 0. -1.
         -4    1    1    2    0  501  0.17647501818E+02 -0.42963776474E+02  0.57111561248E+03  0.57300328597E+03  0.15500000000E+01 0. -1.
<mgrwt>
<rscale>  2 0.12474217E+03</rscale>
<asrwt>0</asrwt>
<pdfrwt beam="1">  1       21 0.10559292E+00 0.12474217E+03</pdfrwt>
<pdfrwt beam="2">  1       21 0.87197708E-03 0.12474217E+03</pdfrwt>
<totfact> 0.33433232E+06</totfact>
</mgrwt>
</event>
<event>
 5    0  0.1357815E+000  0.1249924E+03  0.7546771E-02  0.1235081E+00
         21   -1    0    0  503  502  0.00000000000E+00  0.00000000000E+00  0.12143322136E+02  0.12143322136E+02  0.00000000000E+00 0.  1.
         21   -1    0    0  502  503 -0.00000000000E+00 -0.00000000000E+00 -0.32163983725E+03  0.32163983725E+03  0.00000000000E+00 0.  1.
         25    2    1    2    0    0  0.00000000000E+00  0.00000000000E+00 -0.30949651511E+03  0.33378315938E+03  0.12499241826E+03 0.  0.
          4    1    3    3  501    0 -0.30551258933E+02  0.35686437019E+02 -0.44758016036E+02  0.64904419795E+02  0.15500000000E+01 0.  1.
         -4    1    3    3    0  501  0.30551258933E+02 -0.35686437019E+02 -0.26473849907E+03  0.26887873959E+03  0.15500000000E+01 0.  1.
<mgrwt>
<rscale>  2 0.12499242E+03</rscale>
<asrwt>0</asrwt>
<pdfrwt beam="1">  1       21 0.18682033E-02 0.12499242E+03</pdfrwt>
<pdfrwt beam="2">  1       21 0.49483054E-01 0.12499242E+03</pdfrwt>
<totfact> 0.52768887E+06</totfact>
</mgrwt>
</event>
<event>
 5    0  0.1446167E+000  0.1249988E+03  0.7546771E-02  0.1235071E+00
         21   -1    0    0  503  502  0.00000000000E+00  0.00000000000E+00  0.34191219258E+03  0.34191219258E+03  0.00000000000E+00 0.  1.
         21   -1    0    0  502  503 -0.00000000000E+00 -0.00000000000E+00 -0.11424492776E+02  0.11424492776E+02  0.00000000000E+00 0.  1.
         25    2    1    2    0    0  0.00000000000E+00  0.00000000000E+00  0.33048769980E+03  0.35333668535E+03  0.12499877398E+03 0.  0.
          4    1    3    3  501    0 -0.53606957379E+02 -0.31932065141E+02  0.15612435025E+03  0.16813856757E+03  0.15500000000E+01 0. -1.
         -4    1    3    3    0  501  0.53606957379E+02  0.31932065141E+02  0.17436334955E+03  0.18519811778E+03  0.15500000000E+01 0. -1.
<mgrwt>
<rscale>  2 0.12499877E+03</rscale>
<asrwt>0</asrwt>
<pdfrwt beam="1">  1       21 0.52601868E-01 0.12499877E+03</pdfrwt>
<pdfrwt beam="2">  1       21 0.17576145E-02 0.12499877E+03</pdfrwt>
<totfact> 0.51294527E+06</totfact>
</mgrwt>
</event>
<event>
 5    0  0.1313671E+000  0.1250050E+03  0.7546771E-02  0.1235061E+00
         21   -1    0    0  503  502  0.00000000000E+00  0.00000000000E+00  0.10112009834E+02  0.10112009834E+02  0.00000000000E+00 0.  1.
         21   -1    0    0  502  503 -0.00000000000E+00 -0.00000000000E+00 -0.38632891288E+03  0.38632891288E+03  0.00000000000E+00 0.  1.
         25    2    1    2    0    0  0.00000000000E+00  0.00000000000E+00 -0.37621690305E+03  0.39644092272E+03  0.12500498816E+03 0.  0.
          4    1    3    3  501    0 -0.25387097529E+01 -0.49100747408E+02 -0.31039590825E+03  0.31426955119E+03  0.15500000000E+01 0.  1.
         -4    1    3    3    0  501  0.25387097529E+01  0.49100747408E+02 -0.65820994795E+02  0.82171371529E+02  0.15500000000E+01 0.  1.
<mgrwt>
<rscale>  2 0.12500499E+03</rscale>
<asrwt>0</asrwt>
<pdfrwt beam="1">  1       21 0.15556939E-02 0.12500499E+03</pdfrwt>
<pdfrwt beam="2">  1       21 0.59435215E-01 0.12500499E+03</pdfrwt>
<totfact> 0.48272301E+06</totfact>
</mgrwt>
</event>
<event>
 5    0  0.1222151E+000  0.1250014E+03  0.7546771E-02  0.1235067E+00
         21   -1    0    0  503  502  0.00000000000E+00  0.00000000000E+00  0.96147037514E+03  0.96147037514E+03  0.00000000000E+00 0.  1.
         21   -1    0    0  502  503 -0.00000000000E+00 -0.00000000000E+00 -0.40628781813E+01  0.40628781813E+01  0.00000000000E+00 0.  1.
         25    2    1    2    0    0  0.00000000000E+00  0.00000000000E+00  0.95740749696E+03  0.96553325332E+03  0.12500139214E+03 0.  0.
          4    1    3    3  501    0  0.72416393591E+00  0.60983941483E+02  0.58358462513E+03  0.58676484449E+03  0.15500000000E+01 0. -1.
         -4    1    3    3    0  501 -0.72416393591E+00 -0.60983941483E+02  0.37382287182E+03  0.37876840883E+03  0.15500000000E+01 0. -1.
<mgrwt>
<rscale>  2 0.12500139E+03</rscale>
<asrwt>0</asrwt>
<pdfrwt beam="1">  1       21 0.14791834E+00 0.12500139E+03</pdfrwt>
<pdfrwt beam="2">  1       21 0.62505895E-03 0.12500139E+03</pdfrwt>
<totfact> 0.24499271E+06</totfact>
</mgrwt>
</event>
<event>
 5    0  0.1502686E+000  0.1249993E+03  0.7546771E-02  0.1235070E+00
         21   -1    0    0  503  502  0.00000000000E+00  0.00000000000E+00  0.19249852854E+03  0.19249852854E+03  0.00000000000E+00 0.  1.
         21   -1    0    0  502  503 -0.00000000000E+00 -0.00000000000E+00 -0.20292122038E+02  0.20292122038E+02  0.00000000000E+00 0.  1.
         25    2    1    2    0    0  0.00000000000E+00  0.00000000000E+00  0.17220640650E+03  0.21279065058E+03  0.12499925813E+03 0.  0.
          4    1    3    3  501    0 -0.41637120243E+02 -0.46419378589E+02  0.79424353137E+02  0.10099029093E+03  0.15500000000E+01 0. -1.
         -4    1    3    3    0  501  0.41637120243E+02  0.46419378589E+02  0.92782053363E+02  0.11180035965E+03  0.15500000000E+01 0. -1.
<mgrwt>
<rscale>  2 0.12499926E+03</rscale>
<asrwt>0</asrwt>
<pdfrwt beam="1">  1       21 0.29615157E-01 0.12499926E+03</pdfrwt>
<pdfrwt beam="2">  1       21 0.31218651E-02 0.12499926E+03</pdfrwt>
<totfact> 0.63568312E+06</totfact>
</mgrwt>
</event>
<event>
 5    0  0.1537761E+000  0.1249993E+03  0.7546771E-02  0.1235070E+00
         21   -1    0    0  503  502  0.00000000000E+00  0.00000000000E+00  0.10504039612E+03  0.10504039612E+03  0.00000000000E+00 0.  1.
         21   -1    0    0  502  503 -0.00000000000E+00 -0.00000000000E+00 -0.37187661336E+02  0.37187661336E+02  0.00000000000E+00 0.  1.
         25    2    1    2    0    0  0.00000000000E+00  0.00000000000E+00  0.67852734784E+02  0.14222805746E+03  0.12499930684E+03 0.  0.
          4    1    3    3  501    0 -0.29203388924E+02 -0.48284294356E+02  0.34037909182E+01  0.56552624154E+02  0.15500000000E+01 0. -1.
         -4    1    3    3    0  501  0.29203388924E+02  0.48284294356E+02  0.64448943865E+02  0.85675433302E+02  0.15500000000E+01 0. -1.
<mgrwt>
<rscale>  2 0.12499931E+03</rscale>
<asrwt>0</asrwt>
<pdfrwt beam="1">  1       21 0.16160061E-01 0.12499931E+03</pdfrwt>
<pdfrwt beam="2">  1       21 0.57211787E-02 0.12499931E+03</pdfrwt>
<totfact> 0.71751025E+06</totfact>
</mgrwt>
</event>
<event>
 5    0  0.1581871E+000  0.1249999E+03  0.7546771E-02  0.1235069E+00
         21   -1    0    0  503  502  0.00000000000E+00  0.00000000000E+00  0.69005106775E+02  0.69005106775E+02  0.00000000000E+00 0. -1.
         21   -1    0    0  502  503 -0.00000000000E+00 -0.00000000000E+00 -0.56608049470E+02  0.56608049470E+02  0.00000000000E+00 0. -1.
         25    2    1    2    0    0  0.00000000000E+00  0.00000000000E+00  0.12397057305E+02  0.12561315625E+03  0.12499991197E+03 0.  0.
          4    1    3    3  501    0 -0.35391759367E+02  0.48726692646E+02  0.22922735964E+02  0.64457129407E+02  0.15500000000E+01 0.  1.
         -4    1    3    3    0  501  0.35391759367E+02 -0.48726692646E+02 -0.10525678659E+02  0.61156026838E+02  0.15500000000E+01 0.  1.
<mgrwt>
<rscale>  2 0.12499991E+03</rscale>
<asrwt>0</asrwt>
<pdfrwt beam="1">  1       21 0.10616170E-01 0.12499991E+03</pdfrwt>
<pdfrwt beam="2">  1       21 0.87089307E-02 0.12499991E+03</pdfrwt>
<totfact> 0.73959777E+06</totfact>
</mgrwt>
</event>
<event>
 5    0  0.1222151E+000  0.1249929E+03  0.7546771E-02  0.1235080E+00
         21   -1    0    0  503  502  0.00000000000E+00  0.00000000000E+00  0.82092863205E+03  0.82092863205E+03  0.00000000000E+00 0. -1.
         21   -1    0    0  502  503 -0.00000000000E+00 -0.00000000000E+00 -0.47577908164E+01  0.47577908164E+01  0.00000000000E+00 0. -1.
         25    2    1    2    0    0  0.00000000000E+00  0.00000000000E+00  0.81617084123E+03  0.82568642287E+03  0.12499290710E+03 0.  0.
          4    1    3    3  501    0 -0.59882146759E+02  0.12178181467E+02  0.32215211362E+03  0.32790023851E+03  0.15500000000E+01 0. -1.
         -4    1    3    3    0  501  0.59882146759E+02 -0.12178181467E+02  0.49401872762E+03  0.49778618436E+03  0.15500000000E+01 0. -1.
<mgrwt>
<rscale>  2 0.12499291E+03</rscale>
<asrwt>0</asrwt>
<pdfrwt beam="1">  1       21 0.12629660E+00 0.12499291E+03</pdfrwt>
<pdfrwt beam="2">  1       21 0.73196847E-03 0.12499291E+03</pdfrwt>
<totfact> 0.28534301E+06</totfact>
</mgrwt>
</event>
<event>
 5    0  0.1543785E+000  0.1249851E+03  0.7546771E-02  0.1235093E+00
         21   -1    0    0  503  502  0.00000000000E+00  0.00000000000E+00  0.10895400713E+03  0.10895400713E+03  0.00000000000E+00 0. -1.
         21   -1    0    0  502  503 -0.00000000000E+00 -0.00000000000E+00 -0.35843715185E+02  0.35843715185E+02  0.00000000000E+00 0. -1.
         25    2    1    2    0    0  0.00000000000E+00  0.00000000000E+00  0.73110291949E+02  0.14479772232E+03  0.12498506151E+03 0.  0.
          4    1    3    3  501    0 -0.58292965184E+02  0.12716583251E+02  0.15094903453E+02  0.61563299861E+02  0.15500000000E+01 0. -1.
         -4    1    3    3    0  501  0.58292965184E+02 -0.12716583251E+02  0.58015388496E+02  0.83234422457E+02  0.15500000000E+01 0. -1.
<mgrwt>
<rscale>  2 0.12498506E+03</rscale>
<asrwt>0</asrwt>
<pdfrwt beam="1">  1       21 0.16762155E-01 0.12498506E+03</pdfrwt>
<pdfrwt beam="2">  1       21 0.55144178E-02 0.12498506E+03</pdfrwt>
<totfact> 0.71446173E+06</totfact>
</mgrwt>
</event>
<event>
 5    0  0.1406936E+000  0.1250589E+03  0.7546771E-02  0.1234977E+00
         21   -1    0    0  503  502  0.00000000000E+00  0.00000000000E+00  0.13696275354E+02  0.13696275354E+02  0.00000000000E+00 0.  1.
         21   -1    0    0  502  503 -0.00000000000E+00 -0.00000000000E+00 -0.28547389984E+03  0.28547389984E+03  0.00000000000E+00 0.  1.
         25    2    1    2    0    0  0.00000000000E+00  0.00000000000E+00 -0.27177762448E+03  0.29917017519E+03  0.12505885236E+03 0.  0.
          4    1    3    3  501    0  0.54776477622E+02  0.16245805012E+02 -0.75221336134E+02  0.94472432968E+02  0.15500000000E+01 0. -1.
         -4    1    3    3    0  501 -0.54776477622E+02 -0.16245805012E+02 -0.19655628835E+03  0.20469774222E+03  0.15500000000E+01 0. -1.
<mgrwt>
<rscale>  2 0.12505885E+03</rscale>
<asrwt>0</asrwt>
<pdfrwt beam="1">  1       21 0.21071194E-02 0.12505885E+03</pdfrwt>
<pdfrwt beam="2">  1       21 0.43919058E-01 0.12505885E+03</pdfrwt>
<totfact> 0.55443176E+06</totfact>
</mgrwt>
</event>
<event>
 5    0  0.1576143E+000  0.1249852E+03  0.7546771E-02  0.1235092E+00
         21   -1    0    0  503  502  0.00000000000E+00  0.00000000000E+00  0.87181994662E+02  0.87181994662E+02  0.00000000000E+00 0.  1.
         21   -1    0    0  502  503 -0.00000000000E+00 -0.00000000000E+00 -0.44795070578E+02  0.44795070578E+02  0.00000000000E+00 0.  1.
         25    2    1    2    0    0  0.00000000000E+00  0.00000000000E+00  0.42386924084E+02  0.13197706524E+03  0.12498517679E+03 0.  0.
          4    1    3    3  501    0  0.39425632904E+02 -0.47078592944E+02  0.33332046777E+02  0.69887068087E+02  0.15500000000E+01 0. -1.
         -4    1    3    3    0  501 -0.39425632904E+02  0.47078592944E+02  0.90548773076E+01  0.62089997153E+02  0.15500000000E+01 0. -1.
<mgrwt>
<rscale>  2 0.12498518E+03</rscale>
<asrwt>0</asrwt>
<pdfrwt beam="1">  1       21 0.13412615E-01 0.12498518E+03</pdfrwt>
<pdfrwt beam="2">  1       21 0.68915493E-02 0.12498518E+03</pdfrwt>
<totfact> 0.73126954E+06</totfact>
</mgrwt>
</event>
<event>
 5    0  0.1553701E+000  0.1249964E+03  0.7546771E-02  0.1235075E+00
         21   -1    0    0  503  502  0.00000000000E+00  0.00000000000E+00  0.15749342136E+03  0.15749342136E+03  0.00000000000E+00 0. -1.
         21   -1    0    0  502  503 -0.00000000000E+00 -0.00000000000E+00 -0.24801182530E+02  0.24801182530E+02  0.00000000000E+00 0. -1.
         25    2    1    2    0    0  0.00000000000E+00  0.00000000000E+00  0.13269223883E+03  0.18229460389E+03  0.12499636939E+03 0.  0.
          4    1    3    3  501    0 -0.40079687299E+02 -0.47858141397E+02  0.70159647452E+02  0.93923168933E+02  0.15500000000E+01 0.  1.
         -4    1    3    3    0  501  0.40079687299E+02  0.47858141397E+02  0.62532591382E+02  0.88371434960E+02  0.15500000000E+01 0.  1.
<mgrwt>
<rscale>  2 0.12499637E+03</rscale>
<asrwt>0</asrwt>
<pdfrwt beam="1">  1       21 0.24229757E-01 0.12499637E+03</pdfrwt>
<pdfrwt beam="2">  1       21 0.38155666E-02 0.12499637E+03</pdfrwt>
<totfact> 0.66895436E+06</totfact>
</mgrwt>
</event>
<event>
 5    0  0.1588142E+000  0.1249997E+03  0.7546771E-02  0.1235070E+00
         21   -1    0    0  503  502  0.00000000000E+00  0.00000000000E+00  0.62223223140E+02  0.62223223140E+02  0.00000000000E+00 0. -1.
         21   -1    0    0  502  503 -0.00000000000E+00 -0.00000000000E+00 -0.62777657895E+02  0.62777657895E+02  0.00000000000E+00 0. -1.
         25    2    1    2    0    0  0.00000000000E+00  0.00000000000E+00 -0.55443475475E+00  0.12500088103E+03  0.12499965145E+03 0.  0.
          4    1    3    3  501    0  0.55398261557E+02  0.15501489974E+02 -0.24661102169E+02  0.62608593940E+02  0.15500000000E+01 0. -1.
         -4    1    3    3    0  501 -0.55398261557E+02 -0.15501489974E+02  0.24106667415E+02  0.62392287094E+02  0.15500000000E+01 0. -1.
<mgrwt>
<rscale>  2 0.12499965E+03</rscale>
<asrwt>0</asrwt>
<pdfrwt beam="1">  1       21 0.95728036E-02 0.12499965E+03</pdfrwt>
<pdfrwt beam="2">  1       21 0.96581012E-02 0.12499965E+03</pdfrwt>
<totfact> 0.74044122E+06</totfact>
</mgrwt>
</event>
<event>
 5    0  0.1386608E+000  0.1250156E+03  0.7546771E-02  0.1235045E+00
         21   -1    0    0  503  502  0.00000000000E+00  0.00000000000E+00  0.37076878079E+03  0.37076878079E+03  0.00000000000E+00 0. -1.
         21   -1    0    0  502  503 -0.00000000000E+00 -0.00000000000E+00 -0.10538170798E+02  0.10538170798E+02  0.00000000000E+00 0. -1.
         25    2    1    2    0    0  0.00000000000E+00  0.00000000000E+00  0.36023061000E+03  0.38130695159E+03  0.12501559484E+03 0.  0.
          4    1    3    3  501    0  0.41841250613E+02 -0.30652117367E+02  0.28641292431E+03  0.29107560576E+03  0.15500000000E+01 0. -1.
         -4    1    3    3    0  501 -0.41841250613E+02  0.30652117367E+02  0.73817685682E+02  0.90231345836E+02  0.15500000000E+01 0. -1.
<mgrwt>
<rscale>  2 0.12501559E+03</rscale>
<asrwt>0</asrwt>
<pdfrwt beam="1">  1       21 0.57041341E-01 0.12501559E+03</pdfrwt>
<pdfrwt beam="2">  1       21 0.16212573E-02 0.12501559E+03</pdfrwt>
<totfact> 0.49287002E+06</totfact>
</mgrwt>
</event>
<event>
 5    0  0.1506510E+000  0.1250008E+03  0.7546771E-02  0.1235068E+00
         21   -1    0    0  503  502  0.00000000000E+00  0.00000000000E+00  0.16383968955E+03  0.16383968955E+03  0.00000000000E+00 0.  1.
         21   -1    0    0  502  503 -0.00000000000E+00 -0.00000000000E+00 -0.23842197711E+02  0.23842197711E+02  0.00000000000E+00 0.  1.
         25    2    1    2    0    0  0.00000000000E+00  0.00000000000E+00  0.13999749184E+03  0.18768188726E+03  0.12500077234E+03 0.  0.
          4    1    3    3  501    0  0.57549531214E+02  0.20310243114E+02  0.49886025717E+02  0.78838268501E+02  0.15500000000E+01 0.  1.
         -4    1    3    3    0  501 -0.57549531214E+02 -0.20310243114E+02  0.90111466125E+02  0.10884361876E+03  0.15500000000E+01 0.  1.
<mgrwt>
<rscale>  2 0.12500077E+03</rscale>
<asrwt>0</asrwt>
<pdfrwt beam="1">  1       21 0.25206105E-01 0.12500077E+03</pdfrwt>
<pdfrwt beam="2">  1       21 0.36680305E-02 0.12500077E+03</pdfrwt>
<totfact> 0.66279735E+06</totfact>
</mgrwt>
</event>
<event>
 5    0  0.1480822E+000  0.1249864E+03  0.7546771E-02  0.1235090E+00
         21   -1    0    0  503  502  0.00000000000E+00  0.00000000000E+00  0.62636677878E+02  0.62636677878E+02  0.00000000000E+00 0. -1.
         21   -1    0    0  502  503 -0.00000000000E+00 -0.00000000000E+00 -0.62350092317E+02  0.62350092317E+02  0.00000000000E+00 0. -1.
         25    2    1    2    0    0  0.00000000000E+00  0.00000000000E+00  0.28658556072E+00  0.12498677020E+03  0.12498644163E+03 0.  0.
          4    1    3    3  501    0  0.34926231302E+02 -0.75021580697E+01  0.51396487319E+02  0.62610904940E+02  0.15500000000E+01 0. -1.
         -4    1    3    3    0  501 -0.34926231302E+02  0.75021580697E+01 -0.51109901758E+02  0.62375865256E+02  0.15500000000E+01 0. -1.
<mgrwt>
<rscale>  2 0.12498644E+03</rscale>
<asrwt>0</asrwt>
<pdfrwt beam="1">  1       21 0.96364120E-02 0.12498644E+03</pdfrwt>
<pdfrwt beam="2">  1       21 0.95923219E-02 0.12498644E+03</pdfrwt>
<totfact> 0.74071042E+06</totfact>
</mgrwt>
</event>
<event>
 5    0  0.1386827E+000  0.1250003E+03  0.7546771E-02  0.1235069E+00
         21   -1    0    0  503  502  0.00000000000E+00  0.00000000000E+00  0.20957997556E+03  0.20957997556E+03  0.00000000000E+00 0. -1.
         21   -1    0    0  502  503 -0.00000000000E+00 -0.00000000000E+00 -0.18638551630E+02  0.18638551630E+02  0.00000000000E+00 0. -1.
         25    2    1    2    0    0  0.00000000000E+00  0.00000000000E+00  0.19094142393E+03  0.22821852719E+03  0.12500027512E+03 0.  0.
          4    1    3    3  501    0  0.48891837718E+02 -0.94549659937E+01  0.16436822448E+03  0.17175308991E+03  0.15500000000E+01 0. -1.
         -4    1    3    3    0  501 -0.48891837718E+02  0.94549659937E+01  0.26573199449E+02  0.56465437272E+02  0.15500000000E+01 0. -1.
<mgrwt>
<rscale>  2 0.12500028E+03</rscale>
<asrwt>0</asrwt>
<pdfrwt beam="1">  1       21 0.32243072E-01 0.12500028E+03</pdfrwt>
<pdfrwt beam="2">  1       21 0.28674696E-02 0.12500028E+03</pdfrwt>
<totfact> 0.61991285E+06</totfact>
</mgrwt>
</event>
<event>
 5    0  0.1415054E+000  0.1249941E+03  0.7546771E-02  0.1235079E+00
         21   -1    0    0  503  502  0.00000000000E+00  0.00000000000E+00  0.80565598329E+01  0.80565598329E+01  0.00000000000E+00 0. -1.
         21   -1    0    0  502  503 -0.00000000000E+00 -0.00000000000E+00 -0.48480725817E+03  0.48480725817E+03  0.00000000000E+00 0. -1.
         25    2    1    2    0    0  0.00000000000E+00  0.00000000000E+00 -0.47675069834E+03  0.49286381800E+03  0.12499405878E+03 0.  0.
          4    1    3    3  501    0 -0.57579776647E+02  0.10191725935E+02 -0.15161158203E+03  0.16250469612E+03  0.15500000000E+01 0.  1.
         -4    1    3    3    0  501  0.57579776647E+02 -0.10191725935E+02 -0.32513911631E+03  0.33035912188E+03  0.15500000000E+01 0.  1.
<mgrwt>
<rscale>  2 0.12499406E+03</rscale>
<asrwt>0</asrwt>
<pdfrwt beam="1">  1       21 0.12394704E-02 0.12499406E+03</pdfrwt>
<pdfrwt beam="2">  1       21 0.74585754E-01 0.12499406E+03</pdfrwt>
<totfact> 0.42440016E+06</totfact>
</mgrwt>
</event>
<event>
 5    0  0.1469552E+000  0.1250019E+03  0.7546771E-02  0.1235066E+00
         21   -1    0    0  503  502  0.00000000000E+00  0.00000000000E+00  0.23326857429E+03  0.23326857429E+03  0.00000000000E+00 0. -1.
         21   -1    0    0  502  503 -0.00000000000E+00 -0.00000000000E+00 -0.16746237698E+02  0.16746237698E+02  0.00000000000E+00 0. -1.
         25    2    1    2    0    0  0.00000000000E+00  0.00000000000E+00  0.21652233659E+03  0.25001481199E+03  0.12500193587E+03 0.  0.
          4    1    3    3  501    0  0.10011895064E+02  0.45730834374E+02  0.19102761350E+03  0.19668629559E+03  0.15500000000E+01 0.  1.
         -4    1    3    3    0  501 -0.10011895064E+02 -0.45730834374E+02  0.25494723095E+02  0.53328516397E+02  0.15500000000E+01 0.  1.
<mgrwt>
<rscale>  2 0.12500194E+03</rscale>
<asrwt>0</asrwt>
<pdfrwt beam="1">  1       21 0.35887471E-01 0.12500194E+03</pdfrwt>
<pdfrwt beam="2">  1       21 0.25763444E-02 0.12500194E+03</pdfrwt>
<totfact> 0.59873874E+06</totfact>
</mgrwt>
</event>
<event>
 5    0  0.1222151E+000  0.1249986E+03  0.7546771E-02  0.1235071E+00
         21   -1    0    0  503  502  0.00000000000E+00  0.00000000000E+00  0.16054574449E+04  0.16054574449E+04  0.00000000000E+00 0.  1.
         21   -1    0    0  502  503 -0.00000000000E+00 -0.00000000000E+00 -0.24330527224E+01  0.24330527224E+01  0.00000000000E+00 0.  1.
         25    2    1    2    0    0  0.00000000000E+00  0.00000000000E+00  0.16030243922E+04  0.16078904976E+04  0.12499860170E+03 0.  0.
          4    1    3    3  501    0 -0.62129847807E+02  0.64787755050E+01  0.78490120722E+03  0.78738453129E+03  0.15500000000E+01 0. -1.
         -4    1    3    3    0  501  0.62129847807E+02 -0.64787755050E+01  0.81812318493E+03  0.82050596631E+03  0.15500000000E+01 0. -1.
<mgrwt>
<rscale>  2 0.12499860E+03</rscale>
<asrwt>0</asrwt>
<pdfrwt beam="1">  1       21 0.24699261E+00 0.12499860E+03</pdfrwt>
<pdfrwt beam="2">  1       21 0.37431709E-03 0.12499860E+03</pdfrwt>
<totfact> 0.12467497E+06</totfact>
</mgrwt>
</event>
<event>
 4    0  0.1528918E+000  0.1245707E+03  0.7546771E-02  0.1235742E+00
         21   -1    0    0  503  502  0.00000000000E+00  0.00000000000E+00  0.72246308665E+03  0.72246308665E+03  0.00000000000E+00 0. -1.
         21   -1    0    0  502  503 -0.00000000000E+00 -0.00000000000E+00 -0.53697771785E+01  0.53697771785E+01  0.00000000000E+00 0. -1.
          4    1    1    2  501    0  0.19730477220E+01  0.56383278697E+02  0.51247746473E+03  0.51557591234E+03  0.15500000000E+01 0. -1.
         -4    1    1    2    0  501 -0.19730477220E+01 -0.56383278697E+02  0.20461584474E+03  0.21225695148E+03  0.15500000000E+01 0. -1.
<mgrwt>
<rscale>  2 0.12457072E+03</rscale>
<asrwt>0</asrwt>
<pdfrwt beam="1">  1       21 0.11114809E+00 0.12457072E+03</pdfrwt>
<pdfrwt beam="2">  1       21 0.82612014E-03 0.12457072E+03</pdfrwt>
<totfact> 0.32205661E+06</totfact>
</mgrwt>
</event>
<event>
 5    0  0.1577713E+000  0.1249998E+03  0.7546771E-02  0.1235070E+00
         21   -1    0    0  503  502  0.00000000000E+00  0.00000000000E+00  0.25690235917E+02  0.25690235917E+02  0.00000000000E+00 0.  1.
         21   -1    0    0  502  503 -0.00000000000E+00 -0.00000000000E+00 -0.15205153669E+03  0.15205153669E+03  0.00000000000E+00 0.  1.
         25    2    1    2    0    0  0.00000000000E+00  0.00000000000E+00 -0.12636130078E+03  0.17774177261E+03  0.12499983759E+03 0.  0.
          4    1    3    3  501    0 -0.62135122878E+02  0.65510515024E+01 -0.62634400462E+02  0.88482542866E+02  0.15500000000E+01 0. -1.
         -4    1    3    3    0  501  0.62135122878E+02 -0.65510515024E+01 -0.63726900314E+02  0.89259229744E+02  0.15500000000E+01 0. -1.
<mgrwt>
<rscale>  2 0.12499984E+03</rscale>
<asrwt>0</asrwt>
<pdfrwt beam="1">  1       21 0.39523439E-02 0.12499984E+03</pdfrwt>
<pdfrwt beam="2">  1       21 0.23392544E-01 0.12499984E+03</pdfrwt>
<totfact> 0.67411819E+06</totfact>
</mgrwt>
</event>
<event>
 5    0  0.1222151E+000  0.1249965E+03  0.7546771E-02  0.1235075E+00
         21   -1    0    0  503  502  0.00000000000E+00  0.00000000000E+00  0.39570174475E+01  0.39570174475E+01  0.00000000000E+00 0.  1.
         21   -1    0    0  502  503 -0.00000000000E+00 -0.00000000000E+00 -0.98711552323E+03  0.98711552323E+03  0.00000000000E+00 0.  1.
         25    2    1    2    0    0  0.00000000000E+00  0.00000000000E+00 -0.98315850578E+03  0.99107254068E+03  0.12499653352E+03 0.  0.
          4    1    3    3  501    0  0.24861492950E+02  0.56685743513E+02 -0.55898035014E+03  0.56239914801E+03  0.15500000000E+01 0.  1.
         -4    1    3    3    0  501 -0.24861492950E+02 -0.56685743513E+02 -0.42417815565E+03  0.42867339266E+03  0.15500000000E+01 0.  1.
<mgrwt>
<rscale>  2 0.12499653E+03</rscale>
<asrwt>0</asrwt>
<pdfrwt beam="1">  1       21 0.60877163E-03 0.12499653E+03</pdfrwt>
<pdfrwt beam="2">  1       21 0.15186400E+00 0.12499653E+03</pdfrwt>
<totfact> 0.23845041E+06</totfact>
</mgrwt>
</event>
<event>
 5    0  0.1360641E+000  0.1249957E+03  0.7546771E-02  0.1235076E+00
         21   -1    0    0  503  502  0.00000000000E+00  0.00000000000E+00  0.93048772567E+01  0.93048772567E+01  0.00000000000E+00 0. -1.
         21   -1    0    0  502  503 -0.00000000000E+00 -0.00000000000E+00 -0.41977781333E+03  0.41977781333E+03  0.00000000000E+00 0. -1.
         25    2    1    2    0    0  0.00000000000E+00  0.00000000000E+00 -0.41047293608E+03  0.42908269059E+03  0.12499569638E+03 0.  0.
          4    1    3    3  501    0  0.18558099012E+02 -0.53339972449E+02 -0.11350845560E+03  0.12679167044E+03  0.15500000000E+01 0. -1.
         -4    1    3    3    0  501 -0.18558099012E+02  0.53339972449E+02 -0.29696448048E+03  0.30229102015E+03  0.15500000000E+01 0. -1.
<mgrwt>
<rscale>  2 0.12499570E+03</rscale>
<asrwt>0</asrwt>
<pdfrwt beam="1">  1       21 0.14315195E-02 0.12499570E+03</pdfrwt>
<pdfrwt beam="2">  1       21 0.64581204E-01 0.12499570E+03</pdfrwt>
<totfact> 0.46175272E+06</totfact>
</mgrwt>
</event>
<event>
 5    0  0.1389206E+000  0.1249989E+03  0.7546771E-02  0.1235071E+00
         21   -1    0    0  503  502  0.00000000000E+00  0.00000000000E+00  0.12057065607E+02  0.12057065607E+02  0.00000000000E+00 0. -1.
         21   -1    0    0  502  503 -0.00000000000E+00 -0.00000000000E+00 -0.32397467842E+03  0.32397467842E+03  0.00000000000E+00 0. -1.
         25    2    1    2    0    0  0.00000000000E+00  0.00000000000E+00 -0.31191761281E+03  0.33603174402E+03  0.12499894324E+03 0.  0.
          4    1    3    3  501    0 -0.48947153733E+01 -0.30290749729E+02 -0.30227352678E+03  0.30383083327E+03  0.15500000000E+01 0.  1.
         -4    1    3    3    0  501  0.48947153733E+01  0.30290749729E+02 -0.96440860340E+01  0.32200910751E+02  0.15500000000E+01 0.  1.
<mgrwt>
<rscale>  2 0.12499894E+03</rscale>
<asrwt>0</asrwt>
<pdfrwt beam="1">  1       21 0.18549334E-02 0.12499894E+03</pdfrwt>
<pdfrwt beam="2">  1       21 0.49842252E-01 0.12499894E+03</pdfrwt>
<totfact> 0.52588264E+06</totfact>
</mgrwt>
</event>
<event>
 5    0  0.1539405E+000  0.1250129E+03  0.7546771E-02  0.1235049E+00
         21   -1    0    0  503  502  0.00000000000E+00  0.00000000000E+00  0.18267847339E+03  0.18267847339E+03  0.00000000000E+00 0.  1.
         21   -1    0    0  502  503 -0.00000000000E+00 -0.00000000000E+00 -0.21387600318E+02  0.21387600318E+02  0.00000000000E+00 0.  1.
         25    2    1    2    0    0  0.00000000000E+00  0.00000000000E+00  0.16129087307E+03  0.20406607371E+03  0.12501286615E+03 0.  0.
          4    1    3    3  501    0  0.60466487398E+02  0.14920169256E+02  0.88943887408E+02  0.10859201240E+03  0.15500000000E+01 0. -1.
         -4    1    3    3    0  501 -0.60466487398E+02 -0.14920169256E+02  0.72346985665E+02  0.95474061313E+02  0.15500000000E+01 0. -1.
<mgrwt>
<rscale>  2 0.12501287E+03</rscale>
<asrwt>0</asrwt>
<pdfrwt beam="1">  1       21 0.28104379E-01 0.12501287E+03</pdfrwt>
<pdfrwt beam="2">  1       21 0.32904002E-02 0.12501287E+03</pdfrwt>
<totfact> 0.64468318E+06</totfact>
</mgrwt>
</event>
<event>
 5    0  0.1275636E+000  0.1250029E+03  0.7546771E-02  0.1235065E+00
         21   -1    0    0  503  502  0.00000000000E+00  0.00000000000E+00  0.57770604329E+03  0.57770604329E+03  0.00000000000E+00 0.  1.
         21   -1    0    0  502  503 -0.00000000000E+00 -0.00000000000E+00 -0.67619661479E+01  0.67619661479E+01  0.00000000000E+00 0.  1.
         25    2    1    2    0    0  0.00000000000E+00  0.00000000000E+00  0.57094407714E+03  0.58446800944E+03  0.12500285930E+03 0.  0.
          4    1    3    3  501    0 -0.30415184248E+02  0.49268645582E+02  0.17566488860E+03  0.18496766868E+03  0.15500000000E+01 0. -1.
         -4    1    3    3    0  501  0.30415184248E+02 -0.49268645582E+02  0.39527918855E+03  0.39950034076E+03  0.15500000000E+01 0. -1.
<mgrwt>
<rscale>  2 0.12500286E+03</rscale>
<asrwt>0</asrwt>
<pdfrwt beam="1">  1       21 0.88877814E-01 0.12500286E+03</pdfrwt>
<pdfrwt beam="2">  1       21 0.10403029E-02 0.12500286E+03</pdfrwt>
<totfact> 0.37801925E+06</totfact>
</mgrwt>
</event>
<event>
 5    0  0.1305878E+000  0.1249947E+03  0.7546771E-02  0.1235078E+00
         21   -1    0    0  503  502  0.00000000000E+00  0.00000000000E+00  0.65745734686E+03  0.65745734686E+03  0.00000000000E+00 0. -1.
         21   -1    0    0  502  503 -0.00000000000E+00 -0.00000000000E+00 -0.59409443575E+01  0.59409443575E+01  0.00000000000E+00 0. -1.
         25    2    1    2    0    0  0.00000000000E+00  0.00000000000E+00  0.65151640250E+03  0.66339829122E+03  0.12499468013E+03 0.  0.
          4    1    3    3  501    0 -0.60099384823E+02  0.16412694952E+02  0.35076642315E+03  0.35625945422E+03  0.15500000000E+01 0. -1.
         -4    1    3    3    0  501  0.60099384823E+02 -0.16412694952E+02  0.30074997936E+03  0.30713883700E+03  0.15500000000E+01 0. -1.
<mgrwt>
<rscale>  2 0.12499468E+03</rscale>
<asrwt>0</asrwt>
<pdfrwt beam="1">  1       21 0.10114723E+00 0.12499468E+03</pdfrwt>
<pdfrwt beam="2">  1       21 0.91399196E-03 0.12499468E+03</pdfrwt>
<totfact> 0.34374044E+06</totfact>
</mgrwt>
</event>
<event>
 5    0  0.1358144E+000  0.1250002E+03  0.7546771E-02  0.1235069E+00
         21   -1    0    0  503  502  0.00000000000E+00  0.00000000000E+00  0.48422575779E+03  0.48422575779E+03  0.00000000000E+00 0. -1.
         21   -1    0    0  502  503 -0.00000000000E+00 -0.00000000000E+00 -0.80670228763E+01  0.80670228763E+01  0.00000000000E+00 0. -1.
         25    2    1    2    0    0  0.00000000000E+00  0.00000000000E+00  0.47615873491E+03  0.49229278067E+03  0.12500016425E+03 0.  0.
          4    1    3    3  501    0 -0.62107126134E+02  0.10925203604E+01  0.21155208773E+03  0.22048849639E+03  0.15500000000E+01 0.  1.
         -4    1    3    3    0  501  0.62107126134E+02 -0.10925203604E+01  0.26460664718E+03  0.27180428428E+03  0.15500000000E+01 0.  1.
<mgrwt>
<rscale>  2 0.12500016E+03</rscale>
<asrwt>0</asrwt>
<pdfrwt beam="1">  1       21 0.74496248E-01 0.12500016E+03</pdfrwt>
<pdfrwt beam="2">  1       21 0.12410808E-02 0.12500016E+03</pdfrwt>
<totfact> 0.42464993E+06</totfact>
</mgrwt>
</event>
<event>
 5    0  0.1509518E+000  0.1250070E+03  0.7546771E-02  0.1235058E+00
         21   -1    0    0  503  502  0.00000000000E+00  0.00000000000E+00  0.10656047166E+03  0.10656047166E+03  0.00000000000E+00 0. -1.
         21   -1    0    0  502  503 -0.00000000000E+00 -0.00000000000E+00 -0.36661720910E+02  0.36661720910E+02  0.00000000000E+00 0. -1.
         25    2    1    2    0    0  0.00000000000E+00  0.00000000000E+00  0.69898750749E+02  0.14322219257E+03  0.12500704415E+03 0.  0.
          4    1    3    3  501    0  0.58440397937E+02 -0.59543080974E+01  0.59349400479E+02  0.83519385373E+02  0.15500000000E+01 0.  1.
         -4    1    3    3    0  501 -0.58440397937E+02  0.59543080974E+01  0.10549350270E+02  0.59702807195E+02  0.15500000000E+01 0.  1.
<mgrwt>
<rscale>  2 0.12500704E+03</rscale>
<asrwt>0</asrwt>
<pdfrwt beam="1">  1       21 0.16393919E-01 0.12500704E+03</pdfrwt>
<pdfrwt beam="2">  1       21 0.56402648E-02 0.12500704E+03</pdfrwt>
<totfact> 0.71608550E+06</totfact>
</mgrwt>
</event>
<event>
 5    0  0.1501348E+000  0.1250037E+03  0.7546771E-02  0.1235063E+00
         21   -1    0    0  503  502  0.00000000000E+00  0.00000000000E+00  0.10125394522E+03  0.10125394522E+03  0.00000000000E+00 0. -1.
         21   -1    0    0  502  503 -0.00000000000E+00 -0.00000000000E+00 -0.38581028260E+02  0.38581028260E+02  0.00000000000E+00 0. -1.
         25    2    1    2    0    0  0.00000000000E+00  0.00000000000E+00  0.62672916959E+02  0.13983497348E+03  0.12500370110E+03 0.  0.
          4    1    3    3  501    0  0.47051737293E+02 -0.92524891653E+01  0.76146660957E+02  0.90001061177E+02  0.15500000000E+01 0. -1.
         -4    1    3    3    0  501 -0.47051737293E+02  0.92524891653E+01 -0.13473743998E+02  0.49833912302E+02  0.15500000000E+01 0. -1.
<mgrwt>
<rscale>  2 0.12500370E+03</rscale>
<asrwt>0</asrwt>
<pdfrwt beam="1">  1       21 0.15577530E-01 0.12500370E+03</pdfrwt>
<pdfrwt beam="2">  1       21 0.59355428E-02 0.12500370E+03</pdfrwt>
<totfact> 0.72054065E+06</totfact>
</mgrwt>
</event>
<event>
 5    0  0.1427218E+000  0.1249938E+03  0.7546771E-02  0.1235079E+00
         21   -1    0    0  503  502  0.00000000000E+00  0.00000000000E+00  0.11504911293E+03  0.11504911293E+03  0.00000000000E+00 0.  1.
         21   -1    0    0  502  503 -0.00000000000E+00 -0.00000000000E+00 -0.33949522823E+02  0.33949522823E+02  0.00000000000E+00 0.  1.
         25    2    1    2    0    0  0.00000000000E+00  0.00000000000E+00  0.81099590109E+02  0.14899863575E+03  0.12499379961E+03 0.  0.
          4    1    3    3  501    0  0.23263200884E+02 -0.25822352746E+02  0.10243867879E+03  0.10818528472E+03  0.15500000000E+01 0.  1.
         -4    1    3    3    0  501 -0.23263200884E+02  0.25822352746E+02 -0.21339088686E+02  0.40813351034E+02  0.15500000000E+01 0.  1.
<mgrwt>
<rscale>  2 0.12499380E+03</rscale>
<asrwt>0</asrwt>
<pdfrwt beam="1">  1       21 0.17699863E-01 0.12499380E+03</pdfrwt>
<pdfrwt beam="2">  1       21 0.52230036E-02 0.12499380E+03</pdfrwt>
<totfact> 0.70896408E+06</totfact>
</mgrwt>
</event>
<event>
 5    0  0.1611495E+000  0.1249947E+03  0.7546771E-02  0.1235077E+00
         21   -1    0    0  503  502  0.00000000000E+00  0.00000000000E+00  0.74327842249E+02  0.74327842249E+02  0.00000000000E+00 0. -1.
         21   -1    0    0  502  503 -0.00000000000E+00 -0.00000000000E+00 -0.52549910079E+02  0.52549910079E+02  0.00000000000E+00 0. -1.
         25    2    1    2    0    0  0.00000000000E+00  0.00000000000E+00  0.21777932170E+02  0.12687775233E+03  0.12499474271E+03 0.  0.
          4    1    3    3  501    0 -0.55958405791E+02 -0.12362672898E+02  0.36150418553E+02  0.67774878247E+02  0.15500000000E+01 0.  1.
         -4    1    3    3    0  501  0.55958405791E+02  0.12362672898E+02 -0.14372486383E+02  0.59102874081E+02  0.15500000000E+01 0.  1.
<mgrwt>
<rscale>  2 0.12499474E+03</rscale>
<asrwt>0</asrwt>
<pdfrwt beam="1">  1       21 0.11435053E-01 0.12499474E+03</pdfrwt>
<pdfrwt beam="2">  1       21 0.80846015E-02 0.12499474E+03</pdfrwt>
<totfact> 0.73795689E+06</totfact>
</mgrwt>
</event>
<event>
 5    0  0.1222151E+000  0.1250000E+03  0.7546771E-02  0.1235069E+00
         21   -1    0    0  503  502  0.00000000000E+00  0.00000000000E+00  0.25021505711E+01  0.25021505711E+01  0.00000000000E+00 0. -1.
         21   -1    0    0  502  503 -0.00000000000E+00 -0.00000000000E+00 -0.15611576908E+04  0.15611576908E+04  0.00000000000E+00 0. -1.
         25    2    1    2    0    0  0.00000000000E+00  0.00000000000E+00 -0.15586555402E+04  0.15636598413E+04  0.12500002572E+03 0.  0.
          4    1    3    3  501    0  0.32819207210E+02 -0.45884743777E+02 -0.11152988514E+04  0.11167257678E+04  0.15500000000E+01 0.  1.
         -4    1    3    3    0  501 -0.32819207210E+02  0.45884743777E+02 -0.44335668876E+03  0.44693407349E+03  0.15500000000E+01 0.  1.
<mgrwt>
<rscale>  2 0.12500003E+03</rscale>
<asrwt>0</asrwt>
<pdfrwt beam="1">  1       21 0.38494698E-03 0.12500003E+03</pdfrwt>
<pdfrwt beam="2">  1       21 0.24017765E+00 0.12500003E+03</pdfrwt>
<totfact> 0.13074886E+06</totfact>
</mgrwt>
</event>
<event>
 5    0  0.1471378E+000  0.1250063E+03  0.7546771E-02  0.1235059E+00
         21   -1    0    0  503  502  0.00000000000E+00  0.00000000000E+00  0.68351608098E+02  0.68351608098E+02  0.00000000000E+00 0. -1.
         21   -1    0    0  502  503 -0.00000000000E+00 -0.00000000000E+00 -0.57155119806E+02  0.57155119806E+02  0.00000000000E+00 0. -1.
         25    2    1    2    0    0  0.00000000000E+00  0.00000000000E+00  0.11196488292E+02  0.12550672790E+03  0.12500630944E+03 0.  0.
          4    1    3    3  501    0 -0.32190969743E+02  0.52697817178E+02 -0.39753026167E+01  0.61899305321E+02  0.15500000000E+01 0. -1.
         -4    1    3    3    0  501  0.32190969743E+02 -0.52697817178E+02  0.15171790908E+02  0.63607422584E+02  0.15500000000E+01 0. -1.
<mgrwt>
<rscale>  2 0.12500631E+03</rscale>
<asrwt>0</asrwt>
<pdfrwt beam="1">  1       21 0.10515632E-01 0.12500631E+03</pdfrwt>
<pdfrwt beam="2">  1       21 0.87930954E-02 0.12500631E+03</pdfrwt>
<totfact> 0.73962559E+06</totfact>
</mgrwt>
</event>
<event>
 5    0  0.1222151E+000  0.1250013E+03  0.7546771E-02  0.1235067E+00
         21   -1    0    0  503  502  0.00000000000E+00  0.00000000000E+00  0.98809956953E+03  0.98809956953E+03  0.00000000000E+00 0. -1.
         21   -1    0    0  502  503 -0.00000000000E+00 -0.00000000000E+00 -0.39533809385E+01  0.39533809385E+01  0.00000000000E+00 0. -1.
         25    2    1    2    0    0  0.00000000000E+00  0.00000000000E+00  0.98414618860E+03  0.99205295047E+03  0.12500134405E+03 0.  0.
          4    1    3    3  501    0  0.46042234409E+02  0.14081846287E+02  0.80810938053E+03  0.80954392045E+03  0.15500000000E+01 0. -1.
         -4    1    3    3    0  501 -0.46042234409E+02 -0.14081846287E+02  0.17603680807E+03  0.18250903002E+03  0.15500000000E+01 0. -1.
<mgrwt>
<rscale>  2 0.12500134E+03</rscale>
<asrwt>0</asrwt>
<pdfrwt beam="1">  1       21 0.15201512E+00 0.12500134E+03</pdfrwt>
<pdfrwt beam="2">  1       21 0.60821324E-03 0.12500134E+03</pdfrwt>
<totfact> 0.23817481E+06</totfact>
</mgrwt>
</event>
<event>
 5    0  0.1467651E+000  0.1250017E+03  0.7546771E-02  0.1235067E+00
         21   -1    0    0  503  502  0.00000000000E+00  0.00000000000E+00  0.21854475347E+02  0.21854475347E+02  0.00000000000E+00 0.  1.
         21   -1    0    0  502  503 -0.00000000000E+00 -0.00000000000E+00 -0.17874397167E+03  0.17874397167E+03  0.00000000000E+00 0.  1.
         25    2    1    2    0    0  0.00000000000E+00  0.00000000000E+00 -0.15688949632E+03  0.20059844702E+03  0.12500169154E+03 0.  0.
          4    1    3    3  501    0  0.25287991757E+02  0.53681781516E+02 -0.47049644829E+02  0.75744886113E+02  0.15500000000E+01 0. -1.
         -4    1    3    3    0  501 -0.25287991757E+02 -0.53681781516E+02 -0.10983985149E+03  0.12485356090E+03  0.15500000000E+01 0. -1.
<mgrwt>
<rscale>  2 0.12500169E+03</rscale>
<asrwt>0</asrwt>
<pdfrwt beam="1">  1       21 0.33622271E-02 0.12500169E+03</pdfrwt>
<pdfrwt beam="2">  1       21 0.27499072E-01 0.12500169E+03</pdfrwt>
<totfact> 0.64859687E+06</totfact>
</mgrwt>
</event>
<event>
 5    0  0.1514632E+000  0.1250027E+03  0.7546771E-02  0.1235065E+00
         21   -1    0    0  503  502  0.00000000000E+00  0.00000000000E+00  0.79238189325E+02  0.79238189325E+02  0.00000000000E+00 0.  1.
         21   -1    0    0  502  503 -0.00000000000E+00 -0.00000000000E+00 -0.49299683966E+02  0.49299683966E+02  0.00000000000E+00 0.  1.
         25    2    1    2    0    0  0.00000000000E+00  0.00000000000E+00  0.29938505359E+02  0.12853787329E+03  0.12500268304E+03 0.  0.
          4    1    3    3  501    0 -0.53624683434E+02  0.18656058154E+02 -0.11852130185E+02  0.58021812012E+02  0.15500000000E+01 0.  1.
         -4    1    3    3    0  501  0.53624683434E+02 -0.18656058154E+02  0.41790635544E+02  0.70516061280E+02  0.15500000000E+01 0.  1.
<mgrwt>
<rscale>  2 0.12500268E+03</rscale>
<asrwt>0</asrwt>
<pdfrwt beam="1">  1       21 0.12190491E-01 0.12500268E+03</pdfrwt>
<pdfrwt beam="2">  1       21 0.75845668E-02 0.12500268E+03</pdfrwt>
<totfact> 0.73555983E+06</totfact>
</mgrwt>
</event>
<event>
 5    0  0.1480896E+000  0.1249987E+03  0.7546771E-02  0.1235071E+00
         21   -1    0    0  503  502  0.00000000000E+00  0.00000000000E+00  0.22025618000E+02  0.22025618000E+02  0.00000000000E+00 0.  1.
         21   -1    0    0  502  503 -0.00000000000E+00 -0.00000000000E+00 -0.17734654736E+03  0.17734654736E+03  0.00000000000E+00 0.  1.
         25    2    1    2    0    0  0.00000000000E+00  0.00000000000E+00 -0.15532092936E+03  0.19937216536E+03  0.12499867689E+03 0.  0.
          4    1    3    3  501    0 -0.29714552499E+02  0.50581444810E+02 -0.11195571900E+03  0.12640380812E+03  0.15500000000E+01 0. -1.
         -4    1    3    3    0  501  0.29714552499E+02 -0.50581444810E+02 -0.43365210358E+02  0.72968357243E+02  0.15500000000E+01 0. -1.
<mgrwt>
<rscale>  2 0.12499868E+03</rscale>
<asrwt>0</asrwt>
<pdfrwt beam="1">  1       21 0.33885566E-02 0.12499868E+03</pdfrwt>
<pdfrwt beam="2">  1       21 0.27284084E-01 0.12499868E+03</pdfrwt>
<totfact> 0.64997523E+06</totfact>
</mgrwt>
</event>
<event>
 5    0  0.1222151E+000  0.1249988E+03  0.7546771E-02  0.1235071E+00
         21   -1    0    0  503  502  0.00000000000E+00  0.00000000000E+00  0.27735643615E+01  0.27735643615E+01  0.00000000000E+00 0.  1.
         21   -1    0    0  502  503 -0.00000000000E+00 -0.00000000000E+00 -0.14083590374E+04  0.14083590374E+04  0.00000000000E+00 0.  1.
         25    2    1    2    0    0  0.00000000000E+00  0.00000000000E+00 -0.14055854730E+04  0.14111326017E+04  0.12499879094E+03 0.  0.
          4    1    3    3  501    0 -0.28403755687E+02  0.40403502199E+02 -0.27076170080E+03  0.27523356889E+03  0.15500000000E+01 0.  1.
         -4    1    3    3    0  501  0.28403755687E+02 -0.40403502199E+02 -0.11348237722E+04  0.11358990328E+04  0.15500000000E+01 0.  1.
<mgrwt>
<rscale>  2 0.12499879E+03</rscale>
<asrwt>0</asrwt>
<pdfrwt beam="1">  1       21 0.42670120E-03 0.12499879E+03</pdfrwt>
<pdfrwt beam="2">  1       21 0.21667113E+00 0.12499879E+03</pdfrwt>
<totfact> 0.15364989E+06</totfact>
</mgrwt>
</event>
<event>
 5    0  0.1597309E+000  0.1249973E+03  0.7546771E-02  0.1235074E+00
         21   -1    0    0  503  502  0.00000000000E+00  0.00000000000E+00  0.26408143613E+02  0.26408143613E+02  0.00000000000E+00 0.  1.
         21   -1    0    0  502  503 -0.00000000000E+00 -0.00000000000E+00 -0.14791193131E+03  0.14791193131E+03  0.00000000000E+00 0.  1.
         25    2    1    2    0    0  0.00000000000E+00  0.00000000000E+00 -0.12150378770E+03  0.17432007492E+03  0.12499727235E+03 0.  0.
          4    1    3    3  501    0  0.47507994737E+02  0.31566008274E+02 -0.96314090425E+02  0.11194743837E+03  0.15500000000E+01 0. -1.
         -4    1    3    3    0  501 -0.47507994737E+02 -0.31566008274E+02 -0.25189697272E+02  0.62372636556E+02  0.15500000000E+01 0. -1.
<mgrwt>
<rscale>  2 0.12499727E+03</rscale>
<asrwt>0</asrwt>
<pdfrwt beam="1">  1       21 0.40627913E-02 0.12499727E+03</pdfrwt>
<pdfrwt beam="2">  1       21 0.22755682E-01 0.12499727E+03</pdfrwt>
<totfact> 0.67813863E+06</totfact>
</mgrwt>
</event>
<event>
 5    0  0.1412089E+000  0.1250038E+03  0.7546771E-02  0.1235063E+00
         21   -1    0    0  503  502  0.00000000000E+00  0.00000000000E+00  0.13333831168E+02  0.13333831168E+02  0.00000000000E+00 0.  1.
         21   -1    0    0  502  503 -0.00000000000E+00 -0.00000000000E+00 -0.29297565091E+03  0.29297565091E+03  0.00000000000E+00 0.  1.
         25    2    1    2    0    0  0.00000000000E+00  0.00000000000E+00 -0.27964181975E+03  0.30630948208E+03  0.12500380579E+03 0.  0.
          4    1    3    3  501    0 -0.44411507171E+02  0.26488975290E+01 -0.32318739476E+02  0.55011835532E+02  0.15500000000E+01 0.  1.
         -4    1    3    3    0  501  0.44411507171E+02 -0.26488975290E+01 -0.24732308027E+03  0.25129764655E+03  0.15500000000E+01 0.  1.
<mgrwt>
<rscale>  2 0.12500381E+03</rscale>
<asrwt>0</asrwt>
<pdfrwt beam="1">  1       21 0.20513587E-02 0.12500381E+03</pdfrwt>
<pdfrwt beam="2">  1       21 0.45073176E-01 0.12500381E+03</pdfrwt>
<totfact> 0.54930623E+06</totfact>
</mgrwt>
</event>
<event>
 5    0  0.1576647E+000  0.1250024E+03  0.7546771E-02  0.1235066E+00
         21   -1    0    0  503  502  0.00000000000E+00  0.00000000000E+00  0.51110711729E+02  0.51110711729E+02  0.00000000000E+00 0.  1.
         21   -1    0    0  502  503 -0.00000000000E+00 -0.00000000000E+00 -0.76430113599E+02  0.76430113599E+02  0.00000000000E+00 0.  1.
         25    2    1    2    0    0  0.00000000000E+00  0.00000000000E+00 -0.25319401870E+02  0.12754082533E+03  0.12500236003E+03 0.  0.
          4    1    3    3  501    0 -0.20362064078E+02  0.53516089399E+02  0.12856338005E+02  0.58704969168E+02  0.15500000000E+01 0. -1.
         -4    1    3    3    0  501  0.20362064078E+02 -0.53516089399E+02 -0.38175739875E+02  0.68835856159E+02  0.15500000000E+01 0. -1.
<mgrwt>
<rscale>  2 0.12500236E+03</rscale>
<asrwt>0</asrwt>
<pdfrwt beam="1">  1       21 0.78631864E-02 0.12500236E+03</pdfrwt>
<pdfrwt beam="2">  1       21 0.11758479E-01 0.12500236E+03</pdfrwt>
<totfact> 0.73691245E+06</totfact>
</mgrwt>
</event>
<event>
 5    0  0.1222151E+000  0.1249666E+03  0.7546771E-02  0.1235122E+00
         21   -1    0    0  503  502  0.00000000000E+00  0.00000000000E+00  0.13734305967E+04  0.13734305967E+04  0.00000000000E+00 0.  1.
         21   -1    0    0  502  503 -0.00000000000E+00 -0.00000000000E+00 -0.28426350101E+01  0.28426350101E+01  0.00000000000E+00 0.  1.
         25    2    1    2    0    0  0.00000000000E+00  0.00000000000E+00  0.13705879617E+04  0.13762732317E+04  0.12496658590E+03 0.  0.
          4    1    3    3  501    0 -0.25440674373E+02 -0.18921910524E+02  0.12780104350E+04  0.12784046077E+04  0.15500000000E+01 0. -1.
         -4    1    3    3    0  501  0.25440674373E+02  0.18921910524E+02  0.92577526667E+02  0.97868623952E+02  0.15500000000E+01 0. -1.
<mgrwt>
<rscale>  2 0.12496659E+03</rscale>
<asrwt>0</asrwt>
<pdfrwt beam="1">  1       21 0.21129648E+00 0.12496659E+03</pdfrwt>
<pdfrwt beam="2">  1       21 0.43732956E-03 0.12496659E+03</pdfrwt>
<totfact> 0.15948797E+06</totfact>
</mgrwt>
</event>
<event>
 5    0  0.1222151E+000  0.1250008E+03  0.7546771E-02  0.1235068E+00
         21   -1    0    0  503  502  0.00000000000E+00  0.00000000000E+00  0.28294129821E+03  0.28294129821E+03  0.00000000000E+00 0. -1.
         21   -1    0    0  502  503 -0.00000000000E+00 -0.00000000000E+00 -0.13806054511E+02  0.13806054511E+02  0.00000000000E+00 0. -1.
         25    2    1    2    0    0  0.00000000000E+00  0.00000000000E+00  0.26913524369E+03  0.29674735272E+03  0.12500084778E+03 0.  0.
          4    1    3    3  501    0 -0.15380076240E+02 -0.16355402743E+02 -0.38540413653E+01  0.22832040620E+02  0.15500000000E+01 0. -1.
         -4    1    3    3    0  501  0.15380076240E+02  0.16355402743E+02  0.27298928506E+03  0.27391531210E+03  0.15500000000E+01 0. -1.
<mgrwt>
<rscale>  2 0.12500085E+03</rscale>
<asrwt>0</asrwt>
<pdfrwt beam="1">  1       21 0.43529426E-01 0.12500085E+03</pdfrwt>
<pdfrwt beam="2">  1       21 0.21240086E-02 0.12500085E+03</pdfrwt>
<totfact> 0.55726384E+06</totfact>
</mgrwt>
</event>
<event>
 5    0  0.1298668E+000  0.1249404E+03  0.7546771E-02  0.1235162E+00
         21   -1    0    0  503  502  0.00000000000E+00  0.00000000000E+00  0.28568731400E+02  0.28568731400E+02  0.00000000000E+00 0.  1.
         21   -1    0    0  502  503 -0.00000000000E+00 -0.00000000000E+00 -0.13660132254E+03  0.13660132254E+03  0.00000000000E+00 0.  1.
         25    2    1    2    0    0  0.00000000000E+00  0.00000000000E+00 -0.10803259114E+03  0.16517005394E+03  0.12494040968E+03 0.  0.
          4    1    3    3  501    0  0.23176496106E+02 -0.47611132510E+02 -0.10247541136E+02  0.53957247057E+02  0.15500000000E+01 0. -1.
         -4    1    3    3    0  501 -0.23176496106E+02  0.47611132510E+02 -0.97785050006E+02  0.11121280689E+03  0.15500000000E+01 0. -1.
<mgrwt>
<rscale>  2 0.12494041E+03</rscale>
<asrwt>0</asrwt>
<pdfrwt beam="1">  1       21 0.43951895E-02 0.12494041E+03</pdfrwt>
<pdfrwt beam="2">  1       21 0.21015588E-01 0.12494041E+03</pdfrwt>
<totfact> 0.68997648E+06</totfact>
</mgrwt>
</event>
<event>
 5    0  0.1222151E+000  0.1249973E+03  0.7546771E-02  0.1235073E+00
         21   -1    0    0  503  502  0.00000000000E+00  0.00000000000E+00  0.10999376605E+04  0.10999376605E+04  0.00000000000E+00 0.  1.
         21   -1    0    0  502  503 -0.00000000000E+00 -0.00000000000E+00 -0.35511848435E+01  0.35511848435E+01  0.00000000000E+00 0.  1.
         25    2    1    2    0    0  0.00000000000E+00  0.00000000000E+00  0.10963864756E+04  0.11034888453E+04  0.12499731115E+03 0.  0.
          4    1    3    3  501    0 -0.36425313496E+02  0.48753770900E+02  0.67302451920E+03  0.67577225423E+03  0.15500000000E+01 0. -1.
         -4    1    3    3    0  501  0.36425313496E+02 -0.48753770900E+02  0.42336195642E+03  0.42771659108E+03  0.15500000000E+01 0. -1.
<mgrwt>
<rscale>  2 0.12499731E+03</rscale>
<asrwt>0</asrwt>
<pdfrwt beam="1">  1       21 0.16922091E+00 0.12499731E+03</pdfrwt>
<pdfrwt beam="2">  1       21 0.54633701E-03 0.12499731E+03</pdfrwt>
<totfact> 0.21175430E+06</totfact>
</mgrwt>
</event>
<event>
 5    0  0.1222151E+000  0.1249992E+03  0.7546771E-02  0.1235071E+00
         21   -1    0    0  503  502  0.00000000000E+00  0.00000000000E+00  0.17414059968E+01  0.17414059968E+01  0.00000000000E+00 0. -1.
         21   -1    0    0  502  503 -0.00000000000E+00 -0.00000000000E+00 -0.22431293625E+04  0.22431293625E+04  0.00000000000E+00 0. -1.
         25    2    1    2    0    0  0.00000000000E+00  0.00000000000E+00 -0.22413879565E+04  0.22448707685E+04  0.12499918277E+03 0.  0.
          4    1    3    3  501    0  0.42515387544E+02  0.45784693607E+02 -0.11208512170E+04  0.11225923791E+04  0.15500000000E+01 0. -1.
         -4    1    3    3    0  501 -0.42515387544E+02 -0.45784693607E+02 -0.11205367394E+04  0.11222783894E+04  0.15500000000E+01 0. -1.
<mgrwt>
<rscale>  2 0.12499918E+03</rscale>
<asrwt>0</asrwt>
<pdfrwt beam="1">  1       21 0.26790749E-03 0.12499918E+03</pdfrwt>
<pdfrwt beam="2">  1       21 0.34509828E+00 0.12499918E+03</pdfrwt>
<totfact> 0.57972940E+05</totfact>
</mgrwt>
</event>
<event>
 5    0  0.1512319E+000  0.1250030E+03  0.7546771E-02  0.1235065E+00
         21   -1    0    0  503  502  0.00000000000E+00  0.00000000000E+00  0.21564295377E+03  0.21564295377E+03  0.00000000000E+00 0. -1.
         21   -1    0    0  502  503 -0.00000000000E+00 -0.00000000000E+00 -0.18115306025E+02  0.18115306025E+02  0.00000000000E+00 0. -1.
         25    2    1    2    0    0  0.00000000000E+00  0.00000000000E+00  0.19752764775E+03  0.23375825980E+03  0.12500300956E+03 0.  0.
          4    1    3    3  501    0 -0.54260129592E+02  0.44610551686E+01  0.15609675798E+03  0.16532592970E+03  0.15500000000E+01 0. -1.
         -4    1    3    3    0  501  0.54260129592E+02 -0.44610551686E+01  0.41430889764E+02  0.68432330102E+02  0.15500000000E+01 0. -1.
<mgrwt>
<rscale>  2 0.12500301E+03</rscale>
<asrwt>0</asrwt>
<pdfrwt beam="1">  1       21 0.33175837E-01 0.12500301E+03</pdfrwt>
<pdfrwt beam="2">  1       21 0.27869703E-02 0.12500301E+03</pdfrwt>
<totfact> 0.61437278E+06</totfact>
</mgrwt>
</event>
<event>
 5    0  0.1418122E+000  0.1249968E+03  0.7546771E-02  0.1235074E+00
         21   -1    0    0  503  502  0.00000000000E+00  0.00000000000E+00  0.21690149627E+03  0.21690149627E+03  0.00000000000E+00 0.  1.
         21   -1    0    0  502  503 -0.00000000000E+00 -0.00000000000E+00 -0.18008404535E+02  0.18008404535E+02  0.00000000000E+00 0.  1.
         25    2    1    2    0    0  0.00000000000E+00  0.00000000000E+00  0.19889309174E+03  0.23490990081E+03  0.12499679818E+03 0.  0.
          4    1    3    3  501    0  0.38451432122E+02 -0.81239920763E+01  0.19072722796E+03  0.19474031392E+03  0.15500000000E+01 0. -1.
         -4    1    3    3    0  501 -0.38451432122E+02  0.81239920763E+01  0.81658637767E+01  0.40169586888E+02  0.15500000000E+01 0. -1.
<mgrwt>
<rscale>  2 0.12499680E+03</rscale>
<asrwt>0</asrwt>
<pdfrwt beam="1">  1       21 0.33369459E-01 0.12499680E+03</pdfrwt>
<pdfrwt beam="2">  1       21 0.27705239E-02 0.12499680E+03</pdfrwt>
<totfact> 0.61333683E+06</totfact>
</mgrwt>
</event>
<event>
 5    0  0.1666451E+000  0.1250038E+03  0.7546771E-02  0.1235063E+00
         21   -1    0    0  503  502  0.00000000000E+00  0.00000000000E+00  0.62491095884E+02  0.62491095884E+02  0.00000000000E+00 0. -1.
         21   -1    0    0  502  503 -0.00000000000E+00 -0.00000000000E+00 -0.62512667883E+02  0.62512667883E+02  0.00000000000E+00 0. -1.
         25    2    1    2    0    0  0.00000000000E+00  0.00000000000E+00 -0.21571998953E-01  0.12500376377E+03  0.12500376191E+03 0.  0.
          4    1    3    3  501    0 -0.97154316074E+01  0.61159556990E+02 -0.83295360332E+01  0.62503317457E+02  0.15500000000E+01 0.  1.
         -4    1    3    3    0  501  0.97154316074E+01 -0.61159556990E+02  0.83079640343E+01  0.62500446310E+02  0.15500000000E+01 0.  1.
<mgrwt>
<rscale>  2 0.12500376E+03</rscale>
<asrwt>0</asrwt>
<pdfrwt beam="1">  1       21 0.96140147E-02 0.12500376E+03</pdfrwt>
<pdfrwt beam="2">  1       21 0.96173335E-02 0.12500376E+03</pdfrwt>
<totfact> 0.74035952E+06</totfact>
</mgrwt>
</event>
<event>
 5    0  0.1517701E+000  0.1249881E+03  0.7546771E-02  0.1235088E+00
         21   -1    0    0  503  502  0.00000000000E+00  0.00000000000E+00  0.12338376898E+02  0.12338376898E+02  0.00000000000E+00 0. -1.
         21   -1    0    0  502  503 -0.00000000000E+00 -0.00000000000E+00 -0.31653299569E+03  0.31653299569E+03  0.00000000000E+00 0. -1.
         25    2    1    2    0    0  0.00000000000E+00  0.00000000000E+00 -0.30419461879E+03  0.32887137258E+03  0.12498805385E+03 0.  0.
          4    1    3    3  501    0 -0.56602923034E+02  0.26114928172E+02 -0.16301625861E+03  0.17453533579E+03  0.15500000000E+01 0.  1.
         -4    1    3    3    0  501  0.56602923034E+02 -0.26114928172E+02 -0.14117836018E+03  0.15433603679E+03  0.15500000000E+01 0.  1.
<mgrwt>
<rscale>  2 0.12498805E+03</rscale>
<asrwt>0</asrwt>
<pdfrwt beam="1">  1       21 0.18982123E-02 0.12498805E+03</pdfrwt>
<pdfrwt beam="2">  1       21 0.48697371E-01 0.12498805E+03</pdfrwt>
<totfact> 0.53153663E+06</totfact>
</mgrwt>
</event>
<event>
 5    0  0.1698258E+000  0.1249996E+03  0.7546771E-02  0.1235070E+00
         21   -1    0    0  503  502  0.00000000000E+00  0.00000000000E+00  0.39298735628E+02  0.39298735628E+02  0.00000000000E+00 0. -1.
         21   -1    0    0  502  503 -0.00000000000E+00 -0.00000000000E+00 -0.99398157447E+02  0.99398157447E+02  0.00000000000E+00 0. -1.
         25    2    1    2    0    0  0.00000000000E+00  0.00000000000E+00 -0.60099421818E+02  0.13869689308E+03  0.12499955058E+03 0.  0.
          4    1    3    3  501    0 -0.46368868945E+02  0.38919870026E+02 -0.12896352400E+02  0.61915641766E+02  0.15500000000E+01 0.  1.
         -4    1    3    3    0  501  0.46368868945E+02 -0.38919870026E+02 -0.47203069418E+02  0.76781251309E+02  0.15500000000E+01 0.  1.
<mgrwt>
<rscale>  2 0.12499955E+03</rscale>
<asrwt>0</asrwt>
<pdfrwt beam="1">  1       21 0.60459595E-02 0.12499955E+03</pdfrwt>
<pdfrwt beam="2">  1       21 0.15292024E-01 0.12499955E+03</pdfrwt>
<totfact> 0.72210713E+06</totfact>
</mgrwt>
</event>
<event>
 5    0  0.1222151E+000  0.1250097E+03  0.7546771E-02  0.1235054E+00
         21   -1    0    0  503  502  0.00000000000E+00  0.00000000000E+00  0.17382456054E+04  0.17382456054E+04  0.00000000000E+00 0.  1.
         21   -1    0    0  502  503 -0.00000000000E+00 -0.00000000000E+00 -0.22475848309E+01  0.22475848309E+01  0.00000000000E+00 0.  1.
         25    2    1    2    0    0  0.00000000000E+00  0.00000000000E+00  0.17359980206E+04  0.17404931903E+04  0.12500967091E+03 0.  0.
          4    1    3    3  501    0  0.11052626815E+02 -0.57423147084E+02  0.11745784136E+04  0.11760341961E+04  0.15500000000E+01 0.  1.
         -4    1    3    3    0  501 -0.11052626815E+02  0.57423147084E+02  0.56141960704E+03  0.56445899413E+03  0.15500000000E+01 0.  1.
<mgrwt>
<rscale>  2 0.12500967E+03</rscale>
<asrwt>0</asrwt>
<pdfrwt beam="1">  1       21 0.26742133E+00 0.12500967E+03</pdfrwt>
<pdfrwt beam="2">  1       21 0.34578367E-03 0.12500967E+03</pdfrwt>
<totfact> 0.10769571E+06</totfact>
</mgrwt>
</event>
<event>
 5    0  0.1269217E+000  0.1249922E+03  0.7546771E-02  0.1235081E+00
         21   -1    0    0  503  502  0.00000000000E+00  0.00000000000E+00  0.69351641240E+01  0.69351641240E+01  0.00000000000E+00 0.  1.
         21   -1    0    0  502  503 -0.00000000000E+00 -0.00000000000E+00 -0.56318253512E+03  0.56318253512E+03  0.00000000000E+00 0.  1.
         25    2    1    2    0    0  0.00000000000E+00  0.00000000000E+00 -0.55624737099E+03  0.57011769924E+03  0.12499221276E+03 0.  0.
          4    1    3    3  501    0 -0.13151107234E+01 -0.56413892367E+02 -0.15580932950E+03  0.16572026559E+03  0.15500000000E+01 0. -1.
         -4    1    3    3    0  501  0.13151107234E+01  0.56413892367E+02 -0.40043804149E+03  0.40439743365E+03  0.15500000000E+01 0. -1.
<mgrwt>
<rscale>  2 0.12499221E+03</rscale>
<asrwt>0</asrwt>
<pdfrwt beam="1">  1       21 0.10669485E-02 0.12499221E+03</pdfrwt>
<pdfrwt beam="2">  1       21 0.86643450E-01 0.12499221E+03</pdfrwt>
<totfact> 0.38487311E+06</totfact>
</mgrwt>
</event>
<event>
 5    0  0.1282502E+000  0.1250026E+03  0.7546771E-02  0.1235065E+00
         21   -1    0    0  503  502  0.00000000000E+00  0.00000000000E+00  0.54379636453E+03  0.54379636453E+03  0.00000000000E+00 0.  1.
         21   -1    0    0  502  503 -0.00000000000E+00 -0.00000000000E+00 -0.71835989587E+01  0.71835989587E+01  0.00000000000E+00 0.  1.
         25    2    1    2    0    0  0.00000000000E+00  0.00000000000E+00  0.53661276557E+03  0.55097996349E+03  0.12500263994E+03 0.  0.
          4    1    3    3  501    0 -0.65970015684E+01 -0.57025302296E+02  0.37704531912E+03  0.38139347229E+03  0.15500000000E+01 0.  1.
         -4    1    3    3    0  501  0.65970015684E+01  0.57025302296E+02  0.15956744645E+03  0.16958649121E+03  0.15500000000E+01 0.  1.
<mgrwt>
<rscale>  2 0.12500264E+03</rscale>
<asrwt>0</asrwt>
<pdfrwt beam="1">  1       21 0.83660947E-01 0.12500264E+03</pdfrwt>
<pdfrwt beam="2">  1       21 0.11051695E-02 0.12500264E+03</pdfrwt>
<totfact> 0.39405121E+06</totfact>
</mgrwt>
</event>
<event>
 5    0  0.1452428E+000  0.1249981E+03  0.7546771E-02  0.1235072E+00
         21   -1    0    0  503  502  0.00000000000E+00  0.00000000000E+00  0.12245285670E+02  0.12245285670E+02  0.00000000000E+00 0.  1.
         21   -1    0    0  502  503 -0.00000000000E+00 -0.00000000000E+00 -0.31899055290E+03  0.31899055290E+03  0.00000000000E+00 0.  1.
         25    2    1    2    0    0  0.00000000000E+00  0.00000000000E+00 -0.30674526723E+03  0.33123583857E+03  0.12499808713E+03 0.  0.
          4    1    3    3  501    0 -0.26820063353E+02 -0.46751009301E+02 -0.23711852248E+03  0.24317189161E+03  0.15500000000E+01 0.  1.
         -4    1    3    3    0  501  0.26820063353E+02  0.46751009301E+02 -0.69626744755E+02  0.88063946959E+02  0.15500000000E+01 0.  1.
<mgrwt>
<rscale>  2 0.12499809E+03</rscale>
<asrwt>0</asrwt>
<pdfrwt beam="1">  1       21 0.18838902E-02 0.12499809E+03</pdfrwt>
<pdfrwt beam="2">  1       21 0.49075468E-01 0.12499809E+03</pdfrwt>
<totfact> 0.52957341E+06</totfact>
</mgrwt>
</event>
<event>
 5    0  0.1469255E+000  0.1249948E+03  0.7546771E-02  0.1235077E+00
         21   -1    0    0  503  502  0.00000000000E+00  0.00000000000E+00  0.12002045428E+02  0.12002045428E+02  0.00000000000E+00 0.  1.
         21   -1    0    0  502  503 -0.00000000000E+00 -0.00000000000E+00 -0.32543816995E+03  0.32543816995E+03  0.00000000000E+00 0.  1.
         25    2    1    2    0    0  0.00000000000E+00  0.00000000000E+00 -0.31343612452E+03  0.33744021538E+03  0.12499477909E+03 0.  0.
          4    1    3    3  501    0 -0.54153367104E+02  0.24944627060E+02 -0.10630643711E+03  0.12189455549E+03  0.15500000000E+01 0. -1.
         -4    1    3    3    0  501  0.54153367104E+02 -0.24944627060E+02 -0.20712968741E+03  0.21554565989E+03  0.15500000000E+01 0. -1.
<mgrwt>
<rscale>  2 0.12499478E+03</rscale>
<asrwt>0</asrwt>
<pdfrwt beam="1">  1       21 0.18464688E-02 0.12499478E+03</pdfrwt>
<pdfrwt beam="2">  1       21 0.50067403E-01 0.12499478E+03</pdfrwt>
<totfact> 0.52486471E+06</totfact>
</mgrwt>
</event>
<event>
 5    0  0.1549450E+000  0.1249772E+03  0.7546771E-02  0.1235105E+00
         21   -1    0    0  503  502  0.00000000000E+00  0.00000000000E+00  0.38126546243E+02  0.38126546243E+02  0.00000000000E+00 0.  1.
         21   -1    0    0  502  503 -0.00000000000E+00 -0.00000000000E+00 -0.10241751823E+03  0.10241751823E+03  0.00000000000E+00 0.  1.
         25    2    1    2    0    0  0.00000000000E+00  0.00000000000E+00 -0.64290971984E+02  0.14054406447E+03  0.12497721784E+03 0.  0.
          4    1    3    3  501    0  0.46876533395E+02 -0.38265857944E+02 -0.49593837879E+02  0.78253667792E+02  0.15500000000E+01 0. -1.
         -4    1    3    3    0  501 -0.46876533395E+02  0.38265857944E+02 -0.14697134104E+02  0.62290396678E+02  0.15500000000E+01 0. -1.
<mgrwt>
<rscale>  2 0.12497722E+03</rscale>
<asrwt>0</asrwt>
<pdfrwt beam="1">  1       21 0.58656225E-02 0.12497722E+03</pdfrwt>
<pdfrwt beam="2">  1       21 0.15756541E-01 0.12497722E+03</pdfrwt>
<totfact> 0.72010147E+06</totfact>
</mgrwt>
</event>
<event>
 5    0  0.1222151E+000  0.1250048E+03  0.7546771E-02  0.1235062E+00
         21   -1    0    0  503  502  0.00000000000E+00  0.00000000000E+00  0.26299217285E+03  0.26299217285E+03  0.00000000000E+00 0. -1.
         21   -1    0    0  502  503 -0.00000000000E+00 -0.00000000000E+00 -0.14854256228E+02  0.14854256228E+02  0.00000000000E+00 0. -1.
         25    2    1    2    0    0  0.00000000000E+00  0.00000000000E+00  0.24813791662E+03  0.27784642907E+03  0.12500484985E+03 0.  0.
          4    1    3    3  501    0  0.23038111352E+02 -0.45417499535E+00  0.25316066548E+03  0.25421189172E+03  0.15500000000E+01 0.  1.
         -4    1    3    3    0  501 -0.23038111352E+02  0.45417499535E+00 -0.50227488594E+01  0.23634537349E+02  0.15500000000E+01 0.  1.
<mgrwt>
<rscale>  2 0.12500485E+03</rscale>
<asrwt>0</asrwt>
<pdfrwt beam="1">  1       21 0.40460331E-01 0.12500485E+03</pdfrwt>
<pdfrwt beam="2">  1       21 0.22852704E-02 0.12500485E+03</pdfrwt>
<totfact> 0.57341986E+06</totfact>
</mgrwt>
</event>
<event>
 5    0  0.1222151E+000  0.1250014E+03  0.7546771E-02  0.1235067E+00
         21   -1    0    0  503  502  0.00000000000E+00  0.00000000000E+00  0.74936421998E+01  0.74936421998E+01  0.00000000000E+00 0. -1.
         21   -1    0    0  502  503 -0.00000000000E+00 -0.00000000000E+00 -0.52128680636E+03  0.52128680636E+03  0.00000000000E+00 0. -1.
         25    2    1    2    0    0  0.00000000000E+00  0.00000000000E+00 -0.51379316416E+03  0.52878044856E+03  0.12500138896E+03 0.  0.
          4    1    3    3  501    0 -0.12756745832E+02 -0.17014707097E+02 -0.50542556316E+03  0.50587512018E+03  0.15500000000E+01 0.  1.
         -4    1    3    3    0  501  0.12756745832E+02  0.17014707097E+02 -0.83676010044E+01  0.22905328384E+02  0.15500000000E+01 0.  1.
<mgrwt>
<rscale>  2 0.12500139E+03</rscale>
<asrwt>0</asrwt>
<pdfrwt beam="1">  1       21 0.11528678E-02 0.12500139E+03</pdfrwt>
<pdfrwt beam="2">  1       21 0.80197984E-01 0.12500139E+03</pdfrwt>
<totfact> 0.40523647E+06</totfact>
</mgrwt>
</event>
<event>
 5    0  0.1546557E+000  0.1250174E+03  0.7546771E-02  0.1235042E+00
         21   -1    0    0  503  502  0.00000000000E+00  0.00000000000E+00  0.24336249950E+02  0.24336249950E+02  0.00000000000E+00 0.  1.
         21   -1    0    0  502  503 -0.00000000000E+00 -0.00000000000E+00 -0.16055629943E+03  0.16055629943E+03  0.00000000000E+00 0.  1.
         25    2    1    2    0    0  0.00000000000E+00  0.00000000000E+00 -0.13622004948E+03  0.18489254938E+03  0.12501741053E+03 0.  0.
          4    1    3    3  501    0 -0.39492240466E+02 -0.29828596419E+02 -0.12453391159E+03  0.13401671484E+03  0.15500000000E+01 0.  1.
         -4    1    3    3    0  501  0.39492240466E+02  0.29828596419E+02 -0.11686137893E+02  0.50875834540E+02  0.15500000000E+01 0.  1.
<mgrwt>
<rscale>  2 0.12501741E+03</rscale>
<asrwt>0</asrwt>
<pdfrwt beam="1">  1       21 0.37440385E-02 0.12501741E+03</pdfrwt>
<pdfrwt beam="2">  1       21 0.24700969E-01 0.12501741E+03</pdfrwt>
<totfact> 0.66565276E+06</totfact>
</mgrwt>
</event>
<event>
 5    0  0.1614001E+000  0.1250000E+03  0.7546771E-02  0.1235069E+00
         21   -1    0    0  503  502  0.00000000000E+00  0.00000000000E+00  0.40353190505E+02  0.40353190505E+02  0.00000000000E+00 0. -1.
         21   -1    0    0  502  503 -0.00000000000E+00 -0.00000000000E+00 -0.96801453531E+02  0.96801453531E+02  0.00000000000E+00 0. -1.
         25    2    1    2    0    0  0.00000000000E+00  0.00000000000E+00 -0.56448263026E+02  0.13715464404E+03  0.12499995993E+03 0.  0.
          4    1    3    3  501    0  0.25052016232E+01  0.62346009239E+02 -0.31787044709E+02  0.70043697893E+02  0.15500000000E+01 0. -1.
         -4    1    3    3    0  501 -0.25052016232E+01 -0.62346009239E+02 -0.24661218316E+02  0.67110946142E+02  0.15500000000E+01 0. -1.
<mgrwt>
<rscale>  2 0.12499996E+03</rscale>
<asrwt>0</asrwt>
<pdfrwt beam="1">  1       21 0.62081832E-02 0.12499996E+03</pdfrwt>
<pdfrwt beam="2">  1       21 0.14892531E-01 0.12499996E+03</pdfrwt>
<totfact> 0.72412495E+06</totfact>
</mgrwt>
</event>
<event>
 5    0  0.1547346E+000  0.1250052E+03  0.7546771E-02  0.1235061E+00
         21   -1    0    0  503  502  0.00000000000E+00  0.00000000000E+00  0.84270199686E+02  0.84270199686E+02  0.00000000000E+00 0. -1.
         21   -1    0    0  502  503 -0.00000000000E+00 -0.00000000000E+00 -0.46357738020E+02  0.46357738020E+02  0.00000000000E+00 0. -1.
         25    2    1    2    0    0  0.00000000000E+00  0.00000000000E+00  0.37912461666E+02  0.13062793771E+03  0.12500521333E+03 0.  0.
          4    1    3    3  501    0  0.94229346828E+01 -0.36753610836E+02  0.70833498063E+02  0.80370433341E+02  0.15500000000E+01 0.  1.
         -4    1    3    3    0  501 -0.94229346828E+01  0.36753610836E+02 -0.32921036397E+02  0.50257504365E+02  0.15500000000E+01 0.  1.
<mgrwt>
<rscale>  2 0.12500521E+03</rscale>
<asrwt>0</asrwt>
<pdfrwt beam="1">  1       21 0.12964646E-01 0.12500521E+03</pdfrwt>
<pdfrwt beam="2">  1       21 0.71319597E-02 0.12500521E+03</pdfrwt>
<totfact> 0.73271109E+06</totfact>
</mgrwt>
</event>
<event>
 5    0  0.1499936E+000  0.1249981E+03  0.7546771E-02  0.1235072E+00
         21   -1    0    0  503  502  0.00000000000E+00  0.00000000000E+00  0.11152743958E+03  0.11152743958E+03  0.00000000000E+00 0. -1.
         21   -1    0    0  502  503 -0.00000000000E+00 -0.00000000000E+00 -0.35023922395E+02  0.35023922395E+02  0.00000000000E+00 0. -1.
         25    2    1    2    0    0  0.00000000000E+00  0.00000000000E+00  0.76503517190E+02  0.14655136198E+03  0.12499805421E+03 0.  0.
          4    1    3    3  501    0  0.28738394237E+02 -0.47281848956E+02  0.42259065043E+01  0.55513325696E+02  0.15500000000E+01 0. -1.
         -4    1    3    3    0  501 -0.28738394237E+02  0.47281848956E+02  0.72277610686E+02  0.91038036284E+02  0.15500000000E+01 0. -1.
<mgrwt>
<rscale>  2 0.12499805E+03</rscale>
<asrwt>0</asrwt>
<pdfrwt beam="1">  1       21 0.17158067E-01 0.12499805E+03</pdfrwt>
<pdfrwt beam="2">  1       21 0.53882958E-02 0.12499805E+03</pdfrwt>
<totfact> 0.71198678E+06</totfact>
</mgrwt>
</event>
<event>
 5    0  0.1519746E+000  0.1250006E+03  0.7546771E-02  0.1235068E+00
         21   -1    0    0  503  502  0.00000000000E+00  0.00000000000E+00  0.13084325814E+03  0.13084325814E+03  0.00000000000E+00 0.  1.
         21   -1    0    0  502  503 -0.00000000000E+00 -0.00000000000E+00 -0.29854726044E+02  0.29854726044E+02  0.00000000000E+00 0.  1.
         25    2    1    2    0    0  0.00000000000E+00  0.00000000000E+00  0.10098853210E+03  0.16069798419E+03  0.12500063402E+03 0.  0.
          4    1    3    3  501    0 -0.22420889426E+02 -0.52525646408E+02  0.17914394988E+02  0.59874601135E+02  0.15500000000E+01 0.  1.
         -4    1    3    3    0  501  0.22420889426E+02  0.52525646408E+02  0.83074137109E+02  0.10082338305E+03  0.15500000000E+01 0.  1.
<mgrwt>
<rscale>  2 0.12500063E+03</rscale>
<asrwt>0</asrwt>
<pdfrwt beam="1">  1       21 0.20129732E-01 0.12500063E+03</pdfrwt>
<pdfrwt beam="2">  1       21 0.45930349E-02 0.12500063E+03</pdfrwt>
<totfact> 0.69433191E+06</totfact>
</mgrwt>
</event>
<event>
 5    0  0.1552993E+000  0.1249971E+03  0.7546771E-02  0.1235074E+00
         21   -1    0    0  503  502  0.00000000000E+00  0.00000000000E+00  0.11053552726E+03  0.11053552726E+03  0.00000000000E+00 0.  1.
         21   -1    0    0  502  503 -0.00000000000E+00 -0.00000000000E+00 -0.35337701800E+02  0.35337701800E+02  0.00000000000E+00 0.  1.
         25    2    1    2    0    0  0.00000000000E+00  0.00000000000E+00  0.75197825457E+02  0.14587322906E+03  0.12499714398E+03 0.  0.
          4    1    3    3  501    0  0.37672268757E+02 -0.43238750259E+02  0.86607760076E+01  0.58018970159E+02  0.15500000000E+01 0.  1.
         -4    1    3    3    0  501 -0.37672268757E+02  0.43238750259E+02  0.66537049449E+02  0.87854258898E+02  0.15500000000E+01 0.  1.
<mgrwt>
<rscale>  2 0.12499714E+03</rscale>
<asrwt>0</asrwt>
<pdfrwt beam="1">  1       21 0.17005466E-01 0.12499714E+03</pdfrwt>
<pdfrwt beam="2">  1       21 0.54365695E-02 0.12499714E+03</pdfrwt>
<totfact> 0.71286718E+06</totfact>
</mgrwt>
</event>
<event>
 5    0  0.1588549E+000  0.1249976E+03  0.7546771E-02  0.1235073E+00
         21   -1    0    0  503  502  0.00000000000E+00  0.00000000000E+00  0.30123830138E+02  0.30123830138E+02  0.00000000000E+00 0. -1.
         21   -1    0    0  502  503 -0.00000000000E+00 -0.00000000000E+00 -0.12966802804E+03  0.12966802804E+03  0.00000000000E+00 0. -1.
         25    2    1    2    0    0  0.00000000000E+00  0.00000000000E+00 -0.99544197907E+02  0.15979185818E+03  0.12499756239E+03 0.  0.
          4    1    3    3  501    0 -0.59807027402E+02  0.14073124143E+02 -0.64278063950E+02  0.88932588824E+02  0.15500000000E+01 0. -1.
         -4    1    3    3    0  501  0.59807027402E+02 -0.14073124143E+02 -0.35266133957E+02  0.70859269359E+02  0.15500000000E+01 0. -1.
<mgrwt>
<rscale>  2 0.12499756E+03</rscale>
<asrwt>0</asrwt>
<pdfrwt beam="1">  1       21 0.46344354E-02 0.12499756E+03</pdfrwt>
<pdfrwt beam="2">  1       21 0.19948928E-01 0.12499756E+03</pdfrwt>
<totfact> 0.69549248E+06</totfact>
</mgrwt>
</event>
<event>
 5    0  0.1222151E+000  0.1250047E+03  0.7546771E-02  0.1235062E+00
         21   -1    0    0  503  502  0.00000000000E+00  0.00000000000E+00  0.47752218146E+01  0.47752218146E+01  0.00000000000E+00 0. -1.
         21   -1    0    0  502  503 -0.00000000000E+00 -0.00000000000E+00 -0.81808657942E+03  0.81808657942E+03  0.00000000000E+00 0. -1.
         25    2    1    2    0    0  0.00000000000E+00  0.00000000000E+00 -0.81331135760E+03  0.82286180123E+03  0.12500471799E+03 0.  0.
          4    1    3    3  501    0  0.60539839389E+02 -0.12127433135E+02 -0.46979268835E+03  0.47383511827E+03  0.15500000000E+01 0. -1.
         -4    1    3    3    0  501 -0.60539839389E+02  0.12127433135E+02 -0.34351866926E+03  0.34902668296E+03  0.15500000000E+01 0. -1.
<mgrwt>
<rscale>  2 0.12500472E+03</rscale>
<asrwt>0</asrwt>
<pdfrwt beam="1">  1       21 0.73464929E-03 0.12500472E+03</pdfrwt>
<pdfrwt beam="2">  1       21 0.12585951E+00 0.12500472E+03</pdfrwt>
<totfact> 0.28615880E+06</totfact>
</mgrwt>
</event>
<event>
 5    0  0.1562587E+000  0.1250063E+03  0.7546771E-02  0.1235059E+00
         21   -1    0    0  503  502  0.00000000000E+00  0.00000000000E+00  0.89117630186E+02  0.89117630186E+02  0.00000000000E+00 0.  1.
         21   -1    0    0  502  503 -0.00000000000E+00 -0.00000000000E+00 -0.43836958774E+02  0.43836958774E+02  0.00000000000E+00 0.  1.
         25    2    1    2    0    0  0.00000000000E+00  0.00000000000E+00  0.45280671411E+02  0.13295458896E+03  0.12500633393E+03 0.  0.
          4    1    3    3  501    0 -0.74436335696E+01  0.60515275323E+02  0.37174386673E+02  0.71427191970E+02  0.15500000000E+01 0.  1.
         -4    1    3    3    0  501  0.74436335696E+01 -0.60515275323E+02  0.81062847380E+01  0.61527396990E+02  0.15500000000E+01 0.  1.
<mgrwt>
<rscale>  2 0.12500633E+03</rscale>
<asrwt>0</asrwt>
<pdfrwt beam="1">  1       21 0.13710405E-01 0.12500633E+03</pdfrwt>
<pdfrwt beam="2">  1       21 0.67441475E-02 0.12500633E+03</pdfrwt>
<totfact> 0.72956674E+06</totfact>
</mgrwt>
</event>
<event>
 5    0  0.1265206E+000  0.1249988E+03  0.7546771E-02  0.1235071E+00
         21   -1    0    0  503  502  0.00000000000E+00  0.00000000000E+00  0.52951046302E+03  0.52951046302E+03  0.00000000000E+00 0.  1.
         21   -1    0    0  502  503 -0.00000000000E+00 -0.00000000000E+00 -0.73769606264E+01  0.73769606264E+01  0.00000000000E+00 0.  1.
         25    2    1    2    0    0  0.00000000000E+00  0.00000000000E+00  0.52213350240E+03  0.53688742365E+03  0.12499884539E+03 0.  0.
          4    1    3    3  501    0 -0.41942141902E+02  0.10067230111E+02  0.66914922822E+02  0.79627267853E+02  0.15500000000E+01 0.  1.
         -4    1    3    3    0  501  0.41942141902E+02 -0.10067230111E+02  0.45521857957E+03  0.45726015580E+03  0.15500000000E+01 0.  1.
<mgrwt>
<rscale>  2 0.12499885E+03</rscale>
<asrwt>0</asrwt>
<pdfrwt beam="1">  1       21 0.81463118E-01 0.12499885E+03</pdfrwt>
<pdfrwt beam="2">  1       21 0.11349174E-02 0.12499885E+03</pdfrwt>
<totfact> 0.40112889E+06</totfact>
</mgrwt>
</event>
<event>
 5    0  0.1468906E+000  0.1250022E+03  0.7546771E-02  0.1235066E+00
         21   -1    0    0  503  502  0.00000000000E+00  0.00000000000E+00  0.19060339777E+02  0.19060339777E+02  0.00000000000E+00 0.  1.
         21   -1    0    0  502  503 -0.00000000000E+00 -0.00000000000E+00 -0.20494851454E+03  0.20494851454E+03  0.00000000000E+00 0.  1.
         25    2    1    2    0    0  0.00000000000E+00  0.00000000000E+00 -0.18588817476E+03  0.22400885432E+03  0.12500221316E+03 0.  0.
          4    1    3    3  501    0  0.12239663516E+02 -0.32866161973E+02 -0.27657112314E+00  0.35106594216E+02  0.15500000000E+01 0.  1.
         -4    1    3    3    0  501 -0.12239663516E+02  0.32866161973E+02 -0.18561160364E+03  0.18890226010E+03  0.15500000000E+01 0.  1.
<mgrwt>
<rscale>  2 0.12500221E+03</rscale>
<asrwt>0</asrwt>
<pdfrwt beam="1">  1       21 0.29323597E-02 0.12500221E+03</pdfrwt>
<pdfrwt beam="2">  1       21 0.31530543E-01 0.12500221E+03</pdfrwt>
<totfact> 0.62411620E+06</totfact>
</mgrwt>
</event>
<event>
 5    0  0.1335512E+000  0.1249980E+03  0.7546771E-02  0.1235072E+00
         21   -1    0    0  503  502  0.00000000000E+00  0.00000000000E+00  0.63501879150E+01  0.63501879150E+01  0.00000000000E+00 0.  1.
         21   -1    0    0  502  503 -0.00000000000E+00 -0.00000000000E+00 -0.61511971543E+03  0.61511971543E+03  0.00000000000E+00 0.  1.
         25    2    1    2    0    0  0.00000000000E+00  0.00000000000E+00 -0.60876952752E+03  0.62146990335E+03  0.12499801252E+03 0.  0.
          4    1    3    3  501    0 -0.38148855143E+01  0.61486383115E+02 -0.35619566598E+03  0.36148704489E+03  0.15500000000E+01 0.  1.
         -4    1    3    3    0  501  0.38148855143E+01 -0.61486383115E+02 -0.25257386153E+03  0.25998285845E+03  0.15500000000E+01 0.  1.
<mgrwt>
<rscale>  2 0.12499801E+03</rscale>
<asrwt>0</asrwt>
<pdfrwt beam="1">  1       21 0.97695176E-03 0.12499801E+03</pdfrwt>
<pdfrwt beam="2">  1       21 0.94633825E-01 0.12499801E+03</pdfrwt>
<totfact> 0.36141113E+06</totfact>
</mgrwt>
</event>
<event>
 5    0  0.1222151E+000  0.1250010E+03  0.7546771E-02  0.1235068E+00
         21   -1    0    0  503  502  0.00000000000E+00  0.00000000000E+00  0.20876786896E+01  0.20876786896E+01  0.00000000000E+00 0.  1.
         21   -1    0    0  502  503 -0.00000000000E+00 -0.00000000000E+00 -0.18711273511E+04  0.18711273511E+04  0.00000000000E+00 0.  1.
         25    2    1    2    0    0  0.00000000000E+00  0.00000000000E+00 -0.18690396725E+04  0.18732150298E+04  0.12500100314E+03 0.  0.
          4    1    3    3  501    0 -0.34014169048E+02  0.43100192168E+02 -0.13814124219E+04  0.13825039863E+04  0.15500000000E+01 0.  1.
         -4    1    3    3    0  501  0.34014169048E+02 -0.43100192168E+02 -0.48762725058E+03  0.49071104356E+03  0.15500000000E+01 0.  1.
<mgrwt>
<rscale>  2 0.12500100E+03</rscale>
<asrwt>0</asrwt>
<pdfrwt beam="1">  1       21 0.32118054E-03 0.12500100E+03</pdfrwt>
<pdfrwt beam="2">  1       21 0.28786646E+00 0.12500100E+03</pdfrwt>
<totfact> 0.92519030E+05</totfact>
</mgrwt>
</event>
<event>
 5    0  0.1504064E+000  0.1249958E+03  0.7546771E-02  0.1235076E+00
         21   -1    0    0  503  502  0.00000000000E+00  0.00000000000E+00  0.15965091036E+02  0.15965091036E+02  0.00000000000E+00 0.  1.
         21   -1    0    0  502  503 -0.00000000000E+00 -0.00000000000E+00 -0.24465816905E+03  0.24465816905E+03  0.00000000000E+00 0.  1.
         25    2    1    2    0    0  0.00000000000E+00  0.00000000000E+00 -0.22869307801E+03  0.26062326008E+03  0.12499583899E+03 0.  0.
          4    1    3    3  501    0 -0.42344096664E+02  0.45695804467E+02 -0.10446540555E+03  0.12164108075E+03  0.15500000000E+01 0. -1.
         -4    1    3    3    0  501  0.42344096664E+02 -0.45695804467E+02 -0.12422767246E+03  0.13898217934E+03  0.15500000000E+01 0. -1.
<mgrwt>
<rscale>  2 0.12499584E+03</rscale>
<asrwt>0</asrwt>
<pdfrwt beam="1">  1       21 0.24561678E-02 0.12499584E+03</pdfrwt>
<pdfrwt beam="2">  1       21 0.37639719E-01 0.12499584E+03</pdfrwt>
<totfact> 0.58898365E+06</totfact>
</mgrwt>
</event>
<event>
 5    0  0.1446797E+000  0.1249851E+03  0.7546771E-02  0.1235093E+00
         21   -1    0    0  503  502  0.00000000000E+00  0.00000000000E+00  0.23771536620E+03  0.23771536620E+03  0.00000000000E+00 0. -1.
         21   -1    0    0  502  503 -0.00000000000E+00 -0.00000000000E+00 -0.16428538322E+02  0.16428538322E+02  0.00000000000E+00 0. -1.
         25    2    1    2    0    0  0.00000000000E+00  0.00000000000E+00  0.22128682787E+03  0.25414390452E+03  0.12498505516E+03 0.  0.
          4    1    3    3  501    0 -0.25230131794E+02  0.55419464779E+02  0.82245922430E+02  0.10234583960E+03  0.15500000000E+01 0. -1.
         -4    1    3    3    0  501  0.25230131794E+02 -0.55419464779E+02  0.13904090545E+03  0.15179806492E+03  0.15500000000E+01 0. -1.
<mgrwt>
<rscale>  2 0.12498506E+03</rscale>
<asrwt>0</asrwt>
<pdfrwt beam="1">  1       21 0.36571592E-01 0.12498506E+03</pdfrwt>
<pdfrwt beam="2">  1       21 0.25274676E-02 0.12498506E+03</pdfrwt>
<totfact> 0.59512638E+06</totfact>
</mgrwt>
</event>
<event>
 5    0  0.1566218E+000  0.1249988E+03  0.7546771E-02  0.1235071E+00
         21   -1    0    0  503  502  0.00000000000E+00  0.00000000000E+00  0.18661196255E+03  0.18661196255E+03  0.00000000000E+00 0. -1.
         21   -1    0    0  502  503 -0.00000000000E+00 -0.00000000000E+00 -0.20932084667E+02  0.20932084667E+02  0.00000000000E+00 0. -1.
         25    2    1    2    0    0  0.00000000000E+00  0.00000000000E+00  0.16567987788E+03  0.20754404722E+03  0.12499883840E+03 0.  0.
          4    1    3    3  501    0 -0.31679659840E+02  0.53426595910E+02  0.94073269216E+02  0.11273945396E+03  0.15500000000E+01 0.  1.
         -4    1    3    3    0  501  0.31679659840E+02 -0.53426595910E+02  0.71606608667E+02  0.94804593258E+02  0.15500000000E+01 0.  1.
<mgrwt>
<rscale>  2 0.12499884E+03</rscale>
<asrwt>0</asrwt>
<pdfrwt beam="1">  1       21 0.28709532E-01 0.12499884E+03</pdfrwt>
<pdfrwt beam="2">  1       21 0.32203208E-02 0.12499884E+03</pdfrwt>
<totfact> 0.64120745E+06</totfact>
</mgrwt>
</event>
<event>
 5    0  0.1634732E+000  0.1250032E+03  0.7546771E-02  0.1235064E+00
         21   -1    0    0  503  502  0.00000000000E+00  0.00000000000E+00  0.44432001734E+02  0.44432001734E+02  0.00000000000E+00 0.  1.
         21   -1    0    0  502  503 -0.00000000000E+00 -0.00000000000E+00 -0.87919701301E+02  0.87919701301E+02  0.00000000000E+00 0.  1.
         25    2    1    2    0    0  0.00000000000E+00  0.00000000000E+00 -0.43487699567E+02  0.13235170303E+03  0.12500317309E+03 0.  0.
          4    1    3    3  501    0  0.55943738916E+02 -0.22103192067E+02 -0.38446285391E+01  0.60294582610E+02  0.15500000000E+01 0.  1.
         -4    1    3    3    0  501 -0.55943738916E+02  0.22103192067E+02 -0.39643071028E+02  0.72057120425E+02  0.15500000000E+01 0.  1.
<mgrwt>
<rscale>  2 0.12500317E+03</rscale>
<asrwt>0</asrwt>
<pdfrwt beam="1">  1       21 0.68356926E-02 0.12500317E+03</pdfrwt>
<pdfrwt beam="2">  1       21 0.13526108E-01 0.12500317E+03</pdfrwt>
<totfact> 0.73043179E+06</totfact>
</mgrwt>
</event>
<event>
 5    0  0.1244214E+000  0.1250017E+03  0.7546771E-02  0.1235067E+00
         21   -1    0    0  503  502  0.00000000000E+00  0.00000000000E+00  0.64553987927E+01  0.64553987927E+01  0.00000000000E+00 0. -1.
         21   -1    0    0  502  503 -0.00000000000E+00 -0.00000000000E+00 -0.60513041335E+03  0.60513041335E+03  0.00000000000E+00 0. -1.
         25    2    1    2    0    0  0.00000000000E+00  0.00000000000E+00 -0.59867501455E+03  0.61158581214E+03  0.12500173022E+03 0.  0.
          4    1    3    3  501    0 -0.30697123489E+02  0.53866842025E+02 -0.33723733140E+03  0.34289265120E+03  0.15500000000E+01 0.  1.
         -4    1    3    3    0  501  0.30697123489E+02 -0.53866842025E+02 -0.26143768316E+03  0.26869316094E+03  0.15500000000E+01 0.  1.
<mgrwt>
<rscale>  2 0.12500173E+03</rscale>
<asrwt>0</asrwt>
<pdfrwt beam="1">  1       21 0.99313799E-03 0.12500173E+03</pdfrwt>
<pdfrwt beam="2">  1       21 0.93097014E-01 0.12500173E+03</pdfrwt>
<totfact> 0.36572285E+06</totfact>
</mgrwt>
</event>
<event>
 5    0  0.1452567E+000  0.1250064E+03  0.7546771E-02  0.1235059E+00
         21   -1    0    0  503  502  0.00000000000E+00  0.00000000000E+00  0.14211713740E+02  0.14211713740E+02  0.00000000000E+00 0. -1.
         21   -1    0    0  502  503 -0.00000000000E+00 -0.00000000000E+00 -0.27488928165E+03  0.27488928165E+03  0.00000000000E+00 0. -1.
         25    2    1    2    0    0  0.00000000000E+00  0.00000000000E+00 -0.26067756791E+03  0.28910099539E+03  0.12500636434E+03 0.  0.
          4    1    3    3  501    0  0.22357806153E+01 -0.60773505899E+02 -0.16351823617E+03  0.17446785892E+03  0.15500000000E+01 0.  1.
         -4    1    3    3    0  501 -0.22357806153E+01  0.60773505899E+02 -0.97159331743E+02  0.11463313648E+03  0.15500000000E+01 0.  1.
<mgrwt>
<rscale>  2 0.12500636E+03</rscale>
<asrwt>0</asrwt>
<pdfrwt beam="1">  1       21 0.21864175E-02 0.12500636E+03</pdfrwt>
<pdfrwt beam="2">  1       21 0.42290658E-01 0.12500636E+03</pdfrwt>
<totfact> 0.56365244E+06</totfact>
</mgrwt>
</event>
<event>
 5    0  0.1629171E+000  0.1250153E+03  0.7546771E-02  0.1235045E+00
         21   -1    0    0  503  502  0.00000000000E+00  0.00000000000E+00  0.54397064177E+02  0.54397064177E+02  0.00000000000E+00 0.  1.
         21   -1    0    0  502  503 -0.00000000000E+00 -0.00000000000E+00 -0.71827519307E+02  0.71827519307E+02  0.00000000000E+00 0.  1.
         25    2    1    2    0    0  0.00000000000E+00  0.00000000000E+00 -0.17430455130E+02  0.12622458348E+03  0.12501529790E+03 0.  0.
          4    1    3    3  501    0  0.36240796037E+02  0.46887860187E+02  0.11299156043E+02  0.60348489273E+02  0.15500000000E+01 0.  1.
         -4    1    3    3    0  501 -0.36240796037E+02 -0.46887860187E+02 -0.28729611173E+02  0.65876094210E+02  0.15500000000E+01 0.  1.
<mgrwt>
<rscale>  2 0.12501530E+03</rscale>
<asrwt>0</asrwt>
<pdfrwt beam="1">  1       21 0.83687791E-02 0.12501530E+03</pdfrwt>
<pdfrwt beam="2">  1       21 0.11050388E-01 0.12501530E+03</pdfrwt>
<totfact> 0.73846302E+06</totfact>
</mgrwt>
</event>
<event>
 5    0  0.1346117E+000  0.1250022E+03  0.7546771E-02  0.1235066E+00
         21   -1    0    0  503  502  0.00000000000E+00  0.00000000000E+00  0.57200900818E+03  0.57200900818E+03  0.00000000000E+00 0. -1.
         21   -1    0    0  502  503 -0.00000000000E+00 -0.00000000000E+00 -0.68292459476E+01  0.68292459476E+01  0.00000000000E+00 0. -1.
         25    2    1    2    0    0  0.00000000000E+00  0.00000000000E+00  0.56517976223E+03  0.57883825412E+03  0.12500224320E+03 0.  0.
          4    1    3    3  501    0 -0.13751553537E+02  0.52961262018E+02  0.42227722535E+03  0.42581035456E+03  0.15500000000E+01 0.  1.
         -4    1    3    3    0  501  0.13751553537E+02 -0.52961262018E+02  0.14290253688E+03  0.15302789957E+03  0.15500000000E+01 0.  1.
<mgrwt>
<rscale>  2 0.12500224E+03</rscale>
<asrwt>0</asrwt>
<pdfrwt beam="1">  1       21 0.88001348E-01 0.12500224E+03</pdfrwt>
<pdfrwt beam="2">  1       21 0.10506537E-02 0.12500224E+03</pdfrwt>
<totfact> 0.38065360E+06</totfact>
</mgrwt>
</event>
<event>
 5    0  0.1604769E+000  0.1250010E+03  0.7546771E-02  0.1235068E+00
         21   -1    0    0  503  502  0.00000000000E+00  0.00000000000E+00  0.84748127069E+02  0.84748127069E+02  0.00000000000E+00 0. -1.
         21   -1    0    0  502  503 -0.00000000000E+00 -0.00000000000E+00 -0.46093181206E+02  0.46093181206E+02  0.00000000000E+00 0. -1.
         25    2    1    2    0    0  0.00000000000E+00  0.00000000000E+00  0.38654945863E+02  0.13084130828E+03  0.12500097244E+03 0.  0.
          4    1    3    3  501    0  0.50367687495E+01  0.55637358303E+02 -0.99624960712E+01  0.56767407078E+02  0.15500000000E+01 0. -1.
         -4    1    3    3    0  501 -0.50367687495E+01 -0.55637358303E+02  0.48617441934E+02  0.74073901197E+02  0.15500000000E+01 0. -1.
<mgrwt>
<rscale>  2 0.12500097E+03</rscale>
<asrwt>0</asrwt>
<pdfrwt beam="1">  1       21 0.13038173E-01 0.12500097E+03</pdfrwt>
<pdfrwt beam="2">  1       21 0.70912587E-02 0.12500097E+03</pdfrwt>
<totfact> 0.73250247E+06</totfact>
</mgrwt>
</event>
<event>
 5    0  0.1380332E+000  0.1250007E+03  0.7546771E-02  0.1235068E+00
         21   -1    0    0  503  502  0.00000000000E+00  0.00000000000E+00  0.41140836365E+03  0.41140836365E+03  0.00000000000E+00 0.  1.
         21   -1    0    0  502  503 -0.00000000000E+00 -0.00000000000E+00 -0.94949367667E+01  0.94949367667E+01  0.00000000000E+00 0.  1.
         25    2    1    2    0    0  0.00000000000E+00  0.00000000000E+00  0.40191342689E+03  0.42090330042E+03  0.12500074237E+03 0.  0.
          4    1    3    3  501    0 -0.41861970751E+02 -0.43790252812E+02  0.25245219504E+03  0.25962381270E+03  0.15500000000E+01 0. -1.
         -4    1    3    3    0  501  0.41861970751E+02  0.43790252812E+02  0.14946123184E+03  0.16127948772E+03  0.15500000000E+01 0. -1.
<mgrwt>
<rscale>  2 0.12500074E+03</rscale>
<asrwt>0</asrwt>
<pdfrwt beam="1">  1       21 0.63293581E-01 0.12500074E+03</pdfrwt>
<pdfrwt beam="2">  1       21 0.14607598E-02 0.12500074E+03</pdfrwt>
<totfact> 0.46684215E+06</totfact>
</mgrwt>
</event>
<event>
 5    0  0.1466570E+000  0.1250182E+03  0.7546771E-02  0.1235041E+00
         21   -1    0    0  503  502  0.00000000000E+00  0.00000000000E+00  0.31410058414E+03  0.31410058414E+03  0.00000000000E+00 0.  1.
         21   -1    0    0  502  503 -0.00000000000E+00 -0.00000000000E+00 -0.12439923195E+02  0.12439923195E+02  0.00000000000E+00 0.  1.
         25    2    1    2    0    0  0.00000000000E+00  0.00000000000E+00  0.30166066094E+03  0.32654050733E+03  0.12501819295E+03 0.  0.
          4    1    3    3  501    0 -0.85490812082E+01 -0.55689024103E+02  0.22143163555E+03  0.22849228853E+03  0.15500000000E+01 0.  1.
         -4    1    3    3    0  501  0.85490812082E+01  0.55689024103E+02  0.80229025389E+02  0.98048218801E+02  0.15500000000E+01 0.  1.
<mgrwt>
<rscale>  2 0.12501819E+03</rscale>
<asrwt>0</asrwt>
<pdfrwt beam="1">  1       21 0.48323161E-01 0.12501819E+03</pdfrwt>
<pdfrwt beam="2">  1       21 0.19138346E-02 0.12501819E+03</pdfrwt>
<totfact> 0.53294758E+06</totfact>
</mgrwt>
</event>
<event>
 5    0  0.1543175E+000  0.1249995E+03  0.7546771E-02  0.1235070E+00
         21   -1    0    0  503  502  0.00000000000E+00  0.00000000000E+00  0.86865003374E+02  0.86865003374E+02  0.00000000000E+00 0.  1.
         21   -1    0    0  502  503 -0.00000000000E+00 -0.00000000000E+00 -0.44968825553E+02  0.44968825553E+02  0.00000000000E+00 0.  1.
         25    2    1    2    0    0  0.00000000000E+00  0.00000000000E+00  0.41896177821E+02  0.13183382893E+03  0.12499947493E+03 0.  0.
          4    1    3    3  501    0 -0.36239956216E+02 -0.19081185371E+02 -0.28816355970E+02  0.50102005280E+02  0.15500000000E+01 0. -1.
         -4    1    3    3    0  501  0.36239956216E+02  0.19081185371E+02  0.70712533791E+02  0.81731823647E+02  0.15500000000E+01 0. -1.
<mgrwt>
<rscale>  2 0.12499947E+03</rscale>
<asrwt>0</asrwt>
<pdfrwt beam="1">  1       21 0.13363847E-01 0.12499947E+03</pdfrwt>
<pdfrwt beam="2">  1       21 0.69182809E-02 0.12499947E+03</pdfrwt>
<totfact> 0.73119505E+06</totfact>
</mgrwt>
</event>
<event>
 5    0  0.1381142E+000  0.1249981E+03  0.7546771E-02  0.1235072E+00
         21   -1    0    0  503  502  0.00000000000E+00  0.00000000000E+00  0.87838242206E+01  0.87838242206E+01  0.00000000000E+00 0. -1.
         21   -1    0    0  502  503 -0.00000000000E+00 -0.00000000000E+00 -0.44469630642E+03  0.44469630642E+03  0.00000000000E+00 0. -1.
         25    2    1    2    0    0  0.00000000000E+00  0.00000000000E+00 -0.43591248220E+03  0.45348013064E+03  0.12499814698E+03 0.  0.
          4    1    3    3  501    0 -0.54081938531E+02 -0.23475540363E+02 -0.29299094853E+03  0.29886795661E+03  0.15500000000E+01 0. -1.
         -4    1    3    3    0  501  0.54081938531E+02  0.23475540363E+02 -0.14292153368E+03  0.15461217403E+03  0.15500000000E+01 0. -1.
<mgrwt>
<rscale>  2 0.12499815E+03</rscale>
<asrwt>0</asrwt>
<pdfrwt beam="1">  1       21 0.13513576E-02 0.12499815E+03</pdfrwt>
<pdfrwt beam="2">  1       21 0.68414815E-01 0.12499815E+03</pdfrwt>
<totfact> 0.44686821E+06</totfact>
</mgrwt>
</event>
<event>
 5    0  0.1375365E+000  0.1249929E+03  0.7546771E-02  0.1235080E+00
         21   -1    0    0  503  502  0.00000000000E+00  0.00000000000E+00  0.34436496327E+03  0.34436496327E+03  0.00000000000E+00 0. -1.
         21   -1    0    0  502  503 -0.00000000000E+00 -0.00000000000E+00 -0.11342062539E+02  0.11342062539E+02  0.00000000000E+00 0. -1.
         25    2    1    2    0    0  0.00000000000E+00  0.00000000000E+00  0.33302290073E+03  0.35570702581E+03  0.12499294300E+03 0.  0.
          4    1    3    3  501    0  0.52299536459E+02  0.22260446135E+02  0.92704462961E+02  0.10875333985E+03  0.15500000000E+01 0. -1.
         -4    1    3    3    0  501 -0.52299536459E+02 -0.22260446135E+02  0.24031843777E+03  0.24695368596E+03  0.15500000000E+01 0. -1.
<mgrwt>
<rscale>  2 0.12499294E+03</rscale>
<asrwt>0</asrwt>
<pdfrwt beam="1">  1       21 0.52979217E-01 0.12499294E+03</pdfrwt>
<pdfrwt beam="2">  1       21 0.17449330E-02 0.12499294E+03</pdfrwt>
<totfact> 0.51128734E+06</totfact>
</mgrwt>
</event>
<event>
 5    0  0.1372194E+000  0.1249986E+03  0.7546771E-02  0.1235071E+00
         21   -1    0    0  503  502  0.00000000000E+00  0.00000000000E+00  0.30999551519E+03  0.30999551519E+03  0.00000000000E+00 0. -1.
         21   -1    0    0  502  503 -0.00000000000E+00 -0.00000000000E+00 -0.12600708826E+02  0.12600708826E+02  0.00000000000E+00 0. -1.
         25    2    1    2    0    0  0.00000000000E+00  0.00000000000E+00  0.29739480636E+03  0.32259622401E+03  0.12499861158E+03 0.  0.
          4    1    3    3  501    0 -0.40970162064E+02 -0.16178165146E+02  0.26305541981E+03  0.26672240925E+03  0.15500000000E+01 0. -1.
         -4    1    3    3    0  501  0.40970162064E+02  0.16178165146E+02  0.34339386553E+02  0.55873814760E+02  0.15500000000E+01 0. -1.
<mgrwt>
<rscale>  2 0.12499861E+03</rscale>
<asrwt>0</asrwt>
<pdfrwt beam="1">  1       21 0.47691612E-01 0.12499861E+03</pdfrwt>
<pdfrwt beam="2">  1       21 0.19385708E-02 0.12499861E+03</pdfrwt>
<totfact> 0.53630115E+06</totfact>
</mgrwt>
</event>
<event>
 5    0  0.1387328E+000  0.1249988E+03  0.7546771E-02  0.1235071E+00
         21   -1    0    0  503  502  0.00000000000E+00  0.00000000000E+00  0.34447456405E+03  0.34447456405E+03  0.00000000000E+00 0.  1.
         21   -1    0    0  502  503 -0.00000000000E+00 -0.00000000000E+00 -0.11339511671E+02  0.11339511671E+02  0.00000000000E+00 0.  1.
         25    2    1    2    0    0  0.00000000000E+00  0.00000000000E+00  0.33313505238E+03  0.35581407572E+03  0.12499877342E+03 0.  0.
          4    1    3    3  501    0  0.27734517759E+01 -0.49707405741E+02  0.59103453161E+02  0.77292553948E+02  0.15500000000E+01 0. -1.
         -4    1    3    3    0  501 -0.27734517759E+01  0.49707405741E+02  0.27403159922E+03  0.27852152178E+03  0.15500000000E+01 0. -1.
<mgrwt>
<rscale>  2 0.12499877E+03</rscale>
<asrwt>0</asrwt>
<pdfrwt beam="1">  1       21 0.52996079E-01 0.12499877E+03</pdfrwt>
<pdfrwt beam="2">  1       21 0.17445405E-02 0.12499877E+03</pdfrwt>
<totfact> 0.51113466E+06</totfact>
</mgrwt>
</event>
<event>
 5    0  0.1489098E+000  0.1250003E+03  0.7546771E-02  0.1235069E+00
         21   -1    0    0  503  502  0.00000000000E+00  0.00000000000E+00  0.18593417653E+02  0.18593417653E+02  0.00000000000E+00 0. -1.
         21   -1    0    0  502  503 -0.00000000000E+00 -0.00000000000E+00 -0.21008863800E+03  0.21008863800E+03  0.00000000000E+00 0. -1.
         25    2    1    2    0    0  0.00000000000E+00  0.00000000000E+00 -0.19149522034E+03  0.22868205565E+03  0.12500025265E+03 0.  0.
          4    1    3    3  501    0 -0.20967622169E+02 -0.50257177303E+02 -0.15179095470E+03  0.16127095671E+03  0.15500000000E+01 0.  1.
         -4    1    3    3    0  501  0.20967622169E+02  0.50257177303E+02 -0.39704265648E+02  0.67411098942E+02  0.15500000000E+01 0.  1.
<mgrwt>
<rscale>  2 0.12500025E+03</rscale>
<asrwt>0</asrwt>
<pdfrwt beam="1">  1       21 0.28605259E-02 0.12500025E+03</pdfrwt>
<pdfrwt beam="2">  1       21 0.32321328E-01 0.12500025E+03</pdfrwt>
<totfact> 0.61944988E+06</totfact>
</mgrwt>
</event>
<event>
 5    0  0.1553792E+000  0.1249858E+03  0.7546771E-02  0.1235091E+00
         21   -1    0    0  503  502  0.00000000000E+00  0.00000000000E+00  0.81467099234E+02  0.81467099234E+02  0.00000000000E+00 0.  1.
         21   -1    0    0  502  503 -0.00000000000E+00 -0.00000000000E+00 -0.47937931179E+02  0.47937931179E+02  0.00000000000E+00 0.  1.
         25    2    1    2    0    0  0.00000000000E+00  0.00000000000E+00  0.33529168055E+02  0.12940503041E+03  0.12498582634E+03 0.  0.
          4    1    3    3  501    0  0.55886423537E+02 -0.15886690620E+02  0.40539119494E+02  0.70862556996E+02  0.15500000000E+01 0. -1.
         -4    1    3    3    0  501 -0.55886423537E+02  0.15886690620E+02 -0.70099514397E+01  0.58542473418E+02  0.15500000000E+01 0. -1.
<mgrwt>
<rscale>  2 0.12498583E+03</rscale>
<asrwt>0</asrwt>
<pdfrwt beam="1">  1       21 0.12533400E-01 0.12498583E+03</pdfrwt>
<pdfrwt beam="2">  1       21 0.73750664E-02 0.12498583E+03</pdfrwt>
<totfact> 0.73471125E+06</totfact>
</mgrwt>
</event>
<event>
 5    0  0.1515376E+000  0.1249982E+03  0.7546771E-02  0.1235072E+00
         21   -1    0    0  503  502  0.00000000000E+00  0.00000000000E+00  0.21478622023E+02  0.21478622023E+02  0.00000000000E+00 0.  1.
         21   -1    0    0  502  503 -0.00000000000E+00 -0.00000000000E+00 -0.18186150067E+03  0.18186150067E+03  0.00000000000E+00 0.  1.
         25    2    1    2    0    0  0.00000000000E+00  0.00000000000E+00 -0.16038287864E+03  0.20334012269E+03  0.12499815092E+03 0.  0.
          4    1    3    3  501    0  0.20158946354E+02  0.45206328633E+02 -0.14221580978E+03  0.15059128235E+03  0.15500000000E+01 0.  1.
         -4    1    3    3    0  501 -0.20158946354E+02 -0.45206328633E+02 -0.18167068861E+02  0.52748840344E+02  0.15500000000E+01 0.  1.
<mgrwt>
<rscale>  2 0.12499815E+03</rscale>
<asrwt>0</asrwt>
<pdfrwt beam="1">  1       21 0.33044034E-02 0.12499815E+03</pdfrwt>
<pdfrwt beam="2">  1       21 0.27978692E-01 0.12499815E+03</pdfrwt>
<totfact> 0.64570136E+06</totfact>
</mgrwt>
</event>
<event>
 5    0  0.1526899E+000  0.1249982E+03  0.7546771E-02  0.1235072E+00
         21   -1    0    0  503  502  0.00000000000E+00  0.00000000000E+00  0.20652822837E+03  0.20652822837E+03  0.00000000000E+00 0. -1.
         21   -1    0    0  502  503 -0.00000000000E+00 -0.00000000000E+00 -0.18913345475E+02  0.18913345475E+02  0.00000000000E+00 0. -1.
         25    2    1    2    0    0  0.00000000000E+00  0.00000000000E+00  0.18761488290E+03  0.22544157385E+03  0.12499823572E+03 0.  0.
          4    1    3    3  501    0 -0.26558909766E+02  0.56532796548E+02  0.96604096485E+02  0.11504819308E+03  0.15500000000E+01 0.  1.
         -4    1    3    3    0  501  0.26558909766E+02 -0.56532796548E+02  0.91010786414E+02  0.11039338077E+03  0.15500000000E+01 0.  1.
<mgrwt>
<rscale>  2 0.12499824E+03</rscale>
<asrwt>0</asrwt>
<pdfrwt beam="1">  1       21 0.31773572E-01 0.12499824E+03</pdfrwt>
<pdfrwt beam="2">  1       21 0.29097456E-02 0.12499824E+03</pdfrwt>
<totfact> 0.62273343E+06</totfact>
</mgrwt>
</event>
<event>
 5    0  0.1610045E+000  0.1249972E+03  0.7546771E-02  0.1235074E+00
         21   -1    0    0  503  502  0.00000000000E+00  0.00000000000E+00  0.12594224255E+03  0.12594224255E+03  0.00000000000E+00 0.  1.
         21   -1    0    0  502  503 -0.00000000000E+00 -0.00000000000E+00 -0.31014817767E+02  0.31014817767E+02  0.00000000000E+00 0.  1.
         25    2    1    2    0    0  0.00000000000E+00  0.00000000000E+00  0.94927424780E+02  0.15695706031E+03  0.12499721120E+03 0.  0.
          4    1    3    3  501    0  0.51751280804E+02  0.30779189269E+02  0.68404661701E+02  0.91143588909E+02  0.15500000000E+01 0.  1.
         -4    1    3    3    0  501 -0.51751280804E+02 -0.30779189269E+02  0.26522763079E+02  0.65813471404E+02  0.15500000000E+01 0.  1.
<mgrwt>
<rscale>  2 0.12499721E+03</rscale>
<asrwt>0</asrwt>
<pdfrwt beam="1">  1       21 0.19375729E-01 0.12499721E+03</pdfrwt>
<pdfrwt beam="2">  1       21 0.47715105E-02 0.12499721E+03</pdfrwt>
<totfact> 0.69898192E+06</totfact>
</mgrwt>
</event>
<event>
 5    0  0.1492118E+000  0.1250020E+03  0.7546771E-02  0.1235066E+00
         21   -1    0    0  503  502  0.00000000000E+00  0.00000000000E+00  0.19023755054E+03  0.19023755054E+03  0.00000000000E+00 0.  1.
         21   -1    0    0  502  503 -0.00000000000E+00 -0.00000000000E+00 -0.20534198183E+02  0.20534198183E+02  0.00000000000E+00 0.  1.
         25    2    1    2    0    0  0.00000000000E+00  0.00000000000E+00  0.16970335236E+03  0.21077174873E+03  0.12500200902E+03 0.  0.
          4    1    3    3  501    0 -0.46143922584E+02 -0.42051482417E+02  0.89112092545E+02  0.10881615828E+03  0.15500000000E+01 0. -1.
         -4    1    3    3    0  501  0.46143922584E+02  0.42051482417E+02  0.80591259817E+02  0.10195559045E+03  0.15500000000E+01 0. -1.
<mgrwt>
<rscale>  2 0.12500201E+03</rscale>
<asrwt>0</asrwt>
<pdfrwt beam="1">  1       21 0.29267314E-01 0.12500201E+03</pdfrwt>
<pdfrwt beam="2">  1       21 0.31591075E-02 0.12500201E+03</pdfrwt>
<totfact> 0.63775190E+06</totfact>
</mgrwt>
</event>
<event>
 5    0  0.1498112E+000  0.1250055E+03  0.7546771E-02  0.1235061E+00
         21   -1    0    0  503  502  0.00000000000E+00  0.00000000000E+00  0.20881828802E+02  0.20881828802E+02  0.00000000000E+00 0.  1.
         21   -1    0    0  502  503 -0.00000000000E+00 -0.00000000000E+00 -0.18708088006E+03  0.18708088006E+03  0.00000000000E+00 0.  1.
         25    2    1    2    0    0  0.00000000000E+00  0.00000000000E+00 -0.16619905126E+03  0.20796270886E+03  0.12500545444E+03 0.  0.
          4    1    3    3  501    0 -0.13700740501E+02 -0.60087949139E+02 -0.10022088676E+03  0.11766435555E+03  0.15500000000E+01 0. -1.
         -4    1    3    3    0  501  0.13700740501E+02  0.60087949139E+02 -0.65978164495E+02  0.90298353319E+02  0.15500000000E+01 0. -1.
<mgrwt>
<rscale>  2 0.12500545E+03</rscale>
<asrwt>0</asrwt>
<pdfrwt beam="1">  1       21 0.32125891E-02 0.12500545E+03</pdfrwt>
<pdfrwt beam="2">  1       21 0.28781673E-01 0.12500545E+03</pdfrwt>
<totfact> 0.64065680E+06</totfact>
</mgrwt>
</event>
<event>
 5    0  0.1222151E+000  0.1250046E+03  0.7546771E-02  0.1235062E+00
         21   -1    0    0  503  502  0.00000000000E+00  0.00000000000E+00  0.78050358766E+03  0.78050358766E+03  0.00000000000E+00 0.  1.
         21   -1    0    0  502  503 -0.00000000000E+00 -0.00000000000E+00 -0.50051524589E+01  0.50051524589E+01  0.00000000000E+00 0.  1.
         25    2    1    2    0    0  0.00000000000E+00  0.00000000000E+00  0.77549843520E+03  0.78550874012E+03  0.12500463113E+03 0.  0.
          4    1    3    3  501    0 -0.17456169154E+02 -0.20379783762E+02  0.74233159249E+03  0.74281804578E+03  0.15500000000E+01 0. -1.
         -4    1    3    3    0  501  0.17456169154E+02  0.20379783762E+02  0.33166842712E+02  0.42690694340E+02  0.15500000000E+01 0. -1.
<mgrwt>
<rscale>  2 0.12500463E+03</rscale>
<asrwt>0</asrwt>
<pdfrwt beam="1">  1       21 0.12007738E+00 0.12500463E+03</pdfrwt>
<pdfrwt beam="2">  1       21 0.77002407E-03 0.12500463E+03</pdfrwt>
<totfact> 0.29845201E+06</totfact>
</mgrwt>
</event>
<event>
 5    0  0.1384196E+000  0.1249974E+03  0.7546771E-02  0.1235073E+00
         21   -1    0    0  503  502  0.00000000000E+00  0.00000000000E+00  0.56388279880E+03  0.56388279880E+03  0.00000000000E+00 0. -1.
         21   -1    0    0  502  503 -0.00000000000E+00 -0.00000000000E+00 -0.69271250987E+01  0.69271250987E+01  0.00000000000E+00 0. -1.
         25    2    1    2    0    0  0.00000000000E+00  0.00000000000E+00  0.55695567370E+03  0.57080992390E+03  0.12499738698E+03 0.  0.
          4    1    3    3  501    0 -0.73351894889E+01  0.44788128744E+02  0.82385969806E+02  0.94072482704E+02  0.15500000000E+01 0.  1.
         -4    1    3    3    0  501  0.73351894889E+01 -0.44788128744E+02  0.47456970390E+03  0.47673744119E+03  0.15500000000E+01 0.  1.
<mgrwt>
<rscale>  2 0.12499739E+03</rscale>
<asrwt>0</asrwt>
<pdfrwt beam="1">  1       21 0.86751164E-01 0.12499739E+03</pdfrwt>
<pdfrwt beam="2">  1       21 0.10657120E-02 0.12499739E+03</pdfrwt>
<totfact> 0.38449397E+06</totfact>
</mgrwt>
</event>
<event>
 5    0  0.1222151E+000  0.1249986E+03  0.7546771E-02  0.1235071E+00
         21   -1    0    0  503  502  0.00000000000E+00  0.00000000000E+00  0.71426835534E+03  0.71426835534E+03  0.00000000000E+00 0. -1.
         21   -1    0    0  502  503 -0.00000000000E+00 -0.00000000000E+00 -0.54687592961E+01  0.54687592961E+01  0.00000000000E+00 0. -1.
         25    2    1    2    0    0  0.00000000000E+00  0.00000000000E+00  0.70879959605E+03  0.71973711464E+03  0.12499858732E+03 0.  0.
          4    1    3    3  501    0  0.46175054585E+02 -0.56403949201E-02  0.59675620827E+03  0.59854198709E+03  0.15500000000E+01 0.  1.
         -4    1    3    3    0  501 -0.46175054585E+02  0.56403949201E-02  0.11204338777E+03  0.12119512755E+03  0.15500000000E+01 0.  1.
<mgrwt>
<rscale>  2 0.12499859E+03</rscale>
<asrwt>0</asrwt>
<pdfrwt beam="1">  1       21 0.10988737E+00 0.12499859E+03</pdfrwt>
<pdfrwt beam="2">  1       21 0.84134815E-03 0.12499859E+03</pdfrwt>
<totfact> 0.32164108E+06</totfact>
</mgrwt>
</event>
<event>
 5    0  0.1556154E+000  0.1249744E+03  0.7546771E-02  0.1235109E+00
         21   -1    0    0  503  502  0.00000000000E+00  0.00000000000E+00  0.28182444188E+02  0.28182444188E+02  0.00000000000E+00 0.  1.
         21   -1    0    0  502  503 -0.00000000000E+00 -0.00000000000E+00 -0.13854904210E+03  0.13854904210E+03  0.00000000000E+00 0.  1.
         25    2    1    2    0    0  0.00000000000E+00  0.00000000000E+00 -0.11036659791E+03  0.16673148629E+03  0.12497440772E+03 0.  0.
          4    1    3    3  501    0 -0.23018446545E+02 -0.56199883342E+02 -0.74698606077E+02  0.96283747428E+02  0.15500000000E+01 0.  1.
         -4    1    3    3    0  501  0.23018446545E+02  0.56199883342E+02 -0.35667991836E+02  0.70447738860E+02  0.15500000000E+01 0.  1.
<mgrwt>
<rscale>  2 0.12497441E+03</rscale>
<asrwt>0</asrwt>
<pdfrwt beam="1">  1       21 0.43357607E-02 0.12497441E+03</pdfrwt>
<pdfrwt beam="2">  1       21 0.21315237E-01 0.12497441E+03</pdfrwt>
<totfact> 0.68750886E+06</totfact>
</mgrwt>
</event>
<event>
 5    0  0.1592793E+000  0.1250039E+03  0.7546771E-02  0.1235063E+00
         21   -1    0    0  503  502  0.00000000000E+00  0.00000000000E+00  0.58208322628E+02  0.58208322628E+02  0.00000000000E+00 0.  1.
         21   -1    0    0  502  503 -0.00000000000E+00 -0.00000000000E+00 -0.67112319734E+02  0.67112319734E+02  0.00000000000E+00 0.  1.
         25    2    1    2    0    0  0.00000000000E+00  0.00000000000E+00 -0.89039971058E+01  0.12532064236E+03  0.12500392889E+03 0.  0.
          4    1    3    3  501    0 -0.38615984711E+02  0.45529653688E+02  0.14032433066E+02  0.61347007408E+02  0.15500000000E+01 0. -1.
         -4    1    3    3    0  501  0.38615984711E+02 -0.45529653688E+02 -0.22936430172E+02  0.63973634954E+02  0.15500000000E+01 0. -1.
<mgrwt>
<rscale>  2 0.12500393E+03</rscale>
<asrwt>0</asrwt>
<pdfrwt beam="1">  1       21 0.89551266E-02 0.12500393E+03</pdfrwt>
<pdfrwt beam="2">  1       21 0.10324972E-01 0.12500393E+03</pdfrwt>
<totfact> 0.73992853E+06</totfact>
</mgrwt>
</event>
<event>
 5    0  0.1320196E+000  0.1250000E+03  0.7546771E-02  0.1235069E+00
         21   -1    0    0  503  502  0.00000000000E+00  0.00000000000E+00  0.11094459231E+02  0.11094459231E+02  0.00000000000E+00 0. -1.
         21   -1    0    0  502  503 -0.00000000000E+00 -0.00000000000E+00 -0.35209043864E+03  0.35209043864E+03  0.00000000000E+00 0. -1.
         25    2    1    2    0    0  0.00000000000E+00  0.00000000000E+00 -0.34099597941E+03  0.36318489788E+03  0.12500004828E+03 0.  0.
          4    1    3    3  501    0  0.41290640317E+02  0.13721755509E+02 -0.40215661262E+02  0.59269768539E+02  0.15500000000E+01 0. -1.
         -4    1    3    3    0  501 -0.41290640317E+02 -0.13721755509E+02 -0.30078031815E+03  0.30391512934E+03  0.15500000000E+01 0. -1.
<mgrwt>
<rscale>  2 0.12500005E+03</rscale>
<asrwt>0</asrwt>
<pdfrwt beam="1">  1       21 0.17068399E-02 0.12500005E+03</pdfrwt>
<pdfrwt beam="2">  1       21 0.54167758E-01 0.12500005E+03</pdfrwt>
<totfact> 0.50579128E+06</totfact>
</mgrwt>
</event>
<event>
 5    0  0.1523944E+000  0.1250100E+03  0.7546771E-02  0.1235054E+00
         21   -1    0    0  503  502  0.00000000000E+00  0.00000000000E+00  0.38950012354E+02  0.38950012354E+02  0.00000000000E+00 0.  1.
         21   -1    0    0  502  503 -0.00000000000E+00 -0.00000000000E+00 -0.10030485613E+03  0.10030485613E+03  0.00000000000E+00 0.  1.
         25    2    1    2    0    0  0.00000000000E+00  0.00000000000E+00 -0.61354843774E+02  0.13925486848E+03  0.12501000577E+03 0.  0.
          4    1    3    3  501    0  0.55752042714E+02  0.13257189303E+02 -0.58424154535E+02  0.81852475027E+02  0.15500000000E+01 0. -1.
         -4    1    3    3    0  501 -0.55752042714E+02 -0.13257189303E+02 -0.29306892391E+01  0.57402393455E+02  0.15500000000E+01 0. -1.
<mgrwt>
<rscale>  2 0.12501001E+03</rscale>
<asrwt>0</asrwt>
<pdfrwt beam="1">  1       21 0.59923097E-02 0.12501001E+03</pdfrwt>
<pdfrwt beam="2">  1       21 0.15431516E-01 0.12501001E+03</pdfrwt>
<totfact> 0.72118346E+06</totfact>
</mgrwt>
</event>
<event>
 5    0  0.1359360E+000  0.1249968E+03  0.7546771E-02  0.1235074E+00
         21   -1    0    0  503  502  0.00000000000E+00  0.00000000000E+00  0.37106608015E+03  0.37106608015E+03  0.00000000000E+00 0.  1.
         21   -1    0    0  502  503 -0.00000000000E+00 -0.00000000000E+00 -0.10526559280E+02  0.10526559280E+02  0.00000000000E+00 0.  1.
         25    2    1    2    0    0  0.00000000000E+00  0.00000000000E+00  0.36053952087E+03  0.38159263943E+03  0.12499678539E+03 0.  0.
          4    1    3    3  501    0 -0.30083326573E+02  0.27765224895E+02  0.36180155895E+02  0.54656385096E+02  0.15500000000E+01 0.  1.
         -4    1    3    3    0  501  0.30083326573E+02 -0.27765224895E+02  0.32435936497E+03  0.32693625433E+03  0.15500000000E+01 0.  1.
<mgrwt>
<rscale>  2 0.12499679E+03</rscale>
<asrwt>0</asrwt>
<pdfrwt beam="1">  1       21 0.57087079E-01 0.12499679E+03</pdfrwt>
<pdfrwt beam="2">  1       21 0.16194709E-02 0.12499679E+03</pdfrwt>
<totfact> 0.49290532E+06</totfact>
</mgrwt>
</event>
<event>
 5    0  0.1223396E+000  0.1249971E+03  0.7546771E-02  0.1235074E+00
         21   -1    0    0  503  502  0.00000000000E+00  0.00000000000E+00  0.66793719504E+03  0.66793719504E+03  0.00000000000E+00 0.  1.
         21   -1    0    0  502  503 -0.00000000000E+00 -0.00000000000E+00 -0.58479571764E+01  0.58479571764E+01  0.00000000000E+00 0.  1.
         25    2    1    2    0    0  0.00000000000E+00  0.00000000000E+00  0.66208923786E+03  0.67378515222E+03  0.12499708978E+03 0.  0.
          4    1    3    3  501    0  0.50499690412E+02 -0.69210816159E+01  0.13627664677E+03  0.14550548807E+03  0.15500000000E+01 0.  1.
         -4    1    3    3    0  501 -0.50499690412E+02  0.69210816159E+01  0.52581259109E+03  0.52827966415E+03  0.15500000000E+01 0.  1.
<mgrwt>
<rscale>  2 0.12499709E+03</rscale>
<asrwt>0</asrwt>
<pdfrwt beam="1">  1       21 0.10275951E+00 0.12499709E+03</pdfrwt>
<pdfrwt beam="2">  1       21 0.89968625E-03 0.12499709E+03</pdfrwt>
<totfact> 0.33947981E+06</totfact>
</mgrwt>
</event>
<event>
 5    0  0.1222151E+000  0.1249997E+03  0.7546771E-02  0.1235070E+00
         21   -1    0    0  503  502  0.00000000000E+00  0.00000000000E+00  0.73701540448E+03  0.73701540448E+03  0.00000000000E+00 0. -1.
         21   -1    0    0  502  503 -0.00000000000E+00 -0.00000000000E+00 -0.53000683995E+01  0.53000683995E+01  0.00000000000E+00 0. -1.
         25    2    1    2    0    0  0.00000000000E+00  0.00000000000E+00  0.73171533608E+03  0.74231547288E+03  0.12499971288E+03 0.  0.
          4    1    3    3  501    0  0.62115077413E+02  0.65503722581E+01  0.37550543659E+03  0.38066773652E+03  0.15500000000E+01 0. -1.
         -4    1    3    3    0  501 -0.62115077413E+02 -0.65503722581E+01  0.35620989949E+03  0.36164773636E+03  0.15500000000E+01 0. -1.
<mgrwt>
<rscale>  2 0.12499971E+03</rscale>
<asrwt>0</asrwt>
<pdfrwt beam="1">  1       21 0.11338690E+00 0.12499971E+03</pdfrwt>
<pdfrwt beam="2">  1       21 0.81539572E-03 0.12499971E+03</pdfrwt>
<totfact> 0.31341240E+06</totfact>
</mgrwt>
</event>
<event>
 5    0  0.1256971E+000  0.1249978E+03  0.7546771E-02  0.1235073E+00
         21   -1    0    0  503  502  0.00000000000E+00  0.00000000000E+00  0.49205687754E+01  0.49205687754E+01  0.00000000000E+00 0.  1.
         21   -1    0    0  502  503 -0.00000000000E+00 -0.00000000000E+00 -0.79383326286E+03  0.79383326286E+03  0.00000000000E+00 0.  1.
         25    2    1    2    0    0  0.00000000000E+00  0.00000000000E+00 -0.78891269408E+03  0.79875383163E+03  0.12499777864E+03 0.  0.
          4    1    3    3  501    0 -0.42878089769E+02  0.39435610912E+02 -0.25014506235E+03  0.25684363474E+03  0.15500000000E+01 0.  1.
         -4    1    3    3    0  501  0.42878089769E+02 -0.39435610912E+02 -0.53876763174E+03  0.54191019689E+03  0.15500000000E+01 0.  1.
<mgrwt>
<rscale>  2 0.12499778E+03</rscale>
<asrwt>0</asrwt>
<pdfrwt beam="1">  1       21 0.75701001E-03 0.12499778E+03</pdfrwt>
<pdfrwt beam="2">  1       21 0.12212829E+00 0.12499778E+03</pdfrwt>
<totfact> 0.29405743E+06</totfact>
</mgrwt>
</event>
<event>
 5    0  0.1255992E+000  0.1250061E+03  0.7546771E-02  0.1235060E+00
         21   -1    0    0  503  502  0.00000000000E+00  0.00000000000E+00  0.10067908405E+02  0.10067908405E+02  0.00000000000E+00 0. -1.
         21   -1    0    0  502  503 -0.00000000000E+00 -0.00000000000E+00 -0.38802813262E+03  0.38802813262E+03  0.00000000000E+00 0. -1.
         25    2    1    2    0    0  0.00000000000E+00  0.00000000000E+00 -0.37796022421E+03  0.39809604102E+03  0.12500610702E+03 0.  0.
          4    1    3    3  501    0 -0.25028476888E+02 -0.39111836223E+02 -0.32212849314E+03  0.32546171661E+03  0.15500000000E+01 0. -1.
         -4    1    3    3    0  501  0.25028476888E+02  0.39111836223E+02 -0.55831731075E+02  0.72634324413E+02  0.15500000000E+01 0. -1.
<mgrwt>
<rscale>  2 0.12500611E+03</rscale>
<asrwt>0</asrwt>
<pdfrwt beam="1">  1       21 0.15489092E-02 0.12500611E+03</pdfrwt>
<pdfrwt beam="2">  1       21 0.59696628E-01 0.12500611E+03</pdfrwt>
<totfact> 0.48160546E+06</totfact>
</mgrwt>
</event>
<event>
 5    0  0.1302581E+000  0.1250145E+03  0.7546771E-02  0.1235047E+00
         21   -1    0    0  503  502  0.00000000000E+00  0.00000000000E+00  0.76466189722E+01  0.76466189722E+01  0.00000000000E+00 0.  1.
         21   -1    0    0  502  503 -0.00000000000E+00 -0.00000000000E+00 -0.51096503580E+03  0.51096503580E+03  0.00000000000E+00 0.  1.
         25    2    1    2    0    0  0.00000000000E+00  0.00000000000E+00 -0.50331841683E+03  0.51861165477E+03  0.12501447815E+03 0.  0.
          4    1    3    3  501    0 -0.30752395966E+02 -0.50994852032E+02 -0.17310535213E+03  0.18306843045E+03  0.15500000000E+01 0.  1.
         -4    1    3    3    0  501  0.30752395966E+02  0.50994852032E+02 -0.33021306470E+03  0.33554322432E+03  0.15500000000E+01 0.  1.
<mgrwt>
<rscale>  2 0.12501448E+03</rscale>
<asrwt>0</asrwt>
<pdfrwt beam="1">  1       21 0.11764026E-02 0.12501448E+03</pdfrwt>
<pdfrwt beam="2">  1       21 0.78610029E-01 0.12501448E+03</pdfrwt>
<totfact> 0.41037581E+06</totfact>
</mgrwt>
</event>
<event>
 5    0  0.1401982E+000  0.1250044E+03  0.7546771E-02  0.1235062E+00
         21   -1    0    0  503  502  0.00000000000E+00  0.00000000000E+00  0.42403692373E+03  0.42403692373E+03  0.00000000000E+00 0. -1.
         21   -1    0    0  502  503 -0.00000000000E+00 -0.00000000000E+00 -0.92127044940E+01  0.92127044940E+01  0.00000000000E+00 0. -1.
         25    2    1    2    0    0  0.00000000000E+00  0.00000000000E+00  0.41482421923E+03  0.43324962822E+03  0.12500442989E+03 0.  0.
          4    1    3    3  501    0 -0.43465459529E+02 -0.44503305443E+02  0.22772047791E+03  0.23606950021E+03  0.15500000000E+01 0.  1.
         -4    1    3    3    0  501  0.43465459529E+02  0.44503305443E+02  0.18710374132E+03  0.19718012801E+03  0.15500000000E+01 0.  1.
<mgrwt>
<rscale>  2 0.12500443E+03</rscale>
<asrwt>0</asrwt>
<pdfrwt beam="1">  1       21 0.65236435E-01 0.12500443E+03</pdfrwt>
<pdfrwt beam="2">  1       21 0.14173395E-02 0.12500443E+03</pdfrwt>
<totfact> 0.45906325E+06</totfact>
</mgrwt>
</event>
<event>
 5    0  0.1564187E+000  0.1250119E+03  0.7546771E-02  0.1235051E+00
         21   -1    0    0  503  502  0.00000000000E+00  0.00000000000E+00  0.48136750983E+02  0.48136750983E+02  0.00000000000E+00 0.  1.
         21   -1    0    0  502  503 -0.00000000000E+00 -0.00000000000E+00 -0.81164468389E+02  0.81164468389E+02  0.00000000000E+00 0.  1.
         25    2    1    2    0    0  0.00000000000E+00  0.00000000000E+00 -0.33027717406E+02  0.12930121937E+03  0.12501190029E+03 0.  0.
          4    1    3    3  501    0  0.54993253951E+02 -0.14911942301E+02  0.10017129033E+02  0.57873736508E+02  0.15500000000E+01 0. -1.
         -4    1    3    3    0  501 -0.54993253951E+02  0.14911942301E+02 -0.43044846438E+02  0.71427482864E+02  0.15500000000E+01 0. -1.
<mgrwt>
<rscale>  2 0.12501190E+03</rscale>
<asrwt>0</asrwt>
<pdfrwt beam="1">  1       21 0.74056541E-02 0.12501190E+03</pdfrwt>
<pdfrwt beam="2">  1       21 0.12486841E-01 0.12501190E+03</pdfrwt>
<totfact> 0.73436144E+06</totfact>
</mgrwt>
</event>
<event>
 5    0  0.1222151E+000  0.1249966E+03  0.7546771E-02  0.1235075E+00
         21   -1    0    0  503  502  0.00000000000E+00  0.00000000000E+00  0.49497000409E+01  0.49497000409E+01  0.00000000000E+00 0. -1.
         21   -1    0    0  502  503 -0.00000000000E+00 -0.00000000000E+00 -0.78914630518E+03  0.78914630518E+03  0.00000000000E+00 0. -1.
         25    2    1    2    0    0  0.00000000000E+00  0.00000000000E+00 -0.78419660514E+03  0.79409600522E+03  0.12499659994E+03 0.  0.
          4    1    3    3  501    0 -0.40730616146E+00  0.62464017614E+02 -0.38377715224E+03  0.38883058583E+03  0.15500000000E+01 0.  1.
         -4    1    3    3    0  501  0.40730616146E+00 -0.62464017614E+02 -0.40041945290E+03  0.40526541939E+03  0.15500000000E+01 0.  1.
<mgrwt>
<rscale>  2 0.12499660E+03</rscale>
<asrwt>0</asrwt>
<pdfrwt beam="1">  1       21 0.76149265E-03 0.12499660E+03</pdfrwt>
<pdfrwt beam="2">  1       21 0.12140707E+00 0.12499660E+03</pdfrwt>
<totfact> 0.29561869E+06</totfact>
</mgrwt>
</event>
<event>
 5    0  0.1526593E+000  0.1250175E+03  0.7546771E-02  0.1235042E+00
         21   -1    0    0  503  502  0.00000000000E+00  0.00000000000E+00  0.23691999831E+02  0.23691999831E+02  0.00000000000E+00 0. -1.
         21   -1    0    0  502  503 -0.00000000000E+00 -0.00000000000E+00 -0.16492240438E+03  0.16492240438E+03  0.00000000000E+00 0. -1.
         25    2    1    2    0    0  0.00000000000E+00  0.00000000000E+00 -0.14123040455E+03  0.18861440421E+03  0.12501746401E+03 0.  0.
          4    1    3    3  501    0 -0.52441007758E+02  0.20796463134E+02 -0.30065366190E+02  0.63944357982E+02  0.15500000000E+01 0. -1.
         -4    1    3    3    0  501  0.52441007758E+02 -0.20796463134E+02 -0.11116503836E+03  0.12467004623E+03  0.15500000000E+01 0. -1.
<mgrwt>
<rscale>  2 0.12501746E+03</rscale>
<asrwt>0</asrwt>
<pdfrwt beam="1">  1       21 0.36449230E-02 0.12501746E+03</pdfrwt>
<pdfrwt beam="2">  1       21 0.25372678E-01 0.12501746E+03</pdfrwt>
<totfact> 0.66147509E+06</totfact>
</mgrwt>
</event>
<event>
 5    0  0.1222151E+000  0.1249859E+03  0.7546771E-02  0.1235091E+00
         21   -1    0    0  503  502  0.00000000000E+00  0.00000000000E+00  0.14346404955E+04  0.14346404955E+04  0.00000000000E+00 0.  1.
         21   -1    0    0  502  503 -0.00000000000E+00 -0.00000000000E+00 -0.27221946946E+01  0.27221946946E+01  0.00000000000E+00 0.  1.
         25    2    1    2    0    0  0.00000000000E+00  0.00000000000E+00  0.14319183008E+04  0.14373626902E+04  0.12498593113E+03 0.  0.
          4    1    3    3  501    0 -0.50228203838E+02 -0.22310187148E+02  0.10575655601E+04  0.10589938306E+04  0.15500000000E+01 0.  1.
         -4    1    3    3    0  501  0.50228203838E+02  0.22310187148E+02  0.37435274069E+03  0.37836885954E+03  0.15500000000E+01 0.  1.
<mgrwt>
<rscale>  2 0.12498593E+03</rscale>
<asrwt>0</asrwt>
<pdfrwt beam="1">  1       21 0.22071332E+00 0.12498593E+03</pdfrwt>
<pdfrwt beam="2">  1       21 0.41880033E-03 0.12498593E+03</pdfrwt>
<totfact> 0.14953019E+06</totfact>
</mgrwt>
</event>
<event>
 5    0  0.1241855E+000  0.1249977E+03  0.7546771E-02  0.1235073E+00
         21   -1    0    0  503  502  0.00000000000E+00  0.00000000000E+00  0.94086568542E+03  0.94086568542E+03  0.00000000000E+00 0. -1.
         21   -1    0    0  502  503 -0.00000000000E+00 -0.00000000000E+00 -0.41516081937E+01  0.41516081937E+01  0.00000000000E+00 0. -1.
         25    2    1    2    0    0  0.00000000000E+00  0.00000000000E+00  0.93671407723E+03  0.94501729362E+03  0.12499769100E+03 0.  0.
          4    1    3    3  501    0  0.55362987679E+02  0.25648870594E+02  0.36670623418E+03  0.37175097801E+03  0.15500000000E+01 0.  1.
         -4    1    3    3    0  501 -0.55362987679E+02 -0.25648870594E+02  0.57000784305E+03  0.57326631560E+03  0.15500000000E+01 0.  1.
<mgrwt>
<rscale>  2 0.12499769E+03</rscale>
<asrwt>0</asrwt>
<pdfrwt beam="1">  1       21 0.14474840E+00 0.12499769E+03</pdfrwt>
<pdfrwt beam="2">  1       21 0.63870970E-03 0.12499769E+03</pdfrwt>
<totfact> 0.25046748E+06</totfact>
</mgrwt>
</event>
<event>
 5    0  0.1696547E+000  0.1249984E+03  0.7546771E-02  0.1235072E+00
         21   -1    0    0  503  502  0.00000000000E+00  0.00000000000E+00  0.91608689272E+02  0.91608689272E+02  0.00000000000E+00 0. -1.
         21   -1    0    0  502  503 -0.00000000000E+00 -0.00000000000E+00 -0.42639547407E+02  0.42639547407E+02  0.00000000000E+00 0. -1.
         25    2    1    2    0    0  0.00000000000E+00  0.00000000000E+00  0.48969141865E+02  0.13424823668E+03  0.12499844878E+03 0.  0.
          4    1    3    3  501    0 -0.49125304948E+01  0.60594763334E+02  0.39969995469E+02  0.72772668888E+02  0.15500000000E+01 0.  1.
         -4    1    3    3    0  501  0.49125304948E+01 -0.60594763334E+02  0.89991463958E+01  0.61475567791E+02  0.15500000000E+01 0.  1.
<mgrwt>
<rscale>  2 0.12499845E+03</rscale>
<asrwt>0</asrwt>
<pdfrwt beam="1">  1       21 0.14093644E-01 0.12499845E+03</pdfrwt>
<pdfrwt beam="2">  1       21 0.65599304E-02 0.12499845E+03</pdfrwt>
<totfact> 0.72799045E+06</totfact>
</mgrwt>
</event>
<event>
 5    0  0.1498305E+000  0.1249988E+03  0.7546771E-02  0.1235071E+00
         21   -1    0    0  503  502  0.00000000000E+00  0.00000000000E+00  0.14229261328E+02  0.14229261328E+02  0.00000000000E+00 0. -1.
         21   -1    0    0  502  503 -0.00000000000E+00 -0.00000000000E+00 -0.27451690509E+03  0.27451690509E+03  0.00000000000E+00 0. -1.
         25    2    1    2    0    0  0.00000000000E+00  0.00000000000E+00 -0.26028764376E+03  0.28874616642E+03  0.12499876450E+03 0.  0.
          4    1    3    3  501    0  0.18760049421E+01 -0.62278271222E+02 -0.11939110722E+03  0.13468014495E+03  0.15500000000E+01 0. -1.
         -4    1    3    3    0  501 -0.18760049421E+01  0.62278271222E+02 -0.14089653654E+03  0.15406602147E+03  0.15500000000E+01 0. -1.
<mgrwt>
<rscale>  2 0.12499876E+03</rscale>
<asrwt>0</asrwt>
<pdfrwt beam="1">  1       21 0.21891172E-02 0.12499876E+03</pdfrwt>
<pdfrwt beam="2">  1       21 0.42233369E-01 0.12499876E+03</pdfrwt>
<totfact> 0.56406326E+06</totfact>
</mgrwt>
</event>
<event>
 5    0  0.1485356E+000  0.1250020E+03  0.7546771E-02  0.1235066E+00
         21   -1    0    0  503  502  0.00000000000E+00  0.00000000000E+00  0.12087397682E+02  0.12087397682E+02  0.00000000000E+00 0. -1.
         21   -1    0    0  502  503 -0.00000000000E+00 -0.00000000000E+00 -0.32317727211E+03  0.32317727211E+03  0.00000000000E+00 0. -1.
         25    2    1    2    0    0  0.00000000000E+00  0.00000000000E+00 -0.31108987443E+03  0.33526466979E+03  0.12500195534E+03 0.  0.
          4    1    3    3  501    0 -0.49295293006E+02  0.37874345978E+02 -0.13869311060E+03  0.15199563620E+03  0.15500000000E+01 0.  1.
         -4    1    3    3    0  501  0.49295293006E+02 -0.37874345978E+02 -0.17239676383E+03  0.18326903359E+03  0.15500000000E+01 0.  1.
<mgrwt>
<rscale>  2 0.12500196E+03</rscale>
<asrwt>0</asrwt>
<pdfrwt beam="1">  1       21 0.18595999E-02 0.12500196E+03</pdfrwt>
<pdfrwt beam="2">  1       21 0.49719572E-01 0.12500196E+03</pdfrwt>
<totfact> 0.52642861E+06</totfact>
</mgrwt>
</event>
<event>
 5    0  0.1519301E+000  0.1250004E+03  0.7546771E-02  0.1235069E+00
         21   -1    0    0  503  502  0.00000000000E+00  0.00000000000E+00  0.97074474491E+02  0.97074474491E+02  0.00000000000E+00 0.  1.
         21   -1    0    0  502  503 -0.00000000000E+00 -0.00000000000E+00 -0.40239950509E+02  0.40239950509E+02  0.00000000000E+00 0.  1.
         25    2    1    2    0    0  0.00000000000E+00  0.00000000000E+00  0.56834523982E+02  0.13731442500E+03  0.12500035279E+03 0.  0.
          4    1    3    3  501    0  0.59579353094E+02 -0.80984129217E+01  0.47078588420E+02  0.76381146853E+02  0.15500000000E+01 0.  1.
         -4    1    3    3    0  501 -0.59579353094E+02  0.80984129217E+01  0.97559355624E+01  0.60933278146E+02  0.15500000000E+01 0.  1.
<mgrwt>
<rscale>  2 0.12500035E+03</rscale>
<asrwt>0</asrwt>
<pdfrwt beam="1">  1       21 0.14934534E-01 0.12500035E+03</pdfrwt>
<pdfrwt beam="2">  1       21 0.61907616E-02 0.12500035E+03</pdfrwt>
<totfact> 0.72390802E+06</totfact>
</mgrwt>
</event>
<event>
 5    0  0.1464987E+000  0.1249926E+03  0.7546771E-02  0.1235081E+00
         21   -1    0    0  503  502  0.00000000000E+00  0.00000000000E+00  0.41649681990E+02  0.41649681990E+02  0.00000000000E+00 0.  1.
         21   -1    0    0  502  503 -0.00000000000E+00 -0.00000000000E+00 -0.93777156234E+02  0.93777156234E+02  0.00000000000E+00 0.  1.
         25    2    1    2    0    0  0.00000000000E+00  0.00000000000E+00 -0.52127474244E+02  0.13542683822E+03  0.12499261954E+03 0.  0.
          4    1    3    3  501    0 -0.12400047397E+02 -0.36160444310E+02 -0.79606084508E+02  0.88322534491E+02  0.15500000000E+01 0.  1.
         -4    1    3    3    0  501  0.12400047397E+02  0.36160444310E+02  0.27478610264E+02  0.47104303733E+02  0.15500000000E+01 0.  1.
<mgrwt>
<rscale>  2 0.12499262E+03</rscale>
<asrwt>0</asrwt>
<pdfrwt beam="1">  1       21 0.64076434E-02 0.12499262E+03</pdfrwt>
<pdfrwt beam="2">  1       21 0.14427255E-01 0.12499262E+03</pdfrwt>
<totfact> 0.72653680E+06</totfact>
</mgrwt>
</event>
<event>
 5    0  0.1222151E+000  0.1249950E+03  0.7546771E-02  0.1235077E+00
         21   -1    0    0  503  502  0.00000000000E+00  0.00000000000E+00  0.10167753054E+04  0.10167753054E+04  0.00000000000E+00 0.  1.
         21   -1    0    0  502  503 -0.00000000000E+00 -0.00000000000E+00 -0.38414953715E+01  0.38414953715E+01  0.00000000000E+00 0.  1.
         25    2    1    2    0    0  0.00000000000E+00  0.00000000000E+00  0.10129338100E+04  0.10206168007E+04  0.12499500197E+03 0.  0.
          4    1    3    3  501    0  0.12772905870E+02  0.54653710112E+02  0.28235169218E+03  0.28788028020E+03  0.15500000000E+01 0.  1.
         -4    1    3    3    0  501 -0.12772905870E+02 -0.54653710112E+02  0.73058211782E+03  0.73273652054E+03  0.15500000000E+01 0.  1.
<mgrwt>
<rscale>  2 0.12499500E+03</rscale>
<asrwt>0</asrwt>
<pdfrwt beam="1">  1       21 0.15642676E+00 0.12499500E+03</pdfrwt>
<pdfrwt beam="2">  1       21 0.59100010E-03 0.12499500E+03</pdfrwt>
<totfact> 0.23111164E+06</totfact>
</mgrwt>
</event>
<event>
 5    0  0.1547133E+000  0.1249999E+03  0.7546771E-02  0.1235069E+00
         21   -1    0    0  503  502  0.00000000000E+00  0.00000000000E+00  0.27987213753E+02  0.27987213753E+02  0.00000000000E+00 0. -1.
         21   -1    0    0  502  503 -0.00000000000E+00 -0.00000000000E+00 -0.13957254949E+03  0.13957254949E+03  0.00000000000E+00 0. -1.
         25    2    1    2    0    0  0.00000000000E+00  0.00000000000E+00 -0.11158533574E+03  0.16755976324E+03  0.12499994842E+03 0.  0.
          4    1    3    3  501    0  0.53688326748E+02 -0.17244587070E+02 -0.91862058399E+02  0.10780005791E+03  0.15500000000E+01 0. -1.
         -4    1    3    3    0  501 -0.53688326748E+02  0.17244587070E+02 -0.19723277337E+02  0.59759705330E+02  0.15500000000E+01 0. -1.
<mgrwt>
<rscale>  2 0.12499995E+03</rscale>
<asrwt>0</asrwt>
<pdfrwt beam="1">  1       21 0.43057252E-02 0.12499995E+03</pdfrwt>
<pdfrwt beam="2">  1       21 0.21472700E-01 0.12499995E+03</pdfrwt>
<totfact> 0.68607460E+06</totfact>
</mgrwt>
</event>
<event>
 5    0  0.1222151E+000  0.1250020E+03  0.7546771E-02  0.1235066E+00
         21   -1    0    0  503  502  0.00000000000E+00  0.00000000000E+00  0.40455939838E+01  0.40455939838E+01  0.00000000000E+00 0.  1.
         21   -1    0    0  502  503 -0.00000000000E+00 -0.00000000000E+00 -0.96558730545E+03  0.96558730545E+03  0.00000000000E+00 0.  1.
         25    2    1    2    0    0  0.00000000000E+00  0.00000000000E+00 -0.96154171146E+03  0.96963289943E+03  0.12500198708E+03 0.  0.
          4    1    3    3  501    0  0.54667877774E+02 -0.16392136840E+02 -0.28351068737E+03  0.28920233637E+03  0.15500000000E+01 0. -1.
         -4    1    3    3    0  501 -0.54667877774E+02  0.16392136840E+02 -0.67803102410E+03  0.68043056306E+03  0.15500000000E+01 0. -1.
<mgrwt>
<rscale>  2 0.12500199E+03</rscale>
<asrwt>0</asrwt>
<pdfrwt beam="1">  1       21 0.62239814E-03 0.12500199E+03</pdfrwt>
<pdfrwt beam="2">  1       21 0.14855212E+00 0.12500199E+03</pdfrwt>
<totfact> 0.24391789E+06</totfact>
</mgrwt>
</event>
<event>
 5    0  0.1440467E+000  0.1250034E+03  0.7546771E-02  0.1235064E+00
         21   -1    0    0  503  502  0.00000000000E+00  0.00000000000E+00  0.24040941260E+03  0.24040941260E+03  0.00000000000E+00 0. -1.
         21   -1    0    0  502  503 -0.00000000000E+00 -0.00000000000E+00 -0.16249207588E+02  0.16249207588E+02  0.00000000000E+00 0. -1.
         25    2    1    2    0    0  0.00000000000E+00  0.00000000000E+00  0.22416020501E+03  0.25665862019E+03  0.12500339917E+03 0.  0.
          4    1    3    3  501    0 -0.44063659832E+02 -0.42806622343E+02  0.88665646994E+02  0.10787962037E+03  0.15500000000E+01 0. -1.
         -4    1    3    3    0  501  0.44063659832E+02  0.42806622343E+02  0.13549455802E+03  0.14877899982E+03  0.15500000000E+01 0. -1.
<mgrwt>
<rscale>  2 0.12500340E+03</rscale>
<asrwt>0</asrwt>
<pdfrwt beam="1">  1       21 0.36986061E-01 0.12500340E+03</pdfrwt>
<pdfrwt beam="2">  1       21 0.24998783E-02 0.12500340E+03</pdfrwt>
<totfact> 0.59251819E+06</totfact>
</mgrwt>
</event>
<event>
 5    0  0.1264498E+000  0.1249891E+03  0.7546771E-02  0.1235086E+00
         21   -1    0    0  503  502  0.00000000000E+00  0.00000000000E+00  0.72406695901E+01  0.72406695901E+01  0.00000000000E+00 0.  1.
         21   -1    0    0  502  503 -0.00000000000E+00 -0.00000000000E+00 -0.53939365275E+03  0.53939365275E+03  0.00000000000E+00 0.  1.
         25    2    1    2    0    0  0.00000000000E+00  0.00000000000E+00 -0.53215298316E+03  0.54663432234E+03  0.12498913902E+03 0.  0.
          4    1    3    3  501    0  0.41220943226E+02  0.27675545196E+02 -0.10022700026E+03  0.11186132506E+03  0.15500000000E+01 0. -1.
         -4    1    3    3    0  501 -0.41220943226E+02 -0.27675545196E+02 -0.43192598290E+03  0.43477299728E+03  0.15500000000E+01 0. -1.
<mgrwt>
<rscale>  2 0.12498914E+03</rscale>
<asrwt>0</asrwt>
<pdfrwt beam="1">  1       21 0.11139489E-02 0.12498914E+03</pdfrwt>
<pdfrwt beam="2">  1       21 0.82983659E-01 0.12498914E+03</pdfrwt>
<totfact> 0.39633584E+06</totfact>
</mgrwt>
</event>
<event>
 5    0  0.1222151E+000  0.1250080E+03  0.7546771E-02  0.1235057E+00
         21   -1    0    0  503  502  0.00000000000E+00  0.00000000000E+00  0.29603311025E+01  0.29603311025E+01  0.00000000000E+00 0.  1.
         21   -1    0    0  502  503 -0.00000000000E+00 -0.00000000000E+00 -0.13196994474E+04  0.13196994474E+04  0.00000000000E+00 0.  1.
         25    2    1    2    0    0  0.00000000000E+00  0.00000000000E+00 -0.13167391163E+04  0.13226597785E+04  0.12500795687E+03 0.  0.
          4    1    3    3  501    0 -0.26259278011E+02 -0.51223659298E+01 -0.60911326974E+02  0.66546078533E+02  0.15500000000E+01 0. -1.
         -4    1    3    3    0  501  0.26259278011E+02  0.51223659298E+01 -0.12558277893E+04  0.12561137000E+04  0.15500000000E+01 0. -1.
<mgrwt>
<rscale>  2 0.12500796E+03</rscale>
<asrwt>0</asrwt>
<pdfrwt beam="1">  1       21 0.45543583E-03 0.12500796E+03</pdfrwt>
<pdfrwt beam="2">  1       21 0.20303056E+00 0.12500796E+03</pdfrwt>
<totfact> 0.16847018E+06</totfact>
</mgrwt>
</event>
<event>
 5    0  0.1295656E+000  0.1249990E+03  0.7546771E-02  0.1235071E+00
         21   -1    0    0  503  502  0.00000000000E+00  0.00000000000E+00  0.35087262046E+03  0.35087262046E+03  0.00000000000E+00 0. -1.
         21   -1    0    0  502  503 -0.00000000000E+00 -0.00000000000E+00 -0.11132780007E+02  0.11132780007E+02  0.00000000000E+00 0. -1.
         25    2    1    2    0    0  0.00000000000E+00  0.00000000000E+00  0.33973984046E+03  0.36200540047E+03  0.12499900310E+03 0.  0.
          4    1    3    3  501    0 -0.32880686544E+02 -0.36814225764E+02  0.28080696828E+03  0.28511643709E+03  0.15500000000E+01 0. -1.
         -4    1    3    3    0  501  0.32880686544E+02  0.36814225764E+02  0.58932872180E+02  0.76888963380E+02  0.15500000000E+01 0. -1.
<mgrwt>
<rscale>  2 0.12499900E+03</rscale>
<asrwt>0</asrwt>
<pdfrwt beam="1">  1       21 0.53980395E-01 0.12499900E+03</pdfrwt>
<pdfrwt beam="2">  1       21 0.17127357E-02 0.12499900E+03</pdfrwt>
<totfact> 0.50665106E+06</totfact>
</mgrwt>
</event>
<event>
 5    0  0.1340448E+000  0.1249046E+03  0.7546771E-02  0.1235218E+00
         21   -1    0    0  503  502  0.00000000000E+00  0.00000000000E+00  0.10716886117E+03  0.10716886117E+03  0.00000000000E+00 0. -1.
         21   -1    0    0  502  503 -0.00000000000E+00 -0.00000000000E+00 -0.36393883479E+02  0.36393883479E+02  0.00000000000E+00 0. -1.
         25    2    1    2    0    0  0.00000000000E+00  0.00000000000E+00  0.70774977687E+02  0.14356274464E+03  0.12490462034E+03 0.  0.
          4    1    3    3  501    0  0.43201852559E+02 -0.16856737510E+02  0.83432889509E+02  0.95467267772E+02  0.15500000000E+01 0.  1.
         -4    1    3    3    0  501 -0.43201852559E+02  0.16856737510E+02 -0.12657911822E+02  0.48095476873E+02  0.15500000000E+01 0.  1.
<mgrwt>
<rscale>  2 0.12490462E+03</rscale>
<asrwt>0</asrwt>
<pdfrwt beam="1">  1       21 0.16487517E-01 0.12490462E+03</pdfrwt>
<pdfrwt beam="2">  1       21 0.55990590E-02 0.12490462E+03</pdfrwt>
<totfact> 0.71751699E+06</totfact>
</mgrwt>
</event>
<event>
 5    0  0.1518384E+000  0.1250070E+03  0.7546771E-02  0.1235058E+00
         21   -1    0    0  503  502  0.00000000000E+00  0.00000000000E+00  0.28478831240E+02  0.28478831240E+02  0.00000000000E+00 0. -1.
         21   -1    0    0  502  503 -0.00000000000E+00 -0.00000000000E+00 -0.13717868816E+03  0.13717868816E+03  0.00000000000E+00 0. -1.
         25    2    1    2    0    0  0.00000000000E+00  0.00000000000E+00 -0.10869985692E+03  0.16565751940E+03  0.12500701916E+03 0.  0.
          4    1    3    3  501    0  0.45343378326E+02  0.34933573200E+02 -0.21143256204E+02  0.61039464918E+02  0.15500000000E+01 0.  1.
         -4    1    3    3    0  501 -0.45343378326E+02 -0.34933573200E+02 -0.87556600719E+02  0.10461805448E+03  0.15500000000E+01 0.  1.
<mgrwt>
<rscale>  2 0.12500702E+03</rscale>
<asrwt>0</asrwt>
<pdfrwt beam="1">  1       21 0.43813586E-02 0.12500702E+03</pdfrwt>
<pdfrwt beam="2">  1       21 0.21104414E-01 0.12500702E+03</pdfrwt>
<totfact> 0.68822455E+06</totfact>
</mgrwt>
</event>
<event>
 5    0  0.1222151E+000  0.1250036E+03  0.7546771E-02  0.1235064E+00
         21   -1    0    0  503  502  0.00000000000E+00  0.00000000000E+00  0.57406241081E+03  0.57406241081E+03  0.00000000000E+00 0.  1.
         21   -1    0    0  502  503 -0.00000000000E+00 -0.00000000000E+00 -0.68049663305E+01  0.68049663305E+01  0.00000000000E+00 0.  1.
         25    2    1    2    0    0  0.00000000000E+00  0.00000000000E+00  0.56725744448E+03  0.58086737714E+03  0.12500360598E+03 0.  0.
          4    1    3    3  501    0  0.21710913571E+02 -0.35939482554E+02  0.49864391012E+03  0.50041099286E+03  0.15500000000E+01 0. -1.
         -4    1    3    3    0  501 -0.21710913571E+02  0.35939482554E+02  0.68613534358E+02  0.80456384280E+02  0.15500000000E+01 0. -1.
<mgrwt>
<rscale>  2 0.12500361E+03</rscale>
<asrwt>0</asrwt>
<pdfrwt beam="1">  1       21 0.88317256E-01 0.12500361E+03</pdfrwt>
<pdfrwt beam="2">  1       21 0.10469183E-02 0.12500361E+03</pdfrwt>
<totfact> 0.37969033E+06</totfact>
</mgrwt>
</event>
<event>
 5    0  0.1222151E+000  0.1250020E+03  0.7546771E-02  0.1235066E+00
         21   -1    0    0  503  502  0.00000000000E+00  0.00000000000E+00  0.93578197016E+03  0.93578197016E+03  0.00000000000E+00 0.  1.
         21   -1    0    0  502  503 -0.00000000000E+00 -0.00000000000E+00 -0.41744524200E+01  0.41744524200E+01  0.00000000000E+00 0.  1.
         25    2    1    2    0    0  0.00000000000E+00  0.00000000000E+00  0.93160751774E+03  0.93995642258E+03  0.12500203694E+03 0.  0.
          4    1    3    3  501    0  0.19081922495E+02  0.48726761035E+02  0.72252247829E+03  0.72441669718E+03  0.15500000000E+01 0. -1.
         -4    1    3    3    0  501 -0.19081922495E+02 -0.48726761035E+02  0.20908503944E+03  0.21553972540E+03  0.15500000000E+01 0. -1.
<mgrwt>
<rscale>  2 0.12500204E+03</rscale>
<asrwt>0</asrwt>
<pdfrwt beam="1">  1       21 0.14396629E+00 0.12500204E+03</pdfrwt>
<pdfrwt beam="2">  1       21 0.64222419E-03 0.12500204E+03</pdfrwt>
<totfact> 0.25181013E+06</totfact>
</mgrwt>
</event>
<event>
 5    0  0.1312483E+000  0.1249937E+03  0.7546771E-02  0.1235079E+00
         21   -1    0    0  503  502  0.00000000000E+00  0.00000000000E+00  0.57798941789E+03  0.57798941789E+03  0.00000000000E+00 0. -1.
         21   -1    0    0  502  503 -0.00000000000E+00 -0.00000000000E+00 -0.67576644713E+01  0.67576644713E+01  0.00000000000E+00 0. -1.
         25    2    1    2    0    0  0.00000000000E+00  0.00000000000E+00  0.57123175342E+03  0.58474708237E+03  0.12499373671E+03 0.  0.
          4    1    3    3  501    0 -0.11850639749E+02  0.55148965937E+02  0.41128571833E+03  0.41513876079E+03  0.15500000000E+01 0. -1.
         -4    1    3    3    0  501  0.11850639749E+02 -0.55148965937E+02  0.15994603509E+03  0.16960832157E+03  0.15500000000E+01 0. -1.
<mgrwt>
<rscale>  2 0.12499374E+03</rscale>
<asrwt>0</asrwt>
<pdfrwt beam="1">  1       21 0.88921410E-01 0.12499374E+03</pdfrwt>
<pdfrwt beam="2">  1       21 0.10396411E-02 0.12499374E+03</pdfrwt>
<totfact> 0.37797529E+06</totfact>
</mgrwt>
</event>
<event>
 5    0  0.1500917E+000  0.1250034E+03  0.7546771E-02  0.1235064E+00
         21   -1    0    0  503  502  0.00000000000E+00  0.00000000000E+00  0.30562999744E+02  0.30562999744E+02  0.00000000000E+00 0.  1.
         21   -1    0    0  502  503 -0.00000000000E+00 -0.00000000000E+00 -0.12781674178E+03  0.12781674178E+03  0.00000000000E+00 0.  1.
         25    2    1    2    0    0  0.00000000000E+00  0.00000000000E+00 -0.97253742033E+02  0.15837974152E+03  0.12500340869E+03 0.  0.
          4    1    3    3  501    0  0.39614817972E+02 -0.35020714594E+02 -0.64473352400E+01  0.53289350580E+02  0.15500000000E+01 0. -1.
         -4    1    3    3    0  501 -0.39614817972E+02  0.35020714594E+02 -0.90806406793E+02  0.10509039094E+03  0.15500000000E+01 0. -1.
<mgrwt>
<rscale>  2 0.12500341E+03</rscale>
<asrwt>0</asrwt>
<pdfrwt beam="1">  1       21 0.47020000E-02 0.12500341E+03</pdfrwt>
<pdfrwt beam="2">  1       21 0.19664114E-01 0.12500341E+03</pdfrwt>
<totfact> 0.69711975E+06</totfact>
</mgrwt>
</event>
<event>
 5    0  0.1587254E+000  0.1249883E+03  0.7546771E-02  0.1235088E+00
         21   -1    0    0  503  502  0.00000000000E+00  0.00000000000E+00  0.46374215200E+02  0.46374215200E+02  0.00000000000E+00 0.  1.
         21   -1    0    0  502  503 -0.00000000000E+00 -0.00000000000E+00 -0.84217429484E+02  0.84217429484E+02  0.00000000000E+00 0.  1.
         25    2    1    2    0    0  0.00000000000E+00  0.00000000000E+00 -0.37843214284E+02  0.13059164468E+03  0.12498827463E+03 0.  0.
          4    1    3    3  501    0 -0.27123100103E+02  0.24741925995E+02 -0.71737685507E+02  0.80601014156E+02  0.15500000000E+01 0. -1.
         -4    1    3    3    0  501  0.27123100103E+02 -0.24741925995E+02  0.33894471223E+02  0.49990630528E+02  0.15500000000E+01 0. -1.
<mgrwt>
<rscale>  2 0.12498827E+03</rscale>
<asrwt>0</asrwt>
<pdfrwt beam="1">  1       21 0.71344947E-02 0.12498827E+03</pdfrwt>
<pdfrwt beam="2">  1       21 0.12956528E-01 0.12498827E+03</pdfrwt>
<totfact> 0.73307681E+06</totfact>
</mgrwt>
</event>
<event>
 5    0  0.1360033E+000  0.1250005E+03  0.7546771E-02  0.1235069E+00
         21   -1    0    0  503  502  0.00000000000E+00  0.00000000000E+00  0.13109013330E+02  0.13109013330E+02  0.00000000000E+00 0.  1.
         21   -1    0    0  502  503 -0.00000000000E+00 -0.00000000000E+00 -0.29798415338E+03  0.29798415338E+03  0.00000000000E+00 0.  1.
         25    2    1    2    0    0  0.00000000000E+00  0.00000000000E+00 -0.28487514005E+03  0.31109316671E+03  0.12500045182E+03 0.  0.
          4    1    3    3  501    0  0.52362552931E+02 -0.12073509249E+02 -0.63099201970E+02  0.82894622047E+02  0.15500000000E+01 0.  1.
         -4    1    3    3    0  501 -0.52362552931E+02  0.12073509249E+02 -0.22177593808E+03  0.22819854466E+03  0.15500000000E+01 0.  1.
<mgrwt>
<rscale>  2 0.12500045E+03</rscale>
<asrwt>0</asrwt>
<pdfrwt beam="1">  1       21 0.20167713E-02 0.12500045E+03</pdfrwt>
<pdfrwt beam="2">  1       21 0.45843716E-01 0.12500045E+03</pdfrwt>
<totfact> 0.54546086E+06</totfact>
</mgrwt>
</event>
<event>
 5    0  0.1222151E+000  0.1250040E+03  0.7546771E-02  0.1235063E+00
         21   -1    0    0  503  502  0.00000000000E+00  0.00000000000E+00  0.12165589394E+04  0.12165589394E+04  0.00000000000E+00 0.  1.
         21   -1    0    0  502  503 -0.00000000000E+00 -0.00000000000E+00 -0.32111068929E+01  0.32111068929E+01  0.00000000000E+00 0.  1.
         25    2    1    2    0    0  0.00000000000E+00  0.00000000000E+00  0.12133478325E+04  0.12197700463E+04  0.12500401267E+03 0.  0.
          4    1    3    3  501    0  0.21153496324E+02  0.36456093779E+02  0.10567615424E+04  0.10576028920E+04  0.15500000000E+01 0. -1.
         -4    1    3    3    0  501 -0.21153496324E+02 -0.36456093779E+02  0.15658629009E+03  0.16216715428E+03  0.15500000000E+01 0. -1.
<mgrwt>
<rscale>  2 0.12500401E+03</rscale>
<asrwt>0</asrwt>
<pdfrwt beam="1">  1       21 0.18716255E+00 0.12500401E+03</pdfrwt>
<pdfrwt beam="2">  1       21 0.49401741E-03 0.12500401E+03</pdfrwt>
<totfact> 0.18751978E+06</totfact>
</mgrwt>
</event>
<event>
 5    0  0.1353005E+000  0.1250025E+03  0.7546771E-02  0.1235065E+00
         21   -1    0    0  503  502  0.00000000000E+00  0.00000000000E+00  0.42022985098E+03  0.42022985098E+03  0.00000000000E+00 0.  1.
         21   -1    0    0  502  503 -0.00000000000E+00 -0.00000000000E+00 -0.92958865246E+01  0.92958865246E+01  0.00000000000E+00 0.  1.
         25    2    1    2    0    0  0.00000000000E+00  0.00000000000E+00  0.41093396446E+03  0.42952573751E+03  0.12500254412E+03 0.  0.
          4    1    3    3  501    0 -0.51141062695E+02 -0.25786945737E+02  0.11965767172E+03  0.13266776460E+03  0.15500000000E+01 0.  1.
         -4    1    3    3    0  501  0.51141062695E+02  0.25786945737E+02  0.29127629274E+03  0.29685797291E+03  0.15500000000E+01 0.  1.
<mgrwt>
<rscale>  2 0.12500254E+03</rscale>
<asrwt>0</asrwt>
<pdfrwt beam="1">  1       21 0.64650732E-01 0.12500254E+03</pdfrwt>
<pdfrwt beam="2">  1       21 0.14301367E-02 0.12500254E+03</pdfrwt>
<totfact> 0.46139752E+06</totfact>
</mgrwt>
</event>
<event>
 5    0  0.1339893E+000  0.1250011E+03  0.7546771E-02  0.1235068E+00
         21   -1    0    0  503  502  0.00000000000E+00  0.00000000000E+00  0.75397765346E+01  0.75397765346E+01  0.00000000000E+00 0. -1.
         21   -1    0    0  502  503 -0.00000000000E+00 -0.00000000000E+00 -0.51809509393E+03  0.51809509393E+03  0.00000000000E+00 0. -1.
         25    2    1    2    0    0  0.00000000000E+00  0.00000000000E+00 -0.51055531739E+03  0.52563487046E+03  0.12500113971E+03 0.  0.
          4    1    3    3  501    0  0.13384523827E+02  0.53841311508E+02 -0.13443219273E+03  0.14543881616E+03  0.15500000000E+01 0. -1.
         -4    1    3    3    0  501 -0.13384523827E+02 -0.53841311508E+02 -0.37612312466E+03  0.38019605431E+03  0.15500000000E+01 0. -1.
<mgrwt>
<rscale>  2 0.12500114E+03</rscale>
<asrwt>0</asrwt>
<pdfrwt beam="1">  1       21 0.11599657E-02 0.12500114E+03</pdfrwt>
<pdfrwt beam="2">  1       21 0.79706929E-01 0.12500114E+03</pdfrwt>
<totfact> 0.40685955E+06</totfact>
</mgrwt>
</event>
<event>
 5    0  0.1594534E+000  0.1249988E+03  0.7546771E-02  0.1235071E+00
         21   -1    0    0  503  502  0.00000000000E+00  0.00000000000E+00  0.10051767702E+03  0.10051767702E+03  0.00000000000E+00 0.  1.
         21   -1    0    0  502  503 -0.00000000000E+00 -0.00000000000E+00 -0.38860557639E+02  0.38860557639E+02  0.00000000000E+00 0.  1.
         25    2    1    2    0    0  0.00000000000E+00  0.00000000000E+00  0.61657119377E+02  0.13937823466E+03  0.12499876770E+03 0.  0.
          4    1    3    3  501    0  0.56225789184E+02 -0.23419200127E+02  0.15299006924E+02  0.62819267878E+02  0.15500000000E+01 0. -1.
         -4    1    3    3    0  501 -0.56225789184E+02  0.23419200127E+02  0.46358112453E+02  0.76558966778E+02  0.15500000000E+01 0. -1.
<mgrwt>
<rscale>  2 0.12499877E+03</rscale>
<asrwt>0</asrwt>
<pdfrwt beam="1">  1       21 0.15464258E-01 0.12499877E+03</pdfrwt>
<pdfrwt beam="2">  1       21 0.59785474E-02 0.12499877E+03</pdfrwt>
<totfact> 0.72122847E+06</totfact>
</mgrwt>
</event>
<event>
 5    0  0.1222151E+000  0.1249998E+03  0.7546771E-02  0.1235070E+00
         21   -1    0    0  503  502  0.00000000000E+00  0.00000000000E+00  0.82340894450E+02  0.82340894450E+02  0.00000000000E+00 0. -1.
         21   -1    0    0  502  503 -0.00000000000E+00 -0.00000000000E+00 -0.47439845603E+02  0.47439845603E+02  0.00000000000E+00 0. -1.
         25    2    1    2    0    0  0.00000000000E+00  0.00000000000E+00  0.34901048847E+02  0.12978074005E+03  0.12499982911E+03 0.  0.
          4    1    3    3  501    0 -0.54188059516E+00 -0.21909544359E+02 -0.43298169865E+02  0.48553638198E+02  0.15500000000E+01 0. -1.
         -4    1    3    3    0  501  0.54188059516E+00  0.21909544359E+02  0.78199218712E+02  0.81227101855E+02  0.15500000000E+01 0. -1.
<mgrwt>
<rscale>  2 0.12499983E+03</rscale>
<asrwt>0</asrwt>
<pdfrwt beam="1">  1       21 0.12667830E-01 0.12499983E+03</pdfrwt>
<pdfrwt beam="2">  1       21 0.72984378E-02 0.12499983E+03</pdfrwt>
<totfact> 0.73394554E+06</totfact>
</mgrwt>
</event>
<event>
 5    0  0.1260509E+000  0.1249995E+03  0.7546771E-02  0.1235070E+00
         21   -1    0    0  503  502  0.00000000000E+00  0.00000000000E+00  0.70078083139E+03  0.70078083139E+03  0.00000000000E+00 0.  1.
         21   -1    0    0  502  503 -0.00000000000E+00 -0.00000000000E+00 -0.55740949031E+01  0.55740949031E+01  0.00000000000E+00 0.  1.
         25    2    1    2    0    0  0.00000000000E+00  0.00000000000E+00  0.69520673648E+03  0.70635492629E+03  0.12499950177E+03 0.  0.
          4    1    3    3  501    0  0.40851781508E+02  0.42616746536E+02  0.23196607271E+03  0.23936523667E+03  0.15500000000E+01 0.  1.
         -4    1    3    3    0  501 -0.40851781508E+02 -0.42616746536E+02  0.46324066377E+03  0.46698968961E+03  0.15500000000E+01 0.  1.
<mgrwt>
<rscale>  2 0.12499950E+03</rscale>
<asrwt>0</asrwt>
<pdfrwt beam="1">  1       21 0.10781237E+00 0.12499950E+03</pdfrwt>
<pdfrwt beam="2">  1       21 0.85755362E-03 0.12499950E+03</pdfrwt>
<totfact> 0.32666992E+06</totfact>
</mgrwt>
</event>
<event>
 5    0  0.1300192E+000  0.1250048E+03  0.7546771E-02  0.1235062E+00
         21   -1    0    0  503  502  0.00000000000E+00  0.00000000000E+00  0.38760726375E+03  0.38760726375E+03  0.00000000000E+00 0. -1.
         21   -1    0    0  502  503 -0.00000000000E+00 -0.00000000000E+00 -0.10078624432E+02  0.10078624432E+02  0.00000000000E+00 0. -1.
         25    2    1    2    0    0  0.00000000000E+00  0.00000000000E+00  0.37752863932E+03  0.39768588819E+03  0.12500476853E+03 0.  0.
          4    1    3    3  501    0  0.27589841791E+02  0.26320595063E+02  0.31289207710E+02  0.49349671870E+02  0.15500000000E+01 0. -1.
         -4    1    3    3    0  501 -0.27589841791E+02 -0.26320595063E+02  0.34623943161E+03  0.34833621631E+03  0.15500000000E+01 0. -1.
<mgrwt>
<rscale>  2 0.12500477E+03</rscale>
<asrwt>0</asrwt>
<pdfrwt beam="1">  1       21 0.59631875E-01 0.12500477E+03</pdfrwt>
<pdfrwt beam="2">  1       21 0.15505579E-02 0.12500477E+03</pdfrwt>
<totfact> 0.48189483E+06</totfact>
</mgrwt>
</event>
<event>
 5    0  0.1401459E+000  0.1250279E+03  0.7546771E-02  0.1235026E+00
         21   -1    0    0  503  502  0.00000000000E+00  0.00000000000E+00  0.12300142662E+02  0.12300142662E+02  0.00000000000E+00 0.  1.
         21   -1    0    0  502  503 -0.00000000000E+00 -0.00000000000E+00 -0.31771932422E+03  0.31771932422E+03  0.00000000000E+00 0.  1.
         25    2    1    2    0    0  0.00000000000E+00  0.00000000000E+00 -0.30541918156E+03  0.33001946689E+03  0.12502788512E+03 0.  0.
          4    1    3    3  501    0 -0.40716686911E+02 -0.46692531877E+02 -0.17440377800E+03  0.18508679425E+03  0.15500000000E+01 0. -1.
         -4    1    3    3    0  501  0.40716686911E+02  0.46692531877E+02 -0.13101540357E+03  0.14493267264E+03  0.15500000000E+01 0. -1.
<mgrwt>
<rscale>  2 0.12502789E+03</rscale>
<asrwt>0</asrwt>
<pdfrwt beam="1">  1       21 0.18923297E-02 0.12502789E+03</pdfrwt>
<pdfrwt beam="2">  1       21 0.48879895E-01 0.12502789E+03</pdfrwt>
<totfact> 0.53011705E+06</totfact>
</mgrwt>
</event>
<event>
 5    0  0.1430371E+000  0.1250072E+03  0.7546771E-02  0.1235058E+00
         21   -1    0    0  503  502  0.00000000000E+00  0.00000000000E+00  0.27897901101E+03  0.27897901101E+03  0.00000000000E+00 0.  1.
         21   -1    0    0  502  503 -0.00000000000E+00 -0.00000000000E+00 -0.14003569122E+02  0.14003569122E+02  0.00000000000E+00 0.  1.
         25    2    1    2    0    0  0.00000000000E+00  0.00000000000E+00  0.26497544189E+03  0.29298258014E+03  0.12500722962E+03 0.  0.
          4    1    3    3  501    0  0.59170801059E+02 -0.16476570811E+02  0.15937815234E+03  0.17081117946E+03  0.15500000000E+01 0. -1.
         -4    1    3    3    0  501 -0.59170801059E+02  0.16476570811E+02  0.10559728955E+03  0.12217140068E+03  0.15500000000E+01 0. -1.
<mgrwt>
<rscale>  2 0.12500723E+03</rscale>
<asrwt>0</asrwt>
<pdfrwt beam="1">  1       21 0.42919844E-01 0.12500723E+03</pdfrwt>
<pdfrwt beam="2">  1       21 0.21543955E-02 0.12500723E+03</pdfrwt>
<totfact> 0.56034256E+06</totfact>
</mgrwt>
</event>
<event>
 5    0  0.1455166E+000  0.1250015E+03  0.7546771E-02  0.1235067E+00
         21   -1    0    0  503  502  0.00000000000E+00  0.00000000000E+00  0.13432854398E+02  0.13432854398E+02  0.00000000000E+00 0. -1.
         21   -1    0    0  502  503 -0.00000000000E+00 -0.00000000000E+00 -0.29080503120E+03  0.29080503120E+03  0.00000000000E+00 0. -1.
         25    2    1    2    0    0  0.00000000000E+00  0.00000000000E+00 -0.27737217680E+03  0.30423788560E+03  0.12500146627E+03 0.  0.
          4    1    3    3  501    0 -0.51948107882E+02  0.11374830362E+01 -0.54232417937E+02  0.75122948794E+02  0.15500000000E+01 0.  1.
         -4    1    3    3    0  501  0.51948107882E+02 -0.11374830362E+01 -0.22313975887E+03  0.22911493680E+03  0.15500000000E+01 0.  1.
<mgrwt>
<rscale>  2 0.12500147E+03</rscale>
<asrwt>0</asrwt>
<pdfrwt beam="1">  1       21 0.20665931E-02 0.12500147E+03</pdfrwt>
<pdfrwt beam="2">  1       21 0.44739233E-01 0.12500147E+03</pdfrwt>
<totfact> 0.55103789E+06</totfact>
</mgrwt>
</event>
<event>
 5    0  0.1222151E+000  0.1250015E+03  0.7546771E-02  0.1235067E+00
         21   -1    0    0  503  502  0.00000000000E+00  0.00000000000E+00  0.18494194405E+04  0.18494194405E+04  0.00000000000E+00 0.  1.
         21   -1    0    0  502  503 -0.00000000000E+00 -0.00000000000E+00 -0.21121990910E+01  0.21121990910E+01  0.00000000000E+00 0.  1.
         25    2    1    2    0    0  0.00000000000E+00  0.00000000000E+00  0.18473072414E+04  0.18515316395E+04  0.12500147297E+03 0.  0.
          4    1    3    3  501    0  0.53872504781E+02  0.31601392591E+02  0.94949964031E+03  0.95155286991E+03  0.15500000000E+01 0. -1.
         -4    1    3    3    0  501 -0.53872504781E+02 -0.31601392591E+02  0.89780760105E+03  0.89997876964E+03  0.15500000000E+01 0. -1.
<mgrwt>
<rscale>  2 0.12500147E+03</rscale>
<asrwt>0</asrwt>
<pdfrwt beam="1">  1       21 0.28452477E+00 0.12500147E+03</pdfrwt>
<pdfrwt beam="2">  1       21 0.32495519E-03 0.12500147E+03</pdfrwt>
<totfact> 0.94891811E+05</totfact>
</mgrwt>
</event>
<event>
 5    0  0.1286904E+000  0.1250019E+03  0.7546771E-02  0.1235066E+00
         21   -1    0    0  503  502  0.00000000000E+00  0.00000000000E+00  0.48996924762E+03  0.48996924762E+03  0.00000000000E+00 0. -1.
         21   -1    0    0  502  503 -0.00000000000E+00 -0.00000000000E+00 -0.79726810702E+01  0.79726810702E+01  0.00000000000E+00 0. -1.
         25    2    1    2    0    0  0.00000000000E+00  0.00000000000E+00  0.48199656655E+03  0.49794192869E+03  0.12500189671E+03 0.  0.
          4    1    3    3  501    0 -0.35692181091E+02  0.77029444400E+01  0.39027895039E+02  0.53468179651E+02  0.15500000000E+01 0. -1.
         -4    1    3    3    0  501  0.35692181091E+02 -0.77029444400E+01  0.44296867151E+03  0.44447374904E+03  0.15500000000E+01 0. -1.
<mgrwt>
<rscale>  2 0.12500190E+03</rscale>
<asrwt>0</asrwt>
<pdfrwt beam="1">  1       21 0.75379861E-01 0.12500190E+03</pdfrwt>
<pdfrwt beam="2">  1       21 0.12265667E-02 0.12500190E+03</pdfrwt>
<totfact> 0.42153922E+06</totfact>
</mgrwt>
</event>
<event>
 5    0  0.1268438E+000  0.1250399E+03  0.7546771E-02  0.1235007E+00
         21   -1    0    0  503  502  0.00000000000E+00  0.00000000000E+00  0.54134289017E+03  0.54134289017E+03  0.00000000000E+00 0. -1.
         21   -1    0    0  502  503 -0.00000000000E+00 -0.00000000000E+00 -0.72204562192E+01  0.72204562192E+01  0.00000000000E+00 0. -1.
         25    2    1    2    0    0  0.00000000000E+00  0.00000000000E+00  0.53412243395E+03  0.54856334639E+03  0.12503987585E+03 0.  0.
          4    1    3    3  501    0  0.28085159033E+02 -0.25357079471E+02  0.48529863794E+03  0.48677400108E+03  0.15500000000E+01 0. -1.
         -4    1    3    3    0  501 -0.28085159033E+02  0.25357079471E+02  0.48823796007E+02  0.61789345309E+02  0.15500000000E+01 0. -1.
<mgrwt>
<rscale>  2 0.12503988E+03</rscale>
<asrwt>0</asrwt>
<pdfrwt beam="1">  1       21 0.83283489E-01 0.12503988E+03</pdfrwt>
<pdfrwt beam="2">  1       21 0.11108398E-02 0.12503988E+03</pdfrwt>
<totfact> 0.39487995E+06</totfact>
</mgrwt>
</event>
<event>
 5    0  0.1541937E+000  0.1249857E+03  0.7546771E-02  0.1235092E+00
         21   -1    0    0  503  502  0.00000000000E+00  0.00000000000E+00  0.10648190898E+03  0.10648190898E+03  0.00000000000E+00 0.  1.
         21   -1    0    0  502  503 -0.00000000000E+00 -0.00000000000E+00 -0.36676234224E+02  0.36676234224E+02  0.00000000000E+00 0.  1.
         25    2    1    2    0    0  0.00000000000E+00  0.00000000000E+00  0.69805674754E+02  0.14315814320E+03  0.12498568613E+03 0.  0.
          4    1    3    3  501    0  0.19986721224E+02  0.56740731788E+02  0.15601184289E+02  0.62167347702E+02  0.15500000000E+01 0. -1.
         -4    1    3    3    0  501 -0.19986721224E+02 -0.56740731788E+02  0.54204490466E+02  0.80990795500E+02  0.15500000000E+01 0. -1.
<mgrwt>
<rscale>  2 0.12498569E+03</rscale>
<asrwt>0</asrwt>
<pdfrwt beam="1">  1       21 0.16381832E-01 0.12498569E+03</pdfrwt>
<pdfrwt beam="2">  1       21 0.56424976E-02 0.12498569E+03</pdfrwt>
<totfact> 0.71655775E+06</totfact>
</mgrwt>
</event>
<event>
 5    0  0.1391013E+000  0.1249994E+03  0.7546771E-02  0.1235070E+00
         21   -1    0    0  503  502  0.00000000000E+00  0.00000000000E+00  0.19170771839E+02  0.19170771839E+02  0.00000000000E+00 0. -1.
         21   -1    0    0  502  503 -0.00000000000E+00 -0.00000000000E+00 -0.20375882778E+03  0.20375882778E+03  0.00000000000E+00 0. -1.
         25    2    1    2    0    0  0.00000000000E+00  0.00000000000E+00 -0.18458805594E+03  0.22292959962E+03  0.12499942396E+03 0.  0.
          4    1    3    3  501    0  0.21507964929E+02 -0.63173757018E+01  0.11717820262E+02  0.25341894224E+02  0.15500000000E+01 0. -1.
         -4    1    3    3    0  501 -0.21507964929E+02  0.63173757018E+01 -0.19630587620E+03  0.19758770539E+03  0.15500000000E+01 0. -1.
<mgrwt>
<rscale>  2 0.12499942E+03</rscale>
<asrwt>0</asrwt>
<pdfrwt beam="1">  1       21 0.29493496E-02 0.12499942E+03</pdfrwt>
<pdfrwt beam="2">  1       21 0.31347511E-01 0.12499942E+03</pdfrwt>
<totfact> 0.62525251E+06</totfact>
</mgrwt>
</event>
<event>
 5    0  0.1575248E+000  0.1249969E+03  0.7546771E-02  0.1235074E+00
         21   -1    0    0  503  502  0.00000000000E+00  0.00000000000E+00  0.50151272424E+02  0.50151272424E+02  0.00000000000E+00 0. -1.
         21   -1    0    0  502  503 -0.00000000000E+00 -0.00000000000E+00 -0.77885524096E+02  0.77885524096E+02  0.00000000000E+00 0. -1.
         25    2    1    2    0    0  0.00000000000E+00  0.00000000000E+00 -0.27734251672E+02  0.12803679652E+03  0.12499693015E+03 0.  0.
          4    1    3    3  501    0  0.45274307504E+02  0.33453856607E+02  0.13898021836E+02  0.58004145996E+02  0.15500000000E+01 0. -1.
         -4    1    3    3    0  501 -0.45274307504E+02 -0.33453856607E+02 -0.41632273508E+02  0.70032650523E+02  0.15500000000E+01 0. -1.
<mgrwt>
<rscale>  2 0.12499693E+03</rscale>
<asrwt>0</asrwt>
<pdfrwt beam="1">  1       21 0.77155804E-02 0.12499693E+03</pdfrwt>
<pdfrwt beam="2">  1       21 0.11982388E-01 0.12499693E+03</pdfrwt>
<totfact> 0.73634360E+06</totfact>
</mgrwt>
</event>
<event>
 5    0  0.1387056E+000  0.1249980E+03  0.7546771E-02  0.1235072E+00
         21   -1    0    0  503  502  0.00000000000E+00  0.00000000000E+00  0.42970587047E+03  0.42970587047E+03  0.00000000000E+00 0.  1.
         21   -1    0    0  502  503 -0.00000000000E+00 -0.00000000000E+00 -0.90902306503E+01  0.90902306503E+01  0.00000000000E+00 0.  1.
         25    2    1    2    0    0  0.00000000000E+00  0.00000000000E+00  0.42061563982E+03  0.43879610112E+03  0.12499800757E+03 0.  0.
          4    1    3    3  501    0 -0.10507590802E+02  0.60154684671E+02  0.16390544549E+03  0.17491824695E+03  0.15500000000E+01 0.  1.
         -4    1    3    3    0  501  0.10507590802E+02 -0.60154684671E+02  0.25671019432E+03  0.26387785417E+03  0.15500000000E+01 0.  1.
<mgrwt>
<rscale>  2 0.12499801E+03</rscale>
<asrwt>0</asrwt>
<pdfrwt beam="1">  1       21 0.66108580E-01 0.12499801E+03</pdfrwt>
<pdfrwt beam="2">  1       21 0.13984974E-02 0.12499801E+03</pdfrwt>
<totfact> 0.45572450E+06</totfact>
</mgrwt>
</event>
<event>
 5    0  0.1222151E+000  0.1250042E+03  0.7546771E-02  0.1235063E+00
         21   -1    0    0  503  502  0.00000000000E+00  0.00000000000E+00  0.13187916804E+04  0.13187916804E+04  0.00000000000E+00 0. -1.
         21   -1    0    0  502  503 -0.00000000000E+00 -0.00000000000E+00 -0.29621883811E+01  0.29621883811E+01  0.00000000000E+00 0. -1.
         25    2    1    2    0    0  0.00000000000E+00  0.00000000000E+00  0.13158294920E+04  0.13217538688E+04  0.12500415021E+03 0.  0.
          4    1    3    3  501    0 -0.55452670963E+02 -0.27937881557E+02  0.73161484960E+03  0.73424669873E+03  0.15500000000E+01 0. -1.
         -4    1    3    3    0  501  0.55452670963E+02  0.27937881557E+02  0.58421464239E+03  0.58750717002E+03  0.15500000000E+01 0. -1.
<mgrwt>
<rscale>  2 0.12500415E+03</rscale>
<asrwt>0</asrwt>
<pdfrwt beam="1">  1       21 0.20289056E+00 0.12500415E+03</pdfrwt>
<pdfrwt beam="2">  1       21 0.45572234E-03 0.12500415E+03</pdfrwt>
<totfact> 0.16864535E+06</totfact>
</mgrwt>
</event>
<event>
 5    0  0.1351489E+000  0.1249990E+03  0.7546771E-02  0.1235071E+00
         21   -1    0    0  503  502  0.00000000000E+00  0.00000000000E+00  0.12886121856E+02  0.12886121856E+02  0.00000000000E+00 0.  1.
         21   -1    0    0  502  503 -0.00000000000E+00 -0.00000000000E+00 -0.30313155177E+03  0.30313155177E+03  0.00000000000E+00 0.  1.
         25    2    1    2    0    0  0.00000000000E+00  0.00000000000E+00 -0.29024542992E+03  0.31601767363E+03  0.12499904183E+03 0.  0.
          4    1    3    3  501    0  0.26923427165E+02  0.13526365800E+02 -0.67430526908E+01  0.30914474954E+02  0.15500000000E+01 0.  1.
         -4    1    3    3    0  501 -0.26923427165E+02 -0.13526365800E+02 -0.28350237723E+03  0.28510319868E+03  0.15500000000E+01 0.  1.
<mgrwt>
<rscale>  2 0.12499904E+03</rscale>
<asrwt>0</asrwt>
<pdfrwt beam="1">  1       21 0.19824804E-02 0.12499904E+03</pdfrwt>
<pdfrwt beam="2">  1       21 0.46635620E-01 0.12499904E+03</pdfrwt>
<totfact> 0.54151741E+06</totfact>
</mgrwt>
</event>
<event>
 5    0  0.1222151E+000  0.1250006E+03  0.7546771E-02  0.1235068E+00
         21   -1    0    0  503  502  0.00000000000E+00  0.00000000000E+00  0.25116540962E+02  0.25116540962E+02  0.00000000000E+00 0.  1.
         21   -1    0    0  502  503 -0.00000000000E+00 -0.00000000000E+00 -0.15552656754E+03  0.15552656754E+03  0.00000000000E+00 0.  1.
         25    2    1    2    0    0  0.00000000000E+00  0.00000000000E+00 -0.13041002658E+03  0.18064310850E+03  0.12500063047E+03 0.  0.
          4    1    3    3  501    0  0.85963991215E+01 -0.19341344612E+02 -0.15016019135E+03  0.15165246867E+03  0.15500000000E+01 0. -1.
         -4    1    3    3    0  501 -0.85963991215E+01  0.19341344612E+02  0.19750164769E+02  0.28990639828E+02  0.15500000000E+01 0. -1.
<mgrwt>
<rscale>  2 0.12500063E+03</rscale>
<asrwt>0</asrwt>
<pdfrwt beam="1">  1       21 0.38640832E-02 0.12500063E+03</pdfrwt>
<pdfrwt beam="2">  1       21 0.23927164E-01 0.12500063E+03</pdfrwt>
<totfact> 0.67076765E+06</totfact>
</mgrwt>
</event>
<event>
 5    0  0.1570230E+000  0.1249991E+03  0.7546771E-02  0.1235071E+00
         21   -1    0    0  503  502  0.00000000000E+00  0.00000000000E+00  0.11053363806E+03  0.11053363806E+03  0.00000000000E+00 0. -1.
         21   -1    0    0  502  503 -0.00000000000E+00 -0.00000000000E+00 -0.35339438704E+02  0.35339438704E+02  0.00000000000E+00 0. -1.
         25    2    1    2    0    0  0.00000000000E+00  0.00000000000E+00  0.75194199353E+02  0.14587307676E+03  0.12499914763E+03 0.  0.
          4    1    3    3  501    0 -0.30337794543E+02 -0.51687037164E+02  0.58205760227E+02  0.83559826545E+02  0.15500000000E+01 0.  1.
         -4    1    3    3    0  501  0.30337794543E+02  0.51687037164E+02  0.16988439125E+02  0.62313250216E+02  0.15500000000E+01 0.  1.
<mgrwt>
<rscale>  2 0.12499915E+03</rscale>
<asrwt>0</asrwt>
<pdfrwt beam="1">  1       21 0.17005175E-01 0.12499915E+03</pdfrwt>
<pdfrwt beam="2">  1       21 0.54368368E-02 0.12499915E+03</pdfrwt>
<totfact> 0.71283101E+06</totfact>
</mgrwt>
</event>
<event>
 5    0  0.1397425E+000  0.1250019E+03  0.7546771E-02  0.1235066E+00
         21   -1    0    0  503  502  0.00000000000E+00  0.00000000000E+00  0.20687170756E+02  0.20687170756E+02  0.00000000000E+00 0.  1.
         21   -1    0    0  502  503 -0.00000000000E+00 -0.00000000000E+00 -0.18883040147E+03  0.18883040147E+03  0.00000000000E+00 0.  1.
         25    2    1    2    0    0  0.00000000000E+00  0.00000000000E+00 -0.16814323072E+03  0.20951757223E+03  0.12500186813E+03 0.  0.
          4    1    3    3  501    0 -0.30263202684E+02  0.39070317308E+02 -0.19991960027E+02  0.53333217576E+02  0.15500000000E+01 0.  1.
         -4    1    3    3    0  501  0.30263202684E+02 -0.39070317308E+02 -0.14815127069E+03  0.15618435465E+03  0.15500000000E+01 0.  1.
<mgrwt>
<rscale>  2 0.12500187E+03</rscale>
<asrwt>0</asrwt>
<pdfrwt beam="1">  1       21 0.31826416E-02 0.12500187E+03</pdfrwt>
<pdfrwt beam="2">  1       21 0.29050832E-01 0.12500187E+03</pdfrwt>
<totfact> 0.63907308E+06</totfact>
</mgrwt>
</event>
<event>
 5    0  0.1222151E+000  0.1250010E+03  0.7546771E-02  0.1235068E+00
         21   -1    0    0  503  502  0.00000000000E+00  0.00000000000E+00  0.24633318537E+01  0.24633318537E+01  0.00000000000E+00 0. -1.
         21   -1    0    0  502  503 -0.00000000000E+00 -0.00000000000E+00 -0.15857835103E+04  0.15857835103E+04  0.00000000000E+00 0. -1.
         25    2    1    2    0    0  0.00000000000E+00  0.00000000000E+00 -0.15833201784E+04  0.15882468422E+04  0.12500097654E+03 0.  0.
          4    1    3    3  501    0 -0.61852591841E+02 -0.70909701897E+01 -0.72456686043E+03  0.72723831219E+03  0.15500000000E+01 0. -1.
         -4    1    3    3    0  501  0.61852591841E+02  0.70909701897E+01 -0.85875331802E+03  0.86100852997E+03  0.15500000000E+01 0. -1.
<mgrwt>
<rscale>  2 0.12500098E+03</rscale>
<asrwt>0</asrwt>
<pdfrwt beam="1">  1       21 0.37897442E-03 0.12500098E+03</pdfrwt>
<pdfrwt beam="2">  1       21 0.24396651E+00 0.12500098E+03</pdfrwt>
<totfact> 0.12733754E+06</totfact>
</mgrwt>
</event>
<event>
 5    0  0.1557642E+000  0.1250013E+03  0.7546771E-02  0.1235067E+00
         21   -1    0    0  503  502  0.00000000000E+00  0.00000000000E+00  0.75217222105E+02  0.75217222105E+02  0.00000000000E+00 0. -1.
         21   -1    0    0  502  503 -0.00000000000E+00 -0.00000000000E+00 -0.51933991556E+02  0.51933991556E+02  0.00000000000E+00 0. -1.
         25    2    1    2    0    0  0.00000000000E+00  0.00000000000E+00  0.23283230549E+02  0.12715121366E+03  0.12500128924E+03 0.  0.
          4    1    3    3  501    0 -0.16915877316E+02 -0.60055630921E+02  0.82522856456E+01  0.62954971440E+02  0.15500000000E+01 0. -1.
         -4    1    3    3    0  501  0.16915877316E+02  0.60055630921E+02  0.15030944903E+02  0.64196242221E+02  0.15500000000E+01 0. -1.
<mgrwt>
<rscale>  2 0.12500129E+03</rscale>
<asrwt>0</asrwt>
<pdfrwt beam="1">  1       21 0.11571880E-01 0.12500129E+03</pdfrwt>
<pdfrwt beam="2">  1       21 0.79898449E-02 0.12500129E+03</pdfrwt>
<totfact> 0.73746139E+06</totfact>
</mgrwt>
</event>
<event>
 5    0  0.1455646E+000  0.1250013E+03  0.7546771E-02  0.1235067E+00
         21   -1    0    0  503  502  0.00000000000E+00  0.00000000000E+00  0.16594255452E+02  0.16594255452E+02  0.00000000000E+00 0. -1.
         21   -1    0    0  502  503 -0.00000000000E+00 -0.00000000000E+00 -0.23540268064E+03  0.23540268064E+03  0.00000000000E+00 0. -1.
         25    2    1    2    0    0  0.00000000000E+00  0.00000000000E+00 -0.21880842519E+03  0.25199693609E+03  0.12500131546E+03 0.  0.
          4    1    3    3  501    0 -0.20332275530E+02 -0.58010285892E+02 -0.13197345041E+03  0.14559529117E+03  0.15500000000E+01 0. -1.
         -4    1    3    3    0  501  0.20332275530E+02  0.58010285892E+02 -0.86834974780E+02  0.10640164492E+03  0.15500000000E+01 0. -1.
<mgrwt>
<rscale>  2 0.12500132E+03</rscale>
<asrwt>0</asrwt>
<pdfrwt beam="1">  1       21 0.25529624E-02 0.12500132E+03</pdfrwt>
<pdfrwt beam="2">  1       21 0.36215797E-01 0.12500132E+03</pdfrwt>
<totfact> 0.59688710E+06</totfact>
</mgrwt>
</event>
<event>
 5    0  0.1580282E+000  0.1250026E+03  0.7546771E-02  0.1235065E+00
         21   -1    0    0  503  502  0.00000000000E+00  0.00000000000E+00  0.19184006986E+03  0.19184006986E+03  0.00000000000E+00 0. -1.
         21   -1    0    0  502  503 -0.00000000000E+00 -0.00000000000E+00 -0.20362847661E+02  0.20362847661E+02  0.00000000000E+00 0. -1.
         25    2    1    2    0    0  0.00000000000E+00  0.00000000000E+00  0.17147722220E+03  0.21220291752E+03  0.12500256186E+03 0.  0.
          4    1    3    3  501    0 -0.43003322543E+02  0.44320632724E+02  0.69597821429E+02  0.93058387491E+02  0.15500000000E+01 0.  1.
         -4    1    3    3    0  501  0.43003322543E+02 -0.44320632724E+02  0.10187940077E+03  0.11914453003E+03  0.15500000000E+01 0.  1.
<mgrwt>
<rscale>  2 0.12500256E+03</rscale>
<asrwt>0</asrwt>
<pdfrwt beam="1">  1       21 0.29513856E-01 0.12500256E+03</pdfrwt>
<pdfrwt beam="2">  1       21 0.31327459E-02 0.12500256E+03</pdfrwt>
<totfact> 0.63624385E+06</totfact>
</mgrwt>
</event>
<event>
 5    0  0.1495054E+000  0.1249987E+03  0.7546771E-02  0.1235071E+00
         21   -1    0    0  503  502  0.00000000000E+00  0.00000000000E+00  0.19728300405E+02  0.19728300405E+02  0.00000000000E+00 0. -1.
         21   -1    0    0  502  503 -0.00000000000E+00 -0.00000000000E+00 -0.19799827553E+03  0.19799827553E+03  0.00000000000E+00 0. -1.
         25    2    1    2    0    0  0.00000000000E+00  0.00000000000E+00 -0.17826997512E+03  0.21772657593E+03  0.12499871134E+03 0.  0.
          4    1    3    3  501    0 -0.26194126299E+02 -0.53769683461E+02 -0.12060653757E+03  0.13463153612E+03  0.15500000000E+01 0. -1.
         -4    1    3    3    0  501  0.26194126299E+02  0.53769683461E+02 -0.57663437551E+02  0.83095039817E+02  0.15500000000E+01 0. -1.
<mgrwt>
<rscale>  2 0.12499871E+03</rscale>
<asrwt>0</asrwt>
<pdfrwt beam="1">  1       21 0.30351233E-02 0.12499871E+03</pdfrwt>
<pdfrwt beam="2">  1       21 0.30461272E-01 0.12499871E+03</pdfrwt>
<totfact> 0.63057723E+06</totfact>
</mgrwt>
</event>
<event>
 5    0  0.1477436E+000  0.1249948E+03  0.7546771E-02  0.1235077E+00
         21   -1    0    0  503  502  0.00000000000E+00  0.00000000000E+00  0.15349211147E+03  0.15349211147E+03  0.00000000000E+00 0. -1.
         21   -1    0    0  502  503 -0.00000000000E+00 -0.00000000000E+00 -0.25447060349E+02  0.25447060349E+02  0.00000000000E+00 0. -1.
         25    2    1    2    0    0  0.00000000000E+00  0.00000000000E+00  0.12804505112E+03  0.17893917182E+03  0.12499476827E+03 0.  0.
          4    1    3    3  501    0  0.60273648381E+02  0.13928628257E+01  0.40557481682E+02  0.72678501473E+02  0.15500000000E+01 0. -1.
         -4    1    3    3    0  501 -0.60273648381E+02 -0.13928628257E+01  0.87487569439E+02  0.10626067035E+03  0.15500000000E+01 0. -1.
<mgrwt>
<rscale>  2 0.12499477E+03</rscale>
<asrwt>0</asrwt>
<pdfrwt beam="1">  1       21 0.23614171E-01 0.12499477E+03</pdfrwt>
<pdfrwt beam="2">  1       21 0.39149324E-02 0.12499477E+03</pdfrwt>
<totfact> 0.67282369E+06</totfact>
</mgrwt>
</event>
<event>
 5    0  0.1236450E+000  0.1249988E+03  0.7546771E-02  0.1235071E+00
         21   -1    0    0  503  502  0.00000000000E+00  0.00000000000E+00  0.58292346433E+03  0.58292346433E+03  0.00000000000E+00 0.  1.
         21   -1    0    0  502  503 -0.00000000000E+00 -0.00000000000E+00 -0.67010089172E+01  0.67010089172E+01  0.00000000000E+00 0.  1.
         25    2    1    2    0    0  0.00000000000E+00  0.00000000000E+00  0.57622245542E+03  0.58962447325E+03  0.12499880532E+03 0.  0.
          4    1    3    3  501    0  0.43115849090E+02 -0.13915059340E+02  0.85159618541E+02  0.96473667128E+02  0.15500000000E+01 0. -1.
         -4    1    3    3    0  501 -0.43115849090E+02  0.13915059340E+02  0.49106283687E+03  0.49315080612E+03  0.15500000000E+01 0. -1.
<mgrwt>
<rscale>  2 0.12499881E+03</rscale>
<asrwt>0</asrwt>
<pdfrwt beam="1">  1       21 0.89680493E-01 0.12499881E+03</pdfrwt>
<pdfrwt beam="2">  1       21 0.10309249E-02 0.12499881E+03</pdfrwt>
<totfact> 0.37567220E+06</totfact>
</mgrwt>
</event>
<event>
 5    0  0.1534939E+000  0.1250035E+03  0.7546771E-02  0.1235064E+00
         21   -1    0    0  503  502  0.00000000000E+00  0.00000000000E+00  0.65479028619E+02  0.65479028619E+02  0.00000000000E+00 0. -1.
         21   -1    0    0  502  503 -0.00000000000E+00 -0.00000000000E+00 -0.59659884475E+02  0.59659884475E+02  0.00000000000E+00 0. -1.
         25    2    1    2    0    0  0.00000000000E+00  0.00000000000E+00  0.58191441437E+01  0.12513891309E+03  0.12500354048E+03 0.  0.
          4    1    3    3  501    0  0.19027292742E+02  0.58953335205E+02 -0.52561715357E+01  0.62189737418E+02  0.15500000000E+01 0. -1.
         -4    1    3    3    0  501 -0.19027292742E+02 -0.58953335205E+02  0.11075315679E+02  0.62949175676E+02  0.15500000000E+01 0. -1.
<mgrwt>
<rscale>  2 0.12500354E+03</rscale>
<asrwt>0</asrwt>
<pdfrwt beam="1">  1       21 0.10073697E-01 0.12500354E+03</pdfrwt>
<pdfrwt beam="2">  1       21 0.91784438E-02 0.12500354E+03</pdfrwt>
<totfact> 0.74018120E+06</totfact>
</mgrwt>
</event>
<event>
 5    0  0.1601345E+000  0.1249885E+03  0.7546771E-02  0.1235087E+00
         21   -1    0    0  503  502  0.00000000000E+00  0.00000000000E+00  0.24987021819E+02  0.24987021819E+02  0.00000000000E+00 0. -1.
         21   -1    0    0  502  503 -0.00000000000E+00 -0.00000000000E+00 -0.15630236659E+03  0.15630236659E+03  0.00000000000E+00 0. -1.
         25    2    1    2    0    0  0.00000000000E+00  0.00000000000E+00 -0.13131534477E+03  0.18128938841E+03  0.12498848978E+03 0.  0.
          4    1    3    3  501    0 -0.56978643457E+02 -0.22420977949E+02 -0.47666139554E+02  0.77612688540E+02  0.15500000000E+01 0.  1.
         -4    1    3    3    0  501  0.56978643457E+02  0.22420977949E+02 -0.83649205216E+02  0.10367669987E+03  0.15500000000E+01 0.  1.
<mgrwt>
<rscale>  2 0.12498849E+03</rscale>
<asrwt>0</asrwt>
<pdfrwt beam="1">  1       21 0.38441573E-02 0.12498849E+03</pdfrwt>
<pdfrwt beam="2">  1       21 0.24046517E-01 0.12498849E+03</pdfrwt>
<totfact> 0.67023492E+06</totfact>
</mgrwt>
</event>
<event>
 5    0  0.1402567E+000  0.1249957E+03  0.7546771E-02  0.1235076E+00
         21   -1    0    0  503  502  0.00000000000E+00  0.00000000000E+00  0.29525501994E+03  0.29525501994E+03  0.00000000000E+00 0. -1.
         21   -1    0    0  502  503 -0.00000000000E+00 -0.00000000000E+00 -0.13229179617E+02  0.13229179617E+02  0.00000000000E+00 0. -1.
         25    2    1    2    0    0  0.00000000000E+00  0.00000000000E+00  0.28202584032E+03  0.30848419956E+03  0.12499570699E+03 0.  0.
          4    1    3    3  501    0  0.60181050998E+02 -0.12749024570E+02  0.11405871722E+03  0.12959972994E+03  0.15500000000E+01 0. -1.
         -4    1    3    3    0  501 -0.60181050998E+02  0.12749024570E+02  0.16796712310E+03  0.17888446961E+03  0.15500000000E+01 0. -1.
<mgrwt>
<rscale>  2 0.12499571E+03</rscale>
<asrwt>0</asrwt>
<pdfrwt beam="1">  1       21 0.45423844E-01 0.12499571E+03</pdfrwt>
<pdfrwt beam="2">  1       21 0.20352586E-02 0.12499571E+03</pdfrwt>
<totfact> 0.54764298E+06</totfact>
</mgrwt>
</event>
<event>
 5    0  0.1702339E+000  0.1249930E+03  0.7546771E-02  0.1235080E+00
         21   -1    0    0  503  502  0.00000000000E+00  0.00000000000E+00  0.42798616876E+02  0.42798616876E+02  0.00000000000E+00 0.  1.
         21   -1    0    0  502  503 -0.00000000000E+00 -0.00000000000E+00 -0.91260288340E+02  0.91260288340E+02  0.00000000000E+00 0.  1.
         25    2    1    2    0    0  0.00000000000E+00  0.00000000000E+00 -0.48461671465E+02  0.13405890522E+03  0.12499302567E+03 0.  0.
          4    1    3    3  501    0 -0.54538108982E+02 -0.18851245530E+01  0.83969029369E+01  0.55234676652E+02  0.15500000000E+01 0. -1.
         -4    1    3    3    0  501  0.54538108982E+02  0.18851245530E+01 -0.56858574401E+02  0.78824228565E+02  0.15500000000E+01 0. -1.
<mgrwt>
<rscale>  2 0.12499303E+03</rscale>
<asrwt>0</asrwt>
<pdfrwt beam="1">  1       21 0.65844026E-02 0.12499303E+03</pdfrwt>
<pdfrwt beam="2">  1       21 0.14040044E-01 0.12499303E+03</pdfrwt>
<totfact> 0.72834278E+06</totfact>
</mgrwt>
</event>
<event>
 4    0  0.1391376E+000  0.1251172E+03  0.7546771E-02  0.1234886E+00
         21   -1    0    0  503  502  0.00000000000E+00  0.00000000000E+00  0.30125641508E+03  0.30125641508E+03  0.00000000000E+00 0.  1.
         21   -1    0    0  502  503 -0.00000000000E+00 -0.00000000000E+00 -0.12990863684E+02  0.12990863684E+02  0.00000000000E+00 0.  1.
          4    1    1    2  501    0  0.39010287355E+02 -0.44179119199E+02  0.19667201816E+03  0.20531897701E+03  0.15500000000E+01 0.  1.
         -4    1    1    2    0  501 -0.39010287355E+02  0.44179119199E+02  0.91593533237E+02  0.10892830176E+03  0.15500000000E+01 0.  1.
<mgrwt>
<rscale>  2 0.12511724E+03</rscale>
<asrwt>0</asrwt>
<pdfrwt beam="1">  1       21 0.46347135E-01 0.12511724E+03</pdfrwt>
<pdfrwt beam="2">  1       21 0.19985946E-02 0.12511724E+03</pdfrwt>
<totfact> 0.54132941E+06</totfact>
</mgrwt>
</event>
<event>
 5    0  0.1527238E+000  0.1249996E+03  0.7546771E-02  0.1235070E+00
         21   -1    0    0  503  502  0.00000000000E+00  0.00000000000E+00  0.89796721922E+02  0.89796721922E+02  0.00000000000E+00 0. -1.
         21   -1    0    0  502  503 -0.00000000000E+00 -0.00000000000E+00 -0.43500769103E+02  0.43500769103E+02  0.00000000000E+00 0. -1.
         25    2    1    2    0    0  0.00000000000E+00  0.00000000000E+00  0.46295952819E+02  0.13329749102E+03  0.12499962346E+03 0.  0.
          4    1    3    3  501    0 -0.14297273318E+02 -0.44655075813E+02 -0.20889078730E+02  0.51354103345E+02  0.15500000000E+01 0. -1.
         -4    1    3    3    0  501  0.14297273318E+02  0.44655075813E+02  0.67185031549E+02  0.81943387680E+02  0.15500000000E+01 0. -1.
<mgrwt>
<rscale>  2 0.12499962E+03</rscale>
<asrwt>0</asrwt>
<pdfrwt beam="1">  1       21 0.13814880E-01 0.12499962E+03</pdfrwt>
<pdfrwt beam="2">  1       21 0.66924260E-02 0.12499962E+03</pdfrwt>
<totfact> 0.72923399E+06</totfact>
</mgrwt>
</event>
<event>
 5    0  0.1470352E+000  0.1250009E+03  0.7546771E-02  0.1235068E+00
         21   -1    0    0  503  502  0.00000000000E+00  0.00000000000E+00  0.20761702186E+02  0.20761702186E+02  0.00000000000E+00 0.  1.
         21   -1    0    0  502  503 -0.00000000000E+00 -0.00000000000E+00 -0.18814959716E+03  0.18814959716E+03  0.00000000000E+00 0.  1.
         25    2    1    2    0    0  0.00000000000E+00  0.00000000000E+00 -0.16738789497E+03  0.20891129935E+03  0.12500089444E+03 0.  0.
          4    1    3    3  501    0  0.37391758765E+02  0.67303911371E+01 -0.79345575546E+00  0.38032536865E+02  0.15500000000E+01 0. -1.
         -4    1    3    3    0  501 -0.37391758765E+02 -0.67303911371E+01 -0.16659443922E+03  0.17087876248E+03  0.15500000000E+01 0. -1.
<mgrwt>
<rscale>  2 0.12500089E+03</rscale>
<asrwt>0</asrwt>
<pdfrwt beam="1">  1       21 0.31941079E-02 0.12500089E+03</pdfrwt>
<pdfrwt beam="2">  1       21 0.28946093E-01 0.12500089E+03</pdfrwt>
<totfact> 0.63972813E+06</totfact>
</mgrwt>
</event>
<event>
 5    0  0.1329411E+000  0.1250005E+03  0.7546771E-02  0.1235068E+00
         21   -1    0    0  503  502  0.00000000000E+00  0.00000000000E+00  0.11635226070E+02  0.11635226070E+02  0.00000000000E+00 0. -1.
         21   -1    0    0  502  503 -0.00000000000E+00 -0.00000000000E+00 -0.33572901455E+03  0.33572901455E+03  0.00000000000E+00 0. -1.
         25    2    1    2    0    0  0.00000000000E+00  0.00000000000E+00 -0.32409378848E+03  0.34736424062E+03  0.12500052772E+03 0.  0.
          4    1    3    3  501    0 -0.27313624924E+02  0.30039075838E+02 -0.29402281664E+03  0.29681677747E+03  0.15500000000E+01 0. -1.
         -4    1    3    3    0  501  0.27313624924E+02 -0.30039075838E+02 -0.30070971848E+02  0.50547463157E+02  0.15500000000E+01 0. -1.
<mgrwt>
<rscale>  2 0.12500053E+03</rscale>
<asrwt>0</asrwt>
<pdfrwt beam="1">  1       21 0.17900348E-02 0.12500053E+03</pdfrwt>
<pdfrwt beam="2">  1       21 0.51650617E-01 0.12500053E+03</pdfrwt>
<totfact> 0.51732997E+06</totfact>
</mgrwt>
</event>
<event>
 5    0  0.1465790E+000  0.1249997E+03  0.7546771E-02  0.1235070E+00
         21   -1    0    0  503  502  0.00000000000E+00  0.00000000000E+00  0.42187715979E+03  0.42187715979E+03  0.00000000000E+00 0. -1.
         21   -1    0    0  502  503 -0.00000000000E+00 -0.00000000000E+00 -0.92591699469E+01  0.92591699469E+01  0.00000000000E+00 0. -1.
         25    2    1    2    0    0  0.00000000000E+00  0.00000000000E+00  0.41261798984E+03  0.43113632973E+03  0.12499971711E+03 0.  0.
          4    1    3    3  501    0 -0.49146889315E+02  0.35077487430E+02  0.15091009952E+03  0.16254878496E+03  0.15500000000E+01 0.  1.
         -4    1    3    3    0  501  0.49146889315E+02 -0.35077487430E+02  0.26170789032E+03  0.26858754477E+03  0.15500000000E+01 0.  1.
<mgrwt>
<rscale>  2 0.12499972E+03</rscale>
<asrwt>0</asrwt>
<pdfrwt beam="1">  1       21 0.64904164E-01 0.12499972E+03</pdfrwt>
<pdfrwt beam="2">  1       21 0.14244880E-02 0.12499972E+03</pdfrwt>
<totfact> 0.46042760E+06</totfact>
</mgrwt>
</event>
<event>
 5    0  0.1391844E+000  0.1249850E+03  0.7546771E-02  0.1235093E+00
         21   -1    0    0  503  502  0.00000000000E+00  0.00000000000E+00  0.46053138805E+02  0.46053138805E+02  0.00000000000E+00 0. -1.
         21   -1    0    0  502  503 -0.00000000000E+00 -0.00000000000E+00 -0.84800128262E+02  0.84800128262E+02  0.00000000000E+00 0. -1.
         25    2    1    2    0    0  0.00000000000E+00  0.00000000000E+00 -0.38746989458E+02  0.13085326707E+03  0.12498499234E+03 0.  0.
          4    1    3    3  501    0  0.21373131312E+02  0.99390204010E+01 -0.79945921749E+02  0.83362748113E+02  0.15500000000E+01 0. -1.
         -4    1    3    3    0  501 -0.21373131312E+02 -0.99390204010E+01  0.41198932291E+02  0.47490518954E+02  0.15500000000E+01 0. -1.
<mgrwt>
<rscale>  2 0.12498499E+03</rscale>
<asrwt>0</asrwt>
<pdfrwt beam="1">  1       21 0.70850982E-02 0.12498499E+03</pdfrwt>
<pdfrwt beam="2">  1       21 0.13046174E-01 0.12498499E+03</pdfrwt>
<totfact> 0.73278504E+06</totfact>
</mgrwt>
</event>
<event>
 5    0  0.1525705E+000  0.1250089E+03  0.7546771E-02  0.1235055E+00
         21   -1    0    0  503  502  0.00000000000E+00  0.00000000000E+00  0.54400621078E+02  0.54400621078E+02  0.00000000000E+00 0.  1.
         21   -1    0    0  502  503 -0.00000000000E+00 -0.00000000000E+00 -0.71815423819E+02  0.71815423819E+02  0.00000000000E+00 0.  1.
         25    2    1    2    0    0  0.00000000000E+00  0.00000000000E+00 -0.17414802741E+02  0.12621604490E+03  0.12500885823E+03 0.  0.
          4    1    3    3  501    0 -0.54918006548E+02  0.45078110818E+00  0.21383259965E+02  0.58956229133E+02  0.15500000000E+01 0. -1.
         -4    1    3    3    0  501  0.54918006548E+02 -0.45078110818E+00 -0.38798062706E+02  0.67259815764E+02  0.15500000000E+01 0. -1.
<mgrwt>
<rscale>  2 0.12500886E+03</rscale>
<asrwt>0</asrwt>
<pdfrwt beam="1">  1       21 0.83693263E-02 0.12500886E+03</pdfrwt>
<pdfrwt beam="2">  1       21 0.11048527E-01 0.12500886E+03</pdfrwt>
<totfact> 0.73859609E+06</totfact>
</mgrwt>
</event>
<event>
 5    0  0.1448124E+000  0.1249980E+03  0.7546771E-02  0.1235072E+00
         21   -1    0    0  503  502  0.00000000000E+00  0.00000000000E+00  0.33463566053E+02  0.33463566053E+02  0.00000000000E+00 0.  1.
         21   -1    0    0  502  503 -0.00000000000E+00 -0.00000000000E+00 -0.11672767278E+03  0.11672767278E+03  0.00000000000E+00 0.  1.
         25    2    1    2    0    0  0.00000000000E+00  0.00000000000E+00 -0.83264106728E+02  0.15019123883E+03  0.12499798700E+03 0.  0.
          4    1    3    3  501    0  0.25797039744E+02 -0.31549804567E+02 -0.98535836352E+02  0.10664235075E+03  0.15500000000E+01 0.  1.
         -4    1    3    3    0  501 -0.25797039744E+02  0.31549804567E+02  0.15271729624E+02  0.43548888085E+02  0.15500000000E+01 0.  1.
<mgrwt>
<rscale>  2 0.12499799E+03</rscale>
<asrwt>0</asrwt>
<pdfrwt beam="1">  1       21 0.51482409E-02 0.12499799E+03</pdfrwt>
<pdfrwt beam="2">  1       21 0.17958103E-01 0.12499799E+03</pdfrwt>
<totfact> 0.70738811E+06</totfact>
</mgrwt>
</event>
<event>
 5    0  0.1222151E+000  0.1250004E+03  0.7546771E-02  0.1235069E+00
         21   -1    0    0  503  502  0.00000000000E+00  0.00000000000E+00  0.41613602732E+01  0.41613602732E+01  0.00000000000E+00 0.  1.
         21   -1    0    0  502  503 -0.00000000000E+00 -0.00000000000E+00 -0.93870189045E+03  0.93870189045E+03  0.00000000000E+00 0.  1.
         25    2    1    2    0    0  0.00000000000E+00  0.00000000000E+00 -0.93454053018E+03  0.94286325073E+03  0.12500042808E+03 0.  0.
          4    1    3    3  501    0  0.28671990738E+02  0.16255612364E+02 -0.66889931662E+02  0.74585477433E+02  0.15500000000E+01 0.  1.
         -4    1    3    3    0  501 -0.28671990738E+02 -0.16255612364E+02 -0.86765059852E+03  0.86827777329E+03  0.15500000000E+01 0.  1.
<mgrwt>
<rscale>  2 0.12500043E+03</rscale>
<asrwt>0</asrwt>
<pdfrwt beam="1">  1       21 0.64020942E-03 0.12500043E+03</pdfrwt>
<pdfrwt beam="2">  1       21 0.14441564E+00 0.12500043E+03</pdfrwt>
<totfact> 0.25103202E+06</totfact>
</mgrwt>
</event>
<event>
 5    0  0.1564535E+000  0.1249995E+03  0.7546771E-02  0.1235070E+00
         21   -1    0    0  503  502  0.00000000000E+00  0.00000000000E+00  0.40867230462E+02  0.40867230462E+02  0.00000000000E+00 0.  1.
         21   -1    0    0  502  503 -0.00000000000E+00 -0.00000000000E+00 -0.95583192799E+02  0.95583192799E+02  0.00000000000E+00 0.  1.
         25    2    1    2    0    0  0.00000000000E+00  0.00000000000E+00 -0.54715962337E+02  0.13645042326E+03  0.12499952589E+03 0.  0.
          4    1    3    3  501    0  0.53600895283E+02  0.37606194584E+01  0.74473498093E+01  0.54268441594E+02  0.15500000000E+01 0. -1.
         -4    1    3    3    0  501 -0.53600895283E+02 -0.37606194584E+01 -0.62163312146E+02  0.82181981668E+02  0.15500000000E+01 0. -1.
<mgrwt>
<rscale>  2 0.12499953E+03</rscale>
<asrwt>0</asrwt>
<pdfrwt beam="1">  1       21 0.62872663E-02 0.12499953E+03</pdfrwt>
<pdfrwt beam="2">  1       21 0.14705107E-01 0.12499953E+03</pdfrwt>
<totfact> 0.72505868E+06</totfact>
</mgrwt>
</event>
<event>
 5    0  0.1616804E+000  0.1249997E+03  0.7546771E-02  0.1235070E+00
         21   -1    0    0  503  502  0.00000000000E+00  0.00000000000E+00  0.29099118186E+02  0.29099118186E+02  0.00000000000E+00 0.  1.
         21   -1    0    0  502  503 -0.00000000000E+00 -0.00000000000E+00 -0.13423887869E+03  0.13423887869E+03  0.00000000000E+00 0.  1.
         25    2    1    2    0    0  0.00000000000E+00  0.00000000000E+00 -0.10513976050E+03  0.16333799687E+03  0.12499972794E+03 0.  0.
          4    1    3    3  501    0  0.50448825529E+02  0.35246171750E+02 -0.66671049696E+02  0.90745842813E+02  0.15500000000E+01 0. -1.
         -4    1    3    3    0  501 -0.50448825529E+02 -0.35246171750E+02 -0.38468710806E+02  0.72592154062E+02  0.15500000000E+01 0. -1.
<mgrwt>
<rscale>  2 0.12499973E+03</rscale>
<asrwt>0</asrwt>
<pdfrwt beam="1">  1       21 0.44767874E-02 0.12499973E+03</pdfrwt>
<pdfrwt beam="2">  1       21 0.20652135E-01 0.12499973E+03</pdfrwt>
<totfact> 0.69114390E+06</totfact>
</mgrwt>
</event>
<event>
 5    0  0.1583280E+000  0.1249997E+03  0.7546771E-02  0.1235070E+00
         21   -1    0    0  503  502  0.00000000000E+00  0.00000000000E+00  0.25245613903E+03  0.25245613903E+03  0.00000000000E+00 0. -1.
         21   -1    0    0  502  503 -0.00000000000E+00 -0.00000000000E+00 -0.15472904011E+02  0.15472904011E+02  0.00000000000E+00 0. -1.
         25    2    1    2    0    0  0.00000000000E+00  0.00000000000E+00  0.23698323502E+03  0.26792904304E+03  0.12499967370E+03 0.  0.
          4    1    3    3  501    0  0.96332662907E+01  0.48667226789E+02  0.37082492272E+02  0.61958151327E+02  0.15500000000E+01 0.  1.
         -4    1    3    3    0  501 -0.96332662907E+01 -0.48667226789E+02  0.19990074275E+03  0.20597089171E+03  0.15500000000E+01 0.  1.
<mgrwt>
<rscale>  2 0.12499967E+03</rscale>
<asrwt>0</asrwt>
<pdfrwt beam="1">  1       21 0.38839403E-01 0.12499967E+03</pdfrwt>
<pdfrwt beam="2">  1       21 0.23804470E-02 0.12499967E+03</pdfrwt>
<totfact> 0.58230547E+06</totfact>
</mgrwt>
</event>
<event>
 5    0  0.1397948E+000  0.1249992E+03  0.7546771E-02  0.1235071E+00
         21   -1    0    0  503  502  0.00000000000E+00  0.00000000000E+00  0.12637845703E+02  0.12637845703E+02  0.00000000000E+00 0. -1.
         21   -1    0    0  502  503 -0.00000000000E+00 -0.00000000000E+00 -0.30908730551E+03  0.30908730551E+03  0.00000000000E+00 0. -1.
         25    2    1    2    0    0  0.00000000000E+00  0.00000000000E+00 -0.29644945981E+03  0.32172515122E+03  0.12499916281E+03 0.  0.
          4    1    3    3  501    0  0.47630522631E+02 -0.13238697501E+02 -0.24656566055E+03  0.25147754822E+03  0.15500000000E+01 0. -1.
         -4    1    3    3    0  501 -0.47630522631E+02  0.13238697501E+02 -0.49883799260E+02  0.70247602993E+02  0.15500000000E+01 0. -1.
<mgrwt>
<rscale>  2 0.12499916E+03</rscale>
<asrwt>0</asrwt>
<pdfrwt beam="1">  1       21 0.19442841E-02 0.12499916E+03</pdfrwt>
<pdfrwt beam="2">  1       21 0.47551891E-01 0.12499916E+03</pdfrwt>
<totfact> 0.53698045E+06</totfact>
</mgrwt>
</event>
<event>
 5    0  0.1222151E+000  0.1249981E+03  0.7546771E-02  0.1235072E+00
         21   -1    0    0  503  502  0.00000000000E+00  0.00000000000E+00  0.85416701008E+03  0.85416701008E+03  0.00000000000E+00 0.  1.
         21   -1    0    0  502  503 -0.00000000000E+00 -0.00000000000E+00 -0.45730289386E+01  0.45730289386E+01  0.00000000000E+00 0.  1.
         25    2    1    2    0    0  0.00000000000E+00  0.00000000000E+00  0.84959398115E+03  0.85874003902E+03  0.12499808727E+03 0.  0.
          4    1    3    3  501    0  0.16830983878E+02 -0.27593864268E+02  0.79213620298E+03  0.79279686549E+03  0.15500000000E+01 0. -1.
         -4    1    3    3    0  501 -0.16830983878E+02  0.27593864268E+02  0.57457778167E+02  0.65943173532E+02  0.15500000000E+01 0. -1.
<mgrwt>
<rscale>  2 0.12499809E+03</rscale>
<asrwt>0</asrwt>
<pdfrwt beam="1">  1       21 0.13141018E+00 0.12499809E+03</pdfrwt>
<pdfrwt beam="2">  1       21 0.70354359E-03 0.12499809E+03</pdfrwt>
<totfact> 0.27507897E+06</totfact>
</mgrwt>
</event>
<event>
 5    0  0.1463829E+000  0.1250046E+03  0.7546771E-02  0.1235062E+00
         21   -1    0    0  503  502  0.00000000000E+00  0.00000000000E+00  0.69391144691E+02  0.69391144691E+02  0.00000000000E+00 0. -1.
         21   -1    0    0  502  503 -0.00000000000E+00 -0.00000000000E+00 -0.56297374512E+02  0.56297374512E+02  0.00000000000E+00 0. -1.
         25    2    1    2    0    0  0.00000000000E+00  0.00000000000E+00  0.13093770179E+02  0.12568851920E+03  0.12500462808E+03 0.  0.
          4    1    3    3  501    0 -0.36811940998E+02  0.17128712001E+02 -0.41206368364E+02  0.57869500332E+02  0.15500000000E+01 0. -1.
         -4    1    3    3    0  501  0.36811940998E+02 -0.17128712001E+02  0.54300138543E+02  0.67819018871E+02  0.15500000000E+01 0. -1.
<mgrwt>
<rscale>  2 0.12500463E+03</rscale>
<asrwt>0</asrwt>
<pdfrwt beam="1">  1       21 0.10675561E-01 0.12500463E+03</pdfrwt>
<pdfrwt beam="2">  1       21 0.86611345E-02 0.12500463E+03</pdfrwt>
<totfact> 0.73940404E+06</totfact>
</mgrwt>
</event>
<event>
 5    0  0.1309666E+000  0.1249994E+03  0.7546771E-02  0.1235070E+00
         21   -1    0    0  503  502  0.00000000000E+00  0.00000000000E+00  0.71402094150E+01  0.71402094150E+01  0.00000000000E+00 0. -1.
         21   -1    0    0  502  503 -0.00000000000E+00 -0.00000000000E+00 -0.54707284023E+03  0.54707284023E+03  0.00000000000E+00 0. -1.
         25    2    1    2    0    0  0.00000000000E+00  0.00000000000E+00 -0.53993263081E+03  0.55421304964E+03  0.12499943431E+03 0.  0.
          4    1    3    3  501    0 -0.26657521375E+02 -0.78575125403E+01 -0.51807462835E+03  0.51882182586E+03  0.15500000000E+01 0.  1.
         -4    1    3    3    0  501  0.26657521375E+02  0.78575125403E+01 -0.21858002464E+02  0.35391223783E+02  0.15500000000E+01 0.  1.
<mgrwt>
<rscale>  2 0.12499943E+03</rscale>
<asrwt>0</asrwt>
<pdfrwt beam="1">  1       21 0.10984936E-02 0.12499943E+03</pdfrwt>
<pdfrwt beam="2">  1       21 0.84165064E-01 0.12499943E+03</pdfrwt>
<totfact> 0.39249245E+06</totfact>
</mgrwt>
</event>
<event>
 5    0  0.1508167E+000  0.1249930E+03  0.7546771E-02  0.1235080E+00
         21   -1    0    0  503  502  0.00000000000E+00  0.00000000000E+00  0.52090947998E+02  0.52090947998E+02  0.00000000000E+00 0. -1.
         21   -1    0    0  502  503 -0.00000000000E+00 -0.00000000000E+00 -0.74980593892E+02  0.74980593892E+02  0.00000000000E+00 0. -1.
         25    2    1    2    0    0  0.00000000000E+00  0.00000000000E+00 -0.22889645894E+02  0.12707154189E+03  0.12499296328E+03 0.  0.
          4    1    3    3  501    0 -0.18282679170E+02 -0.57760179967E+02 -0.26960101315E+02  0.66330568446E+02  0.15500000000E+01 0. -1.
         -4    1    3    3    0  501  0.18282679170E+02  0.57760179967E+02  0.40704554213E+01  0.60740973443E+02  0.15500000000E+01 0. -1.
<mgrwt>
<rscale>  2 0.12499296E+03</rscale>
<asrwt>0</asrwt>
<pdfrwt beam="1">  1       21 0.80139921E-02 0.12499296E+03</pdfrwt>
<pdfrwt beam="2">  1       21 0.11535476E-01 0.12499296E+03</pdfrwt>
<totfact> 0.73772651E+06</totfact>
</mgrwt>
</event>
<event>
 5    0  0.1579029E+000  0.1249964E+03  0.7546771E-02  0.1235075E+00
         21   -1    0    0  503  502  0.00000000000E+00  0.00000000000E+00  0.18990222990E+03  0.18990222990E+03  0.00000000000E+00 0. -1.
         21   -1    0    0  502  503 -0.00000000000E+00 -0.00000000000E+00 -0.20568618720E+02  0.20568618720E+02  0.00000000000E+00 0. -1.
         25    2    1    2    0    0  0.00000000000E+00  0.00000000000E+00  0.16933361118E+03  0.21047084862E+03  0.12499642492E+03 0.  0.
          4    1    3    3  501    0  0.51345810582E+02 -0.32492383895E+02  0.60180362126E+02  0.85534938832E+02  0.15500000000E+01 0.  1.
         -4    1    3    3    0  501 -0.51345810582E+02  0.32492383895E+02  0.10915324905E+03  0.12493590978E+03  0.15500000000E+01 0.  1.
<mgrwt>
<rscale>  2 0.12499642E+03</rscale>
<asrwt>0</asrwt>
<pdfrwt beam="1">  1       21 0.29215727E-01 0.12499642E+03</pdfrwt>
<pdfrwt beam="2">  1       21 0.31644030E-02 0.12499642E+03</pdfrwt>
<totfact> 0.63815802E+06</totfact>
</mgrwt>
</event>
<event>
 5    0  0.1424888E+000  0.1250048E+03  0.7546771E-02  0.1235062E+00
         21   -1    0    0  503  502  0.00000000000E+00  0.00000000000E+00  0.26371791747E+03  0.26371791747E+03  0.00000000000E+00 0.  1.
         21   -1    0    0  502  503 -0.00000000000E+00 -0.00000000000E+00 -0.14813355155E+02  0.14813355155E+02  0.00000000000E+00 0.  1.
         25    2    1    2    0    0  0.00000000000E+00  0.00000000000E+00  0.24890456231E+03  0.27853127262E+03  0.12500475467E+03 0.  0.
          4    1    3    3  501    0  0.15931243623E+02 -0.55201673778E+02  0.17917247489E+03  0.18816537292E+03  0.15500000000E+01 0. -1.
         -4    1    3    3    0  501 -0.15931243623E+02  0.55201673778E+02  0.69732087425E+02  0.90365899696E+02  0.15500000000E+01 0. -1.
<mgrwt>
<rscale>  2 0.12500475E+03</rscale>
<asrwt>0</asrwt>
<pdfrwt beam="1">  1       21 0.40571984E-01 0.12500475E+03</pdfrwt>
<pdfrwt beam="2">  1       21 0.22789779E-02 0.12500475E+03</pdfrwt>
<totfact> 0.57282022E+06</totfact>
</mgrwt>
</event>
<event>
 5    0  0.1483283E+000  0.1250040E+03  0.7546771E-02  0.1235063E+00
         21   -1    0    0  503  502  0.00000000000E+00  0.00000000000E+00  0.19152551825E+03  0.19152551825E+03  0.00000000000E+00 0.  1.
         21   -1    0    0  502  503 -0.00000000000E+00 -0.00000000000E+00 -0.20396772154E+02  0.20396772154E+02  0.00000000000E+00 0.  1.
         25    2    1    2    0    0  0.00000000000E+00  0.00000000000E+00  0.17112874609E+03  0.21192229040E+03  0.12500403765E+03 0.  0.
          4    1    3    3  501    0  0.61432830866E+02 -0.42488871266E+01  0.67618421604E+02  0.91469662677E+02  0.15500000000E+01 0.  1.
         -4    1    3    3    0  501 -0.61432830866E+02  0.42488871266E+01  0.10351032449E+03  0.12045262772E+03  0.15500000000E+01 0.  1.
<mgrwt>
<rscale>  2 0.12500404E+03</rscale>
<asrwt>0</asrwt>
<pdfrwt beam="1">  1       21 0.29465463E-01 0.12500404E+03</pdfrwt>
<pdfrwt beam="2">  1       21 0.31379651E-02 0.12500404E+03</pdfrwt>
<totfact> 0.63651355E+06</totfact>
</mgrwt>
</event>
<event>
 5    0  0.1222151E+000  0.1250168E+03  0.7546771E-02  0.1235043E+00
         21   -1    0    0  503  502  0.00000000000E+00  0.00000000000E+00  0.44752076736E+01  0.44752076736E+01  0.00000000000E+00 0. -1.
         21   -1    0    0  502  503 -0.00000000000E+00 -0.00000000000E+00 -0.87309888285E+03  0.87309888285E+03  0.00000000000E+00 0. -1.
         25    2    1    2    0    0  0.00000000000E+00  0.00000000000E+00 -0.86862367517E+03  0.87757409052E+03  0.12501678000E+03 0.  0.
          4    1    3    3  501    0 -0.35215539739E+01 -0.29384000566E+02 -0.82065259972E+03  0.82118750158E+03  0.15500000000E+01 0.  1.
         -4    1    3    3    0  501  0.35215539739E+01  0.29384000566E+02 -0.47971075452E+02  0.56386588935E+02  0.15500000000E+01 0.  1.
<mgrwt>
<rscale>  2 0.12501678E+03</rscale>
<asrwt>0</asrwt>
<pdfrwt beam="1">  1       21 0.68849389E-03 0.12501678E+03</pdfrwt>
<pdfrwt beam="2">  1       21 0.13432283E+00 0.12501678E+03</pdfrwt>
<totfact> 0.26936265E+06</totfact>
</mgrwt>
</event>
<event>
 5    0  0.1469972E+000  0.1249987E+03  0.7546771E-02  0.1235071E+00
         21   -1    0    0  503  502  0.00000000000E+00  0.00000000000E+00  0.22472832090E+03  0.22472832090E+03  0.00000000000E+00 0. -1.
         21   -1    0    0  502  503 -0.00000000000E+00 -0.00000000000E+00 -0.17381740559E+02  0.17381740559E+02  0.00000000000E+00 0. -1.
         25    2    1    2    0    0  0.00000000000E+00  0.00000000000E+00  0.20734658034E+03  0.24211006146E+03  0.12499870992E+03 0.  0.
          4    1    3    3  501    0 -0.57328223255E+02 -0.15137301645E+02  0.65515672891E+02  0.88376291940E+02  0.15500000000E+01 0. -1.
         -4    1    3    3    0  501  0.57328223255E+02  0.15137301645E+02  0.14183090745E+03  0.15373376952E+03  0.15500000000E+01 0. -1.
<mgrwt>
<rscale>  2 0.12499871E+03</rscale>
<asrwt>0</asrwt>
<pdfrwt beam="1">  1       21 0.34573586E-01 0.12499871E+03</pdfrwt>
<pdfrwt beam="2">  1       21 0.26741141E-02 0.12499871E+03</pdfrwt>
<totfact> 0.60631046E+06</totfact>
</mgrwt>
</event>
<event>
 5    0  0.1222151E+000  0.1249971E+03  0.7546771E-02  0.1235074E+00
         21   -1    0    0  503  502  0.00000000000E+00  0.00000000000E+00  0.74148472621E+03  0.74148472621E+03  0.00000000000E+00 0.  1.
         21   -1    0    0  502  503 -0.00000000000E+00 -0.00000000000E+00 -0.52679044841E+01  0.52679044841E+01  0.00000000000E+00 0.  1.
         25    2    1    2    0    0  0.00000000000E+00  0.00000000000E+00  0.73621682172E+03  0.74675263069E+03  0.12499713139E+03 0.  0.
          4    1    3    3  501    0 -0.91081877901E+01 -0.27083500906E+02  0.70004766431E+03  0.70063229295E+03  0.15500000000E+01 0.  1.
         -4    1    3    3    0  501  0.91081877901E+01  0.27083500906E+02  0.36169157411E+02  0.46120337748E+02  0.15500000000E+01 0.  1.
<mgrwt>
<rscale>  2 0.12499713E+03</rscale>
<asrwt>0</asrwt>
<pdfrwt beam="1">  1       21 0.11407449E+00 0.12499713E+03</pdfrwt>
<pdfrwt beam="2">  1       21 0.81044743E-03 0.12499713E+03</pdfrwt>
<totfact> 0.31185639E+06</totfact>
</mgrwt>
</event>
<event>
 5    0  0.1482364E+000  0.1249919E+03  0.7546771E-02  0.1235082E+00
         21   -1    0    0  503  502  0.00000000000E+00  0.00000000000E+00  0.35858270794E+02  0.35858270794E+02  0.00000000000E+00 0. -1.
         21   -1    0    0  502  503 -0.00000000000E+00 -0.00000000000E+00 -0.10892171355E+03  0.10892171355E+03  0.00000000000E+00 0. -1.
         25    2    1    2    0    0  0.00000000000E+00  0.00000000000E+00 -0.73063442760E+02  0.14477998435E+03  0.12499190854E+03 0.  0.
          4    1    3    3  501    0 -0.37396199825E+02  0.43170122632E+02 -0.65862635688E+02  0.87191883391E+02  0.15500000000E+01 0. -1.
         -4    1    3    3    0  501  0.37396199825E+02 -0.43170122632E+02 -0.72008070721E+01  0.57588100958E+02  0.15500000000E+01 0. -1.
<mgrwt>
<rscale>  2 0.12499191E+03</rscale>
<asrwt>0</asrwt>
<pdfrwt beam="1">  1       21 0.55166570E-02 0.12499191E+03</pdfrwt>
<pdfrwt beam="2">  1       21 0.16757187E-01 0.12499191E+03</pdfrwt>
<totfact> 0.71435987E+06</totfact>
</mgrwt>
</event>
<event>
 5    0  0.1445500E+000  0.1250324E+03  0.7546771E-02  0.1235019E+00
         21   -1    0    0  503  502  0.00000000000E+00  0.00000000000E+00  0.21552883028E+03  0.21552883028E+03  0.00000000000E+00 0. -1.
         21   -1    0    0  502  503 -0.00000000000E+00 -0.00000000000E+00 -0.18133408129E+02  0.18133408129E+02  0.00000000000E+00 0. -1.
         25    2    1    2    0    0  0.00000000000E+00  0.00000000000E+00  0.19739542215E+03  0.23366223841E+03  0.12503235170E+03 0.  0.
          4    1    3    3  501    0 -0.46469234821E+02 -0.14726359650E+02  0.25607856286E+02  0.55085572131E+02  0.15500000000E+01 0.  1.
         -4    1    3    3    0  501  0.46469234821E+02  0.14726359650E+02  0.17178756586E+03  0.17857666628E+03  0.15500000000E+01 0.  1.
<mgrwt>
<rscale>  2 0.12503235E+03</rscale>
<asrwt>0</asrwt>
<pdfrwt beam="1">  1       21 0.33158280E-01 0.12503235E+03</pdfrwt>
<pdfrwt beam="2">  1       21 0.27897553E-02 0.12503235E+03</pdfrwt>
<totfact> 0.61401254E+06</totfact>
</mgrwt>
</event>
<event>
 5    0  0.1560340E+000  0.1249957E+03  0.7546771E-02  0.1235076E+00
         21   -1    0    0  503  502  0.00000000000E+00  0.00000000000E+00  0.38419507247E+02  0.38419507247E+02  0.00000000000E+00 0.  1.
         21   -1    0    0  502  503 -0.00000000000E+00 -0.00000000000E+00 -0.10166654139E+03  0.10166654139E+03  0.00000000000E+00 0.  1.
         25    2    1    2    0    0  0.00000000000E+00  0.00000000000E+00 -0.63247034146E+02  0.14008604864E+03  0.12499565471E+03 0.  0.
          4    1    3    3  501    0  0.11031079934E+01  0.62239893666E+02 -0.37612304113E+02  0.72746883998E+02  0.15500000000E+01 0. -1.
         -4    1    3    3    0  501 -0.11031079934E+01 -0.62239893666E+02 -0.25634730033E+02  0.67339164642E+02  0.15500000000E+01 0. -1.
<mgrwt>
<rscale>  2 0.12499565E+03</rscale>
<asrwt>0</asrwt>
<pdfrwt beam="1">  1       21 0.59106935E-02 0.12499565E+03</pdfrwt>
<pdfrwt beam="2">  1       21 0.15641006E-01 0.12499565E+03</pdfrwt>
<totfact> 0.72036051E+06</totfact>
</mgrwt>
</event>
<event>
 5    0  0.1423699E+000  0.1249931E+03  0.7546771E-02  0.1235080E+00
         21   -1    0    0  503  502  0.00000000000E+00  0.00000000000E+00  0.31002883727E+03  0.31002883727E+03  0.00000000000E+00 0. -1.
         21   -1    0    0  502  503 -0.00000000000E+00 -0.00000000000E+00 -0.12598243663E+02  0.12598243663E+02  0.00000000000E+00 0. -1.
         25    2    1    2    0    0  0.00000000000E+00  0.00000000000E+00  0.29743059361E+03  0.32262708093E+03  0.12499310116E+03 0.  0.
          4    1    3    3  501    0 -0.68912834761E+01  0.49742981620E+02  0.52775230034E+02  0.72866188411E+02  0.15500000000E+01 0. -1.
         -4    1    3    3    0  501  0.68912834761E+01 -0.49742981620E+02  0.24465536357E+03  0.24976089252E+03  0.15500000000E+01 0. -1.
<mgrwt>
<rscale>  2 0.12499310E+03</rscale>
<asrwt>0</asrwt>
<pdfrwt beam="1">  1       21 0.47696739E-01 0.12499310E+03</pdfrwt>
<pdfrwt beam="2">  1       21 0.19381916E-02 0.12499310E+03</pdfrwt>
<totfact> 0.53635098E+06</totfact>
</mgrwt>
</event>
<event>
 5    0  0.1222151E+000  0.1250017E+03  0.7546771E-02  0.1235067E+00
         21   -1    0    0  503  502  0.00000000000E+00  0.00000000000E+00  0.47190494693E+01  0.47190494693E+01  0.00000000000E+00 0.  1.
         21   -1    0    0  502  503 -0.00000000000E+00 -0.00000000000E+00 -0.82778465959E+03  0.82778465959E+03  0.00000000000E+00 0.  1.
         25    2    1    2    0    0  0.00000000000E+00  0.00000000000E+00 -0.82306561013E+03  0.83250370906E+03  0.12500170812E+03 0.  0.
          4    1    3    3  501    0 -0.10762650103E+02 -0.51158621068E+02 -0.18363878208E+03  0.19094146729E+03  0.15500000000E+01 0.  1.
         -4    1    3    3    0  501  0.10762650103E+02  0.51158621068E+02 -0.63942682804E+03  0.64156224177E+03  0.15500000000E+01 0.  1.
<mgrwt>
<rscale>  2 0.12500171E+03</rscale>
<asrwt>0</asrwt>
<pdfrwt beam="1">  1       21 0.72600770E-03 0.12500171E+03</pdfrwt>
<pdfrwt beam="2">  1       21 0.12735147E+00 0.12500171E+03</pdfrwt>
<totfact> 0.28312641E+06</totfact>
</mgrwt>
</event>
<event>
 5    0  0.1579561E+000  0.1250042E+03  0.7546771E-02  0.1235063E+00
         21   -1    0    0  503  502  0.00000000000E+00  0.00000000000E+00  0.44390139857E+02  0.44390139857E+02  0.00000000000E+00 0. -1.
         21   -1    0    0  502  503 -0.00000000000E+00 -0.00000000000E+00 -0.88004048679E+02  0.88004048679E+02  0.00000000000E+00 0. -1.
         25    2    1    2    0    0  0.00000000000E+00  0.00000000000E+00 -0.43613908821E+02  0.13239418854E+03  0.12500419239E+03 0.  0.
          4    1    3    3  501    0 -0.28058918476E+02 -0.49513190811E+02 -0.49124203793E+02  0.75196069502E+02  0.15500000000E+01 0.  1.
         -4    1    3    3    0  501  0.28058918476E+02  0.49513190811E+02  0.55102949711E+01  0.57198119034E+02  0.15500000000E+01 0.  1.
<mgrwt>
<rscale>  2 0.12500419E+03</rscale>
<asrwt>0</asrwt>
<pdfrwt beam="1">  1       21 0.68292524E-02 0.12500419E+03</pdfrwt>
<pdfrwt beam="2">  1       21 0.13539084E-01 0.12500419E+03</pdfrwt>
<totfact> 0.73035591E+06</totfact>
</mgrwt>
</event>
<event>
 5    0  0.1448628E+000  0.1249998E+03  0.7546771E-02  0.1235070E+00
         21   -1    0    0  503  502  0.00000000000E+00  0.00000000000E+00  0.67130936120E+02  0.67130936120E+02  0.00000000000E+00 0.  1.
         21   -1    0    0  502  503 -0.00000000000E+00 -0.00000000000E+00 -0.58188378485E+02  0.58188378485E+02  0.00000000000E+00 0.  1.
         25    2    1    2    0    0  0.00000000000E+00  0.00000000000E+00  0.89425576357E+01  0.12531931460E+03  0.12499984510E+03 0.  0.
          4    1    3    3  501    0 -0.23301425827E+02 -0.35342107740E+02 -0.41600677711E+02  0.59372046546E+02  0.15500000000E+01 0. -1.
         -4    1    3    3    0  501  0.23301425827E+02  0.35342107740E+02  0.50543235346E+02  0.65947268058E+02  0.15500000000E+01 0. -1.
<mgrwt>
<rscale>  2 0.12499985E+03</rscale>
<asrwt>0</asrwt>
<pdfrwt beam="1">  1       21 0.10327836E-01 0.12499985E+03</pdfrwt>
<pdfrwt beam="2">  1       21 0.89520582E-02 0.12499985E+03</pdfrwt>
<totfact> 0.74000757E+06</totfact>
</mgrwt>
</event>
<event>
 5    0  0.1499497E+000  0.1249974E+03  0.7546771E-02  0.1235073E+00
         21   -1    0    0  503  502  0.00000000000E+00  0.00000000000E+00  0.15342435969E+03  0.15342435969E+03  0.00000000000E+00 0. -1.
         21   -1    0    0  502  503 -0.00000000000E+00 -0.00000000000E+00 -0.25459381503E+02  0.25459381503E+02  0.00000000000E+00 0. -1.
         25    2    1    2    0    0  0.00000000000E+00  0.00000000000E+00  0.12796497819E+03  0.17888374119E+03  0.12499742886E+03 0.  0.
          4    1    3    3  501    0  0.47075226770E+02 -0.14609505985E+01  0.52293594668E+01  0.47412657092E+02  0.15500000000E+01 0.  1.
         -4    1    3    3    0  501 -0.47075226770E+02  0.14609505985E+01  0.12273561872E+03  0.13147108410E+03  0.15500000000E+01 0.  1.
<mgrwt>
<rscale>  2 0.12499743E+03</rscale>
<asrwt>0</asrwt>
<pdfrwt beam="1">  1       21 0.23603747E-01 0.12499743E+03</pdfrwt>
<pdfrwt beam="2">  1       21 0.39168280E-02 0.12499743E+03</pdfrwt>
<totfact> 0.67284210E+06</totfact>
</mgrwt>
</event>
<event>
 5    0  0.1384098E+000  0.1249997E+03  0.7546771E-02  0.1235070E+00
         21   -1    0    0  503  502  0.00000000000E+00  0.00000000000E+00  0.41873653946E+03  0.41873653946E+03  0.00000000000E+00 0. -1.
         21   -1    0    0  502  503 -0.00000000000E+00 -0.00000000000E+00 -0.93286108840E+01  0.93286108840E+01  0.00000000000E+00 0. -1.
         25    2    1    2    0    0  0.00000000000E+00  0.00000000000E+00  0.40940792857E+03  0.42806515034E+03  0.12499968383E+03 0.  0.
          4    1    3    3  501    0 -0.23961215430E+02  0.37590849028E+02  0.54780879864E+02  0.70643889150E+02  0.15500000000E+01 0.  1.
         -4    1    3    3    0  501  0.23961215430E+02 -0.37590849028E+02  0.35462704871E+03  0.35742126119E+03  0.15500000000E+01 0.  1.
<mgrwt>
<rscale>  2 0.12499968E+03</rscale>
<asrwt>0</asrwt>
<pdfrwt beam="1">  1       21 0.64420992E-01 0.12499968E+03</pdfrwt>
<pdfrwt beam="2">  1       21 0.14351712E-02 0.12499968E+03</pdfrwt>
<totfact> 0.46234246E+06</totfact>
</mgrwt>
</event>
<event>
 5    0  0.1418884E+000  0.1249975E+03  0.7546771E-02  0.1235073E+00
         21   -1    0    0  503  502  0.00000000000E+00  0.00000000000E+00  0.18498772750E+02  0.18498772750E+02  0.00000000000E+00 0.  1.
         21   -1    0    0  502  503 -0.00000000000E+00 -0.00000000000E+00 -0.21115429198E+03  0.21115429198E+03  0.00000000000E+00 0.  1.
         25    2    1    2    0    0  0.00000000000E+00  0.00000000000E+00 -0.19265551923E+03  0.22965306473E+03  0.12499752417E+03 0.  0.
          4    1    3    3  501    0  0.29515560027E+02  0.54070415849E+01  0.43583017188E+01  0.30361187004E+02  0.15500000000E+01 0.  1.
         -4    1    3    3    0  501 -0.29515560027E+02 -0.54070415849E+01 -0.19701382095E+03  0.19929187773E+03  0.15500000000E+01 0.  1.
<mgrwt>
<rscale>  2 0.12499752E+03</rscale>
<asrwt>0</asrwt>
<pdfrwt beam="1">  1       21 0.28459652E-02 0.12499752E+03</pdfrwt>
<pdfrwt beam="2">  1       21 0.32485274E-01 0.12499752E+03</pdfrwt>
<totfact> 0.61852389E+06</totfact>
</mgrwt>
</event>
<event>
 5    0  0.1403293E+000  0.1250190E+03  0.7546771E-02  0.1235040E+00
         21   -1    0    0  503  502  0.00000000000E+00  0.00000000000E+00  0.31689501312E+03  0.31689501312E+03  0.00000000000E+00 0. -1.
         21   -1    0    0  502  503 -0.00000000000E+00 -0.00000000000E+00 -0.12330390508E+02  0.12330390508E+02  0.00000000000E+00 0. -1.
         25    2    1    2    0    0  0.00000000000E+00  0.00000000000E+00  0.30456462261E+03  0.32922540362E+03  0.12501902674E+03 0.  0.
          4    1    3    3  501    0 -0.13213716534E+02  0.27842593353E+02  0.91253534299E+01  0.32178982030E+02  0.15500000000E+01 0.  1.
         -4    1    3    3    0  501  0.13213716534E+02 -0.27842593353E+02  0.29543926918E+03  0.29704642159E+03  0.15500000000E+01 0.  1.
<mgrwt>
<rscale>  2 0.12501903E+03</rscale>
<asrwt>0</asrwt>
<pdfrwt beam="1">  1       21 0.48753073E-01 0.12501903E+03</pdfrwt>
<pdfrwt beam="2">  1       21 0.18969834E-02 0.12501903E+03</pdfrwt>
<totfact> 0.53084949E+06</totfact>
</mgrwt>
</event>
<event>
 5    0  0.1609866E+000  0.1249983E+03  0.7546771E-02  0.1235072E+00
         21   -1    0    0  503  502  0.00000000000E+00  0.00000000000E+00  0.31080530957E+02  0.31080530957E+02  0.00000000000E+00 0.  1.
         21   -1    0    0  502  503 -0.00000000000E+00 -0.00000000000E+00 -0.12567808222E+03  0.12567808222E+03  0.00000000000E+00 0.  1.
         25    2    1    2    0    0  0.00000000000E+00  0.00000000000E+00 -0.94597551262E+02  0.15675861318E+03  0.12499826439E+03 0.  0.
          4    1    3    3  501    0  0.79068309321E+01  0.61753552683E+02 -0.53901487182E+02  0.82363778840E+02  0.15500000000E+01 0.  1.
         -4    1    3    3    0  501 -0.79068309321E+01 -0.61753552683E+02 -0.40696064080E+02  0.74394834337E+02  0.15500000000E+01 0.  1.
<mgrwt>
<rscale>  2 0.12499826E+03</rscale>
<asrwt>0</asrwt>
<pdfrwt beam="1">  1       21 0.47816202E-02 0.12499826E+03</pdfrwt>
<pdfrwt beam="2">  1       21 0.19335090E-01 0.12499826E+03</pdfrwt>
<totfact> 0.69920829E+06</totfact>
</mgrwt>
</event>
<event>
 5    0  0.1314289E+000  0.1250008E+03  0.7546771E-02  0.1235068E+00
         21   -1    0    0  503  502  0.00000000000E+00  0.00000000000E+00  0.94054581611E+01  0.94054581611E+01  0.00000000000E+00 0.  1.
         21   -1    0    0  502  503 -0.00000000000E+00 -0.00000000000E+00 -0.41532254258E+03  0.41532254258E+03  0.00000000000E+00 0.  1.
         25    2    1    2    0    0  0.00000000000E+00  0.00000000000E+00 -0.40591708442E+03  0.42472800074E+03  0.12500078076E+03 0.  0.
          4    1    3    3  501    0  0.38773819608E+02 -0.30774913647E+02 -0.73422824551E+02  0.88565332168E+02  0.15500000000E+01 0.  1.
         -4    1    3    3    0  501 -0.38773819608E+02  0.30774913647E+02 -0.33249425987E+03  0.33616266857E+03  0.15500000000E+01 0.  1.
<mgrwt>
<rscale>  2 0.12500078E+03</rscale>
<asrwt>0</asrwt>
<pdfrwt beam="1">  1       21 0.14469940E-02 0.12500078E+03</pdfrwt>
<pdfrwt beam="2">  1       21 0.63895755E-01 0.12500078E+03</pdfrwt>
<totfact> 0.46442387E+06</totfact>
</mgrwt>
</event>
<event>
 5    0  0.1542039E+000  0.1249822E+03  0.7546771E-02  0.1235097E+00
         21   -1    0    0  503  502  0.00000000000E+00  0.00000000000E+00  0.25216972380E+02  0.25216972380E+02  0.00000000000E+00 0.  1.
         21   -1    0    0  502  503 -0.00000000000E+00 -0.00000000000E+00 -0.15486144742E+03  0.15486144742E+03  0.00000000000E+00 0.  1.
         25    2    1    2    0    0  0.00000000000E+00  0.00000000000E+00 -0.12964447504E+03  0.18007841980E+03  0.12498218821E+03 0.  0.
          4    1    3    3  501    0  0.35746894366E+02  0.44974686322E+02 -0.10017909327E+03  0.11549379245E+03  0.15500000000E+01 0.  1.
         -4    1    3    3    0  501 -0.35746894366E+02 -0.44974686322E+02 -0.29465381767E+02  0.64584627345E+02  0.15500000000E+01 0.  1.
<mgrwt>
<rscale>  2 0.12498219E+03</rscale>
<asrwt>0</asrwt>
<pdfrwt beam="1">  1       21 0.38795341E-02 0.12498219E+03</pdfrwt>
<pdfrwt beam="2">  1       21 0.23824839E-01 0.12498219E+03</pdfrwt>
<totfact> 0.67172883E+06</totfact>
</mgrwt>
</event>
<event>
 5    0  0.1639707E+000  0.1250023E+03  0.7546771E-02  0.1235066E+00
         21   -1    0    0  503  502  0.00000000000E+00  0.00000000000E+00  0.27483194085E+02  0.27483194085E+02  0.00000000000E+00 0. -1.
         21   -1    0    0  502  503 -0.00000000000E+00 -0.00000000000E+00 -0.14213760214E+03  0.14213760214E+03  0.00000000000E+00 0. -1.
         25    2    1    2    0    0  0.00000000000E+00  0.00000000000E+00 -0.11465440806E+03  0.16962079623E+03  0.12500232488E+03 0.  0.
          4    1    3    3  501    0 -0.55725408700E+02 -0.25545250530E+02 -0.40924945116E+02  0.73723365578E+02  0.15500000000E+01 0.  1.
         -4    1    3    3    0  501  0.55725408700E+02  0.25545250530E+02 -0.73729462941E+02  0.95897430648E+02  0.15500000000E+01 0.  1.
<mgrwt>
<rscale>  2 0.12500232E+03</rscale>
<asrwt>0</asrwt>
<pdfrwt beam="1">  1       21 0.42281837E-02 0.12500232E+03</pdfrwt>
<pdfrwt beam="2">  1       21 0.21867323E-01 0.12500232E+03</pdfrwt>
<totfact> 0.68358581E+06</totfact>
</mgrwt>
</event>
<event>
 5    0  0.1447712E+000  0.1250321E+03  0.7546771E-02  0.1235019E+00
         21   -1    0    0  503  502  0.00000000000E+00  0.00000000000E+00  0.28971649882E+02  0.28971649882E+02  0.00000000000E+00 0.  1.
         21   -1    0    0  502  503 -0.00000000000E+00 -0.00000000000E+00 -0.13489941787E+03  0.13489941787E+03  0.00000000000E+00 0.  1.
         25    2    1    2    0    0  0.00000000000E+00  0.00000000000E+00 -0.10592776799E+03  0.16387106775E+03  0.12503213513E+03 0.  0.
          4    1    3    3  501    0 -0.25891081023E+02  0.42177940302E+01 -0.12730937755E+03  0.12999314588E+03  0.15500000000E+01 0.  1.
         -4    1    3    3    0  501  0.25891081023E+02 -0.42177940302E+01  0.21381609562E+02  0.33877921874E+02  0.15500000000E+01 0.  1.
<mgrwt>
<rscale>  2 0.12503214E+03</rscale>
<asrwt>0</asrwt>
<pdfrwt beam="1">  1       21 0.44571770E-02 0.12503214E+03</pdfrwt>
<pdfrwt beam="2">  1       21 0.20753756E-01 0.12503214E+03</pdfrwt>
<totfact> 0.68993197E+06</totfact>
</mgrwt>
</event>
<event>
 5    0  0.1222151E+000  0.1249908E+03  0.7546771E-02  0.1235084E+00
         21   -1    0    0  503  502  0.00000000000E+00  0.00000000000E+00  0.72114472815E+03  0.72114472815E+03  0.00000000000E+00 0.  1.
         21   -1    0    0  502  503 -0.00000000000E+00 -0.00000000000E+00 -0.54159396861E+01  0.54159396861E+01  0.00000000000E+00 0.  1.
         25    2    1    2    0    0  0.00000000000E+00  0.00000000000E+00  0.71572878846E+03  0.72656066784E+03  0.12499082131E+03 0.  0.
          4    1    3    3  501    0  0.33074017661E+02 -0.36009886278E+02  0.58394642488E+03  0.58599183628E+03  0.15500000000E+01 0.  1.
         -4    1    3    3    0  501 -0.33074017661E+02  0.36009886278E+02  0.13178236359E+03  0.14056883156E+03  0.15500000000E+01 0.  1.
<mgrwt>
<rscale>  2 0.12499082E+03</rscale>
<asrwt>0</asrwt>
<pdfrwt beam="1">  1       21 0.11094527E+00 0.12499082E+03</pdfrwt>
<pdfrwt beam="2">  1       21 0.83322206E-03 0.12499082E+03</pdfrwt>
<totfact> 0.31918222E+06</totfact>
</mgrwt>
</event>
<event>
 5    0  0.1418996E+000  0.1249988E+03  0.7546771E-02  0.1235071E+00
         21   -1    0    0  503  502  0.00000000000E+00  0.00000000000E+00  0.25284405063E+03  0.25284405063E+03  0.00000000000E+00 0.  1.
         21   -1    0    0  502  503 -0.00000000000E+00 -0.00000000000E+00 -0.15448944954E+02  0.15448944954E+02  0.00000000000E+00 0.  1.
         25    2    1    2    0    0  0.00000000000E+00  0.00000000000E+00  0.23739510568E+03  0.26829299559E+03  0.12499878112E+03 0.  0.
          4    1    3    3  501    0 -0.47475758001E+02 -0.70659389295E+01  0.32845741244E+02  0.58181786743E+02  0.15500000000E+01 0. -1.
         -4    1    3    3    0  501  0.47475758001E+02  0.70659389295E+01  0.20454936444E+03  0.21011120884E+03  0.15500000000E+01 0. -1.
<mgrwt>
<rscale>  2 0.12499878E+03</rscale>
<asrwt>0</asrwt>
<pdfrwt beam="1">  1       21 0.38899082E-01 0.12499878E+03</pdfrwt>
<pdfrwt beam="2">  1       21 0.23767610E-02 0.12499878E+03</pdfrwt>
<totfact> 0.58199200E+06</totfact>
</mgrwt>
</event>
<event>
 5    0  0.1472975E+000  0.1249992E+03  0.7546771E-02  0.1235071E+00
         21   -1    0    0  503  502  0.00000000000E+00  0.00000000000E+00  0.10726726882E+02  0.10726726882E+02  0.00000000000E+00 0. -1.
         21   -1    0    0  502  503 -0.00000000000E+00 -0.00000000000E+00 -0.36415586269E+03  0.36415586269E+03  0.00000000000E+00 0. -1.
         25    2    1    2    0    0  0.00000000000E+00  0.00000000000E+00 -0.35342913581E+03  0.37488258958E+03  0.12499920770E+03 0.  0.
          4    1    3    3  501    0 -0.44907161023E+02  0.28065884957E+02 -0.27615796338E+03  0.28119383038E+03  0.15500000000E+01 0.  1.
         -4    1    3    3    0  501  0.44907161023E+02 -0.28065884957E+02 -0.77271172436E+02  0.93688759193E+02  0.15500000000E+01 0.  1.
<mgrwt>
<rscale>  2 0.12499921E+03</rscale>
<asrwt>0</asrwt>
<pdfrwt beam="1">  1       21 0.16502654E-02 0.12499921E+03</pdfrwt>
<pdfrwt beam="2">  1       21 0.56023987E-01 0.12499921E+03</pdfrwt>
<totfact> 0.49752646E+06</totfact>
</mgrwt>
</event>
<event>
 5    0  0.1266918E+000  0.1250936E+03  0.7546771E-02  0.1234923E+00
         21   -1    0    0  503  502  0.00000000000E+00  0.00000000000E+00  0.66647757675E+01  0.66647757675E+01  0.00000000000E+00 0. -1.
         21   -1    0    0  502  503 -0.00000000000E+00 -0.00000000000E+00 -0.58698213943E+03  0.58698213943E+03  0.00000000000E+00 0. -1.
         25    2    1    2    0    0  0.00000000000E+00  0.00000000000E+00 -0.58031736366E+03  0.59364691519E+03  0.12509363435E+03 0.  0.
          4    1    3    3  501    0 -0.26232427333E+02  0.56174972398E+02 -0.32869302416E+03  0.33449256255E+03  0.15500000000E+01 0.  1.
         -4    1    3    3    0  501  0.26232427333E+02 -0.56174972398E+02 -0.25162433950E+03  0.25915435265E+03  0.15500000000E+01 0.  1.
<mgrwt>
<rscale>  2 0.12509363E+03</rscale>
<asrwt>0</asrwt>
<pdfrwt beam="1">  1       21 0.10253497E-02 0.12509363E+03</pdfrwt>
<pdfrwt beam="2">  1       21 0.90304982E-01 0.12509363E+03</pdfrwt>
<totfact> 0.37294693E+06</totfact>
</mgrwt>
</event>
<event>
 5    0  0.1555111E+000  0.1250039E+03  0.7546771E-02  0.1235063E+00
         21   -1    0    0  503  502  0.00000000000E+00  0.00000000000E+00  0.31387252100E+02  0.31387252100E+02  0.00000000000E+00 0. -1.
         21   -1    0    0  502  503 -0.00000000000E+00 -0.00000000000E+00 -0.12446118407E+03  0.12446118407E+03  0.00000000000E+00 0. -1.
         25    2    1    2    0    0  0.00000000000E+00  0.00000000000E+00 -0.93073931970E+02  0.15584843617E+03  0.12500391292E+03 0.  0.
          4    1    3    3  501    0 -0.15861209316E+02  0.56489856780E+02 -0.73317697014E+02  0.93917884747E+02  0.15500000000E+01 0. -1.
         -4    1    3    3    0  501  0.15861209316E+02 -0.56489856780E+02 -0.19756234956E+02  0.61930551423E+02  0.15500000000E+01 0. -1.
<mgrwt>
<rscale>  2 0.12500391E+03</rscale>
<asrwt>0</asrwt>
<pdfrwt beam="1">  1       21 0.48288081E-02 0.12500391E+03</pdfrwt>
<pdfrwt beam="2">  1       21 0.19147874E-01 0.12500391E+03</pdfrwt>
<totfact> 0.70023393E+06</totfact>
</mgrwt>
</event>
<event>
 5    0  0.1315209E+000  0.1250118E+03  0.7546771E-02  0.1235051E+00
         21   -1    0    0  503  502  0.00000000000E+00  0.00000000000E+00  0.11050981951E+02  0.11050981951E+02  0.00000000000E+00 0.  1.
         21   -1    0    0  502  503 -0.00000000000E+00 -0.00000000000E+00 -0.35354185357E+03  0.35354185357E+03  0.00000000000E+00 0.  1.
         25    2    1    2    0    0  0.00000000000E+00  0.00000000000E+00 -0.34249087162E+03  0.36459283552E+03  0.12501175373E+03 0.  0.
          4    1    3    3  501    0  0.16184040688E+02 -0.27016372353E+02 -0.13843263593E+02  0.34436114691E+02  0.15500000000E+01 0.  1.
         -4    1    3    3    0  501 -0.16184040688E+02  0.27016372353E+02 -0.32864760802E+03  0.33015672083E+03  0.15500000000E+01 0.  1.
<mgrwt>
<rscale>  2 0.12501175E+03</rscale>
<asrwt>0</asrwt>
<pdfrwt beam="1">  1       21 0.17001515E-02 0.12501175E+03</pdfrwt>
<pdfrwt beam="2">  1       21 0.54391040E-01 0.12501175E+03</pdfrwt>
<totfact> 0.50463595E+06</totfact>
</mgrwt>
</event>
<event>
 5    0  0.1222151E+000  0.1250107E+03  0.7546771E-02  0.1235053E+00
         21   -1    0    0  503  502  0.00000000000E+00  0.00000000000E+00  0.91091211764E+03  0.91091211764E+03  0.00000000000E+00 0. -1.
         21   -1    0    0  502  503 -0.00000000000E+00 -0.00000000000E+00 -0.42890175071E+01  0.42890175071E+01  0.00000000000E+00 0. -1.
         25    2    1    2    0    0  0.00000000000E+00  0.00000000000E+00  0.90662310013E+03  0.91520113515E+03  0.12501068786E+03 0.  0.
          4    1    3    3  501    0 -0.60739544204E+02  0.54075635810E+01  0.55315149480E+03  0.55650472835E+03  0.15500000000E+01 0. -1.
         -4    1    3    3    0  501  0.60739544204E+02 -0.54075635810E+01  0.35347160533E+03  0.35869640679E+03  0.15500000000E+01 0. -1.
<mgrwt>
<rscale>  2 0.12501069E+03</rscale>
<asrwt>0</asrwt>
<pdfrwt beam="1">  1       21 0.14014017E+00 0.12501069E+03</pdfrwt>
<pdfrwt beam="2">  1       21 0.65984957E-03 0.12501069E+03</pdfrwt>
<totfact> 0.25859921E+06</totfact>
</mgrwt>
</event>
<event>
 5    0  0.1255761E+000  0.1250021E+03  0.7546771E-02  0.1235066E+00
         21   -1    0    0  503  502  0.00000000000E+00  0.00000000000E+00  0.67784278558E+01  0.67784278558E+01  0.00000000000E+00 0. -1.
         21   -1    0    0  502  503 -0.00000000000E+00 -0.00000000000E+00 -0.57629567728E+03  0.57629567728E+03  0.00000000000E+00 0. -1.
         25    2    1    2    0    0  0.00000000000E+00  0.00000000000E+00 -0.56951724942E+03  0.58307410514E+03  0.12500205874E+03 0.  0.
          4    1    3    3  501    0 -0.15816401757E+02  0.39597751753E+02 -0.71725747450E+02  0.83457329550E+02  0.15500000000E+01 0.  1.
         -4    1    3    3    0  501  0.15816401757E+02 -0.39597751753E+02 -0.49779150197E+03  0.49961677559E+03  0.15500000000E+01 0.  1.
<mgrwt>
<rscale>  2 0.12500206E+03</rscale>
<asrwt>0</asrwt>
<pdfrwt beam="1">  1       21 0.10428349E-02 0.12500206E+03</pdfrwt>
<pdfrwt beam="2">  1       21 0.88660889E-01 0.12500206E+03</pdfrwt>
<totfact> 0.37867501E+06</totfact>
</mgrwt>
</event>
<event>
 5    0  0.1607742E+000  0.1250105E+03  0.7546771E-02  0.1235053E+00
         21   -1    0    0  503  502  0.00000000000E+00  0.00000000000E+00  0.47271766249E+02  0.47271766249E+02  0.00000000000E+00 0.  1.
         21   -1    0    0  502  503 -0.00000000000E+00 -0.00000000000E+00 -0.82647733081E+02  0.82647733081E+02  0.00000000000E+00 0.  1.
         25    2    1    2    0    0  0.00000000000E+00  0.00000000000E+00 -0.35375966832E+02  0.12991949933E+03  0.12501046867E+03 0.  0.
          4    1    3    3  501    0  0.29382662155E+02  0.49517592044E+02  0.75379892963E+01  0.58090933370E+02  0.15500000000E+01 0. -1.
         -4    1    3    3    0  501 -0.29382662155E+02 -0.49517592044E+02 -0.42913956128E+02  0.71828565959E+02  0.15500000000E+01 0. -1.
<mgrwt>
<rscale>  2 0.12501047E+03</rscale>
<asrwt>0</asrwt>
<pdfrwt beam="1">  1       21 0.72725795E-02 0.12501047E+03</pdfrwt>
<pdfrwt beam="2">  1       21 0.12715036E-01 0.12501047E+03</pdfrwt>
<totfact> 0.73356068E+06</totfact>
</mgrwt>
</event>
<event>
 5    0  0.1337318E+000  0.1250085E+03  0.7546771E-02  0.1235056E+00
         21   -1    0    0  503  502  0.00000000000E+00  0.00000000000E+00  0.86753102848E+01  0.86753102848E+01  0.00000000000E+00 0.  1.
         21   -1    0    0  502  503 -0.00000000000E+00 -0.00000000000E+00 -0.45033321275E+03  0.45033321275E+03  0.00000000000E+00 0.  1.
         25    2    1    2    0    0  0.00000000000E+00  0.00000000000E+00 -0.44165790246E+03  0.45900852303E+03  0.12500848535E+03 0.  0.
          4    1    3    3  501    0  0.58865470935E+02  0.90924838653E+01 -0.15149465240E+03  0.16279081404E+03  0.15500000000E+01 0. -1.
         -4    1    3    3    0  501 -0.58865470935E+02 -0.90924838653E+01 -0.29016325007E+03  0.29621770899E+03  0.15500000000E+01 0. -1.
<mgrwt>
<rscale>  2 0.12500849E+03</rscale>
<asrwt>0</asrwt>
<pdfrwt beam="1">  1       21 0.13346633E-02 0.12500849E+03</pdfrwt>
<pdfrwt beam="2">  1       21 0.69282026E-01 0.12500849E+03</pdfrwt>
<totfact> 0.44348700E+06</totfact>
</mgrwt>
</event>
<event>
 5    0  0.1299030E+000  0.1250023E+03  0.7546771E-02  0.1235066E+00
         21   -1    0    0  503  502  0.00000000000E+00  0.00000000000E+00  0.51888439761E+01  0.51888439761E+01  0.00000000000E+00 0.  1.
         21   -1    0    0  502  503 -0.00000000000E+00 -0.00000000000E+00 -0.75284474994E+03  0.75284474994E+03  0.00000000000E+00 0.  1.
         25    2    1    2    0    0  0.00000000000E+00  0.00000000000E+00 -0.74765590597E+03  0.75803359392E+03  0.12500230311E+03 0.  0.
          4    1    3    3  501    0  0.54092483713E+02  0.26918885328E+02 -0.27730145591E+03  0.28381177413E+03  0.15500000000E+01 0.  1.
         -4    1    3    3    0  501 -0.54092483713E+02 -0.26918885328E+02 -0.47035445005E+03  0.47422181979E+03  0.15500000000E+01 0.  1.
<mgrwt>
<rscale>  2 0.12500230E+03</rscale>
<asrwt>0</asrwt>
<pdfrwt beam="1">  1       21 0.79828335E-03 0.12500230E+03</pdfrwt>
<pdfrwt beam="2">  1       21 0.11582232E+00 0.12500230E+03</pdfrwt>
<totfact> 0.30786536E+06</totfact>
</mgrwt>
</event>
<event>
 5    0  0.1456533E+000  0.1250015E+03  0.7546771E-02  0.1235067E+00
         21   -1    0    0  503  502  0.00000000000E+00  0.00000000000E+00  0.21538947045E+03  0.21538947045E+03  0.00000000000E+00 0. -1.
         21   -1    0    0  502  503 -0.00000000000E+00 -0.00000000000E+00 -0.18136187882E+02  0.18136187882E+02  0.00000000000E+00 0. -1.
         25    2    1    2    0    0  0.00000000000E+00  0.00000000000E+00  0.19725328257E+03  0.23352565833E+03  0.12500150245E+03 0.  0.
          4    1    3    3  501    0  0.27312669404E+02  0.36794713161E+02  0.19275951259E+02  0.49737286049E+02  0.15500000000E+01 0. -1.
         -4    1    3    3    0  501 -0.27312669404E+02 -0.36794713161E+02  0.17797733131E+03  0.18378837228E+03  0.15500000000E+01 0. -1.
<mgrwt>
<rscale>  2 0.12500150E+03</rscale>
<asrwt>0</asrwt>
<pdfrwt beam="1">  1       21 0.33136840E-01 0.12500150E+03</pdfrwt>
<pdfrwt beam="2">  1       21 0.27901829E-02 0.12500150E+03</pdfrwt>
<totfact> 0.61462525E+06</totfact>
</mgrwt>
</event>
<event>
 5    0  0.1379045E+000  0.1250027E+03  0.7546771E-02  0.1235065E+00
         21   -1    0    0  503  502  0.00000000000E+00  0.00000000000E+00  0.23406766184E+02  0.23406766184E+02  0.00000000000E+00 0. -1.
         21   -1    0    0  502  503 -0.00000000000E+00 -0.00000000000E+00 -0.16689267783E+03  0.16689267783E+03  0.00000000000E+00 0. -1.
         25    2    1    2    0    0  0.00000000000E+00  0.00000000000E+00 -0.14348591165E+03  0.19029944402E+03  0.12500268618E+03 0.  0.
          4    1    3    3  501    0 -0.45182845088E+02 -0.50720578388E+01 -0.64976720796E+01  0.45954733199E+02  0.15500000000E+01 0.  1.
         -4    1    3    3    0  501  0.45182845088E+02  0.50720578388E+01 -0.13698823957E+03  0.14434471082E+03  0.15500000000E+01 0.  1.
<mgrwt>
<rscale>  2 0.12500269E+03</rscale>
<asrwt>0</asrwt>
<pdfrwt beam="1">  1       21 0.36010408E-02 0.12500269E+03</pdfrwt>
<pdfrwt beam="2">  1       21 0.25675798E-01 0.12500269E+03</pdfrwt>
<totfact> 0.65984707E+06</totfact>
</mgrwt>
</event>
<event>
 5    0  0.1222151E+000  0.1250056E+03  0.7546771E-02  0.1235061E+00
         21   -1    0    0  503  502  0.00000000000E+00  0.00000000000E+00  0.21614787342E+04  0.21614787342E+04  0.00000000000E+00 0. -1.
         21   -1    0    0  502  503 -0.00000000000E+00 -0.00000000000E+00 -0.18073728772E+01  0.18073728772E+01  0.00000000000E+00 0. -1.
         25    2    1    2    0    0  0.00000000000E+00  0.00000000000E+00  0.21596713613E+04  0.21632861070E+04  0.12500556849E+03 0.  0.
          4    1    3    3  501    0 -0.18267477432E+02 -0.58291899826E+02  0.13071574899E+04  0.13085850191E+04  0.15500000000E+01 0.  1.
         -4    1    3    3    0  501  0.18267477432E+02  0.58291899826E+02  0.85251387139E+03  0.85470108794E+03  0.15500000000E+01 0.  1.
<mgrwt>
<rscale>  2 0.12500557E+03</rscale>
<asrwt>0</asrwt>
<pdfrwt beam="1">  1       21 0.33253312E+00 0.12500557E+03</pdfrwt>
<pdfrwt beam="2">  1       21 0.27805910E-03 0.12500557E+03</pdfrwt>
<totfact> 0.64619127E+05</totfact>
</mgrwt>
</event>
<event>
 5    0  0.1591778E+000  0.1249996E+03  0.7546771E-02  0.1235070E+00
         21   -1    0    0  503  502  0.00000000000E+00  0.00000000000E+00  0.10023461069E+03  0.10023461069E+03  0.00000000000E+00 0.  1.
         21   -1    0    0  502  503 -0.00000000000E+00 -0.00000000000E+00 -0.38970806593E+02  0.38970806593E+02  0.00000000000E+00 0.  1.
         25    2    1    2    0    0  0.00000000000E+00  0.00000000000E+00  0.61263804094E+02  0.13920541728E+03  0.12499957803E+03 0.  0.
          4    1    3    3  501    0 -0.50675128839E+01 -0.56461603336E+02  0.59889867600E+02  0.82479034180E+02  0.15500000000E+01 0.  1.
         -4    1    3    3    0  501  0.50675128839E+01  0.56461603336E+02  0.13739364938E+01  0.56726383100E+02  0.15500000000E+01 0.  1.
<mgrwt>
<rscale>  2 0.12499958E+03</rscale>
<asrwt>0</asrwt>
<pdfrwt beam="1">  1       21 0.15420709E-01 0.12499958E+03</pdfrwt>
<pdfrwt beam="2">  1       21 0.59955088E-02 0.12499958E+03</pdfrwt>
<totfact> 0.72143985E+06</totfact>
</mgrwt>
</event>
<event>
 5    0  0.1447809E+000  0.1250043E+03  0.7546771E-02  0.1235063E+00
         21   -1    0    0  503  502  0.00000000000E+00  0.00000000000E+00  0.28019879462E+03  0.28019879462E+03  0.00000000000E+00 0. -1.
         21   -1    0    0  502  503 -0.00000000000E+00 -0.00000000000E+00 -0.13941953980E+02  0.13941953980E+02  0.00000000000E+00 0. -1.
         25    2    1    2    0    0  0.00000000000E+00  0.00000000000E+00  0.26625684063E+03  0.29414074860E+03  0.12500429912E+03 0.  0.
          4    1    3    3  501    0 -0.52678180584E+02  0.16274523259E+02  0.63952682006E+02  0.84452346638E+02  0.15500000000E+01 0.  1.
         -4    1    3    3    0  501  0.52678180584E+02 -0.16274523259E+02  0.20230415863E+03  0.20968840196E+03  0.15500000000E+01 0.  1.
<mgrwt>
<rscale>  2 0.12500430E+03</rscale>
<asrwt>0</asrwt>
<pdfrwt beam="1">  1       21 0.43107503E-01 0.12500430E+03</pdfrwt>
<pdfrwt beam="2">  1       21 0.21449162E-02 0.12500430E+03</pdfrwt>
<totfact> 0.55940599E+06</totfact>
</mgrwt>
</event>
<event>
 5    0  0.1611653E+000  0.1249988E+03  0.7546771E-02  0.1235071E+00
         21   -1    0    0  503  502  0.00000000000E+00  0.00000000000E+00  0.51715019713E+02  0.51715019713E+02  0.00000000000E+00 0. -1.
         21   -1    0    0  502  503 -0.00000000000E+00 -0.00000000000E+00 -0.75532724911E+02  0.75532724911E+02  0.00000000000E+00 0. -1.
         25    2    1    2    0    0  0.00000000000E+00  0.00000000000E+00 -0.23817705199E+02  0.12724774462E+03  0.12499882172E+03 0.  0.
          4    1    3    3  501    0  0.24561574968E+01 -0.62414872215E+02 -0.10424931484E+02  0.63346118111E+02  0.15500000000E+01 0.  1.
         -4    1    3    3    0  501 -0.24561574968E+01  0.62414872215E+02 -0.13392773715E+02  0.63901626513E+02  0.15500000000E+01 0.  1.
<mgrwt>
<rscale>  2 0.12499882E+03</rscale>
<asrwt>0</asrwt>
<pdfrwt beam="1">  1       21 0.79561568E-02 0.12499882E+03</pdfrwt>
<pdfrwt beam="2">  1       21 0.11620419E-01 0.12499882E+03</pdfrwt>
<totfact> 0.73737666E+06</totfact>
</mgrwt>
</event>
<event>
 5    0  0.1222151E+000  0.1249969E+03  0.7546771E-02  0.1235074E+00
         21   -1    0    0  503  502  0.00000000000E+00  0.00000000000E+00  0.46002839864E+01  0.46002839864E+01  0.00000000000E+00 0. -1.
         21   -1    0    0  502  503 -0.00000000000E+00 -0.00000000000E+00 -0.84909068654E+03  0.84909068654E+03  0.00000000000E+00 0. -1.
         25    2    1    2    0    0  0.00000000000E+00  0.00000000000E+00 -0.84449040255E+03  0.85369097053E+03  0.12499693258E+03 0.  0.
          4    1    3    3  501    0 -0.22188183086E+02  0.52004674808E+02 -0.60382445570E+03  0.60646778766E+03  0.15500000000E+01 0.  1.
         -4    1    3    3    0  501  0.22188183086E+02 -0.52004674808E+02 -0.24066594685E+03  0.24722318286E+03  0.15500000000E+01 0.  1.
<mgrwt>
<rscale>  2 0.12499693E+03</rscale>
<asrwt>0</asrwt>
<pdfrwt beam="1">  1       21 0.70773590E-03 0.12499693E+03</pdfrwt>
<pdfrwt beam="2">  1       21 0.13062935E+00 0.12499693E+03</pdfrwt>
<totfact> 0.27661391E+06</totfact>
</mgrwt>
</event>
<event>
 5    0  0.1433956E+000  0.1249696E+03  0.7546771E-02  0.1235117E+00
         21   -1    0    0  503  502  0.00000000000E+00  0.00000000000E+00  0.13918268129E+02  0.13918268129E+02  0.00000000000E+00 0.  1.
         21   -1    0    0  502  503 -0.00000000000E+00 -0.00000000000E+00 -0.28051969717E+03  0.28051969717E+03  0.00000000000E+00 0.  1.
         25    2    1    2    0    0  0.00000000000E+00  0.00000000000E+00 -0.26660142904E+03  0.29443796530E+03  0.12496957007E+03 0.  0.
          4    1    3    3  501    0 -0.56734496160E+02 -0.11421374777E+02 -0.18869083397E+03  0.19737245041E+03  0.15500000000E+01 0.  1.
         -4    1    3    3    0  501  0.56734496160E+02  0.11421374777E+02 -0.77910595062E+02  0.97065514881E+02  0.15500000000E+01 0.  1.
<mgrwt>
<rscale>  2 0.12496957E+03</rscale>
<asrwt>0</asrwt>
<pdfrwt beam="1">  1       21 0.21412720E-02 0.12496957E+03</pdfrwt>
<pdfrwt beam="2">  1       21 0.43156877E-01 0.12496957E+03</pdfrwt>
<totfact> 0.55964381E+06</totfact>
</mgrwt>
</event>
<event>
 5    0  0.1514120E+000  0.1250000E+03  0.7546771E-02  0.1235069E+00
         21   -1    0    0  503  502  0.00000000000E+00  0.00000000000E+00  0.33009709226E+02  0.33009709226E+02  0.00000000000E+00 0.  1.
         21   -1    0    0  502  503 -0.00000000000E+00 -0.00000000000E+00 -0.11833633476E+03  0.11833633476E+03  0.00000000000E+00 0.  1.
         25    2    1    2    0    0  0.00000000000E+00  0.00000000000E+00 -0.85326625530E+02  0.15134604398E+03  0.12499996802E+03 0.  0.
          4    1    3    3  501    0  0.38144035473E+02  0.35575639206E+02 -0.10147722833E+01  0.52192200662E+02  0.15500000000E+01 0. -1.
         -4    1    3    3    0  501 -0.38144035473E+02 -0.35575639206E+02 -0.84311853247E+02  0.99153843319E+02  0.15500000000E+01 0. -1.
<mgrwt>
<rscale>  2 0.12499997E+03</rscale>
<asrwt>0</asrwt>
<pdfrwt beam="1">  1       21 0.50784168E-02 0.12499997E+03</pdfrwt>
<pdfrwt beam="2">  1       21 0.18205590E-01 0.12499997E+03</pdfrwt>
<totfact> 0.70590578E+06</totfact>
</mgrwt>
</event>
<event>
 5    0  0.1503076E+000  0.1250019E+03  0.7546771E-02  0.1235066E+00
         21   -1    0    0  503  502  0.00000000000E+00  0.00000000000E+00  0.12006005135E+03  0.12006005135E+03  0.00000000000E+00 0.  1.
         21   -1    0    0  502  503 -0.00000000000E+00 -0.00000000000E+00 -0.32536765568E+02  0.32536765568E+02  0.00000000000E+00 0.  1.
         25    2    1    2    0    0  0.00000000000E+00  0.00000000000E+00  0.87523285781E+02  0.15259681692E+03  0.12500185190E+03 0.  0.
          4    1    3    3  501    0  0.36842810888E+02  0.12596197832E+02  0.10341538205E+03  0.11051335059E+03  0.15500000000E+01 0.  1.
         -4    1    3    3    0  501 -0.36842810888E+02 -0.12596197832E+02 -0.15892096273E+02  0.42083466325E+02  0.15500000000E+01 0.  1.
<mgrwt>
<rscale>  2 0.12500185E+03</rscale>
<asrwt>0</asrwt>
<pdfrwt beam="1">  1       21 0.18470777E-01 0.12500185E+03</pdfrwt>
<pdfrwt beam="2">  1       21 0.50056563E-02 0.12500185E+03</pdfrwt>
<totfact> 0.70431178E+06</totfact>
</mgrwt>
</event>
<event>
 5    0  0.1519212E+000  0.1250034E+03  0.7546771E-02  0.1235064E+00
         21   -1    0    0  503  502  0.00000000000E+00  0.00000000000E+00  0.57321800505E+02  0.57321800505E+02  0.00000000000E+00 0.  1.
         21   -1    0    0  502  503 -0.00000000000E+00 -0.00000000000E+00 -0.68149709171E+02  0.68149709171E+02  0.00000000000E+00 0.  1.
         25    2    1    2    0    0  0.00000000000E+00  0.00000000000E+00 -0.10827908665E+02  0.12547150968E+03  0.12500342449E+03 0.  0.
          4    1    3    3  501    0  0.23748257247E+02 -0.48090923138E+02  0.26758289552E+02  0.59959362657E+02  0.15500000000E+01 0.  1.
         -4    1    3    3    0  501 -0.23748257247E+02  0.48090923138E+02 -0.37586198218E+02  0.65512147019E+02  0.15500000000E+01 0.  1.
<mgrwt>
<rscale>  2 0.12500342E+03</rscale>
<asrwt>0</asrwt>
<pdfrwt beam="1">  1       21 0.88187386E-02 0.12500342E+03</pdfrwt>
<pdfrwt beam="2">  1       21 0.10484571E-01 0.12500342E+03</pdfrwt>
<totfact> 0.73972925E+06</totfact>
</mgrwt>
</event>
<event>
 5    0  0.1314249E+000  0.1250007E+03  0.7546771E-02  0.1235068E+00
         21   -1    0    0  503  502  0.00000000000E+00  0.00000000000E+00  0.26622457037E+03  0.26622457037E+03  0.00000000000E+00 0.  1.
         21   -1    0    0  502  503 -0.00000000000E+00 -0.00000000000E+00 -0.14672936720E+02  0.14672936720E+02  0.00000000000E+00 0.  1.
         25    2    1    2    0    0  0.00000000000E+00  0.00000000000E+00  0.25155163365E+03  0.28089750709E+03  0.12500074039E+03 0.  0.
          4    1    3    3  501    0  0.17846360476E+02 -0.26247655920E+02  0.24671560357E+03  0.24875374081E+03  0.15500000000E+01 0. -1.
         -4    1    3    3    0  501 -0.17846360476E+02  0.26247655920E+02  0.48360300802E+01  0.32143766277E+02  0.15500000000E+01 0. -1.
<mgrwt>
<rscale>  2 0.12500074E+03</rscale>
<asrwt>0</asrwt>
<pdfrwt beam="1">  1       21 0.40957623E-01 0.12500074E+03</pdfrwt>
<pdfrwt beam="2">  1       21 0.22573751E-02 0.12500074E+03</pdfrwt>
<totfact> 0.57080931E+06</totfact>
</mgrwt>
</event>
<event>
 5    0  0.1390366E+000  0.1250000E+03  0.7546771E-02  0.1235069E+00
         21   -1    0    0  503  502  0.00000000000E+00  0.00000000000E+00  0.30195218341E+03  0.30195218341E+03  0.00000000000E+00 0.  1.
         21   -1    0    0  502  503 -0.00000000000E+00 -0.00000000000E+00 -0.12936653771E+02  0.12936653771E+02  0.00000000000E+00 0.  1.
         25    2    1    2    0    0  0.00000000000E+00  0.00000000000E+00  0.28901552964E+03  0.31488883718E+03  0.12500001363E+03 0.  0.
          4    1    3    3  501    0  0.25816595755E+02 -0.53379210587E+02  0.94886301570E+02  0.11190017634E+03  0.15500000000E+01 0. -1.
         -4    1    3    3    0  501 -0.25816595755E+02  0.53379210587E+02  0.19412922807E+03  0.20298866084E+03  0.15500000000E+01 0. -1.
<mgrwt>
<rscale>  2 0.12500001E+03</rscale>
<asrwt>0</asrwt>
<pdfrwt beam="1">  1       21 0.46454177E-01 0.12500001E+03</pdfrwt>
<pdfrwt beam="2">  1       21 0.19902546E-02 0.12500001E+03</pdfrwt>
<totfact> 0.54240862E+06</totfact>
</mgrwt>
</event>
<event>
 5    0  0.1549184E+000  0.1249897E+03  0.7546771E-02  0.1235085E+00
         21   -1    0    0  503  502  0.00000000000E+00  0.00000000000E+00  0.40350533006E+02  0.40350533006E+02  0.00000000000E+00 0. -1.
         21   -1    0    0  502  503 -0.00000000000E+00 -0.00000000000E+00 -0.96791961633E+02  0.96791961633E+02  0.00000000000E+00 0. -1.
         25    2    1    2    0    0  0.00000000000E+00  0.00000000000E+00 -0.56441428627E+02  0.13714249464E+03  0.12498971546E+03 0.  0.
          4    1    3    3  501    0  0.47624707802E+02  0.18515852639E+02  0.11222463876E+02  0.52338282238E+02  0.15500000000E+01 0.  1.
         -4    1    3    3    0  501 -0.47624707802E+02 -0.18515852639E+02 -0.67663892503E+02  0.84804212400E+02  0.15500000000E+01 0.  1.
<mgrwt>
<rscale>  2 0.12498972E+03</rscale>
<asrwt>0</asrwt>
<pdfrwt beam="1">  1       21 0.62077744E-02 0.12498972E+03</pdfrwt>
<pdfrwt beam="2">  1       21 0.14891071E-01 0.12498972E+03</pdfrwt>
<totfact> 0.72433010E+06</totfact>
</mgrwt>
</event>
<event>
 5    0  0.1278588E+000  0.1249795E+03  0.7546771E-02  0.1235101E+00
         21   -1    0    0  503  502  0.00000000000E+00  0.00000000000E+00  0.81440360624E+01  0.81440360624E+01  0.00000000000E+00 0.  1.
         21   -1    0    0  502  503 -0.00000000000E+00 -0.00000000000E+00 -0.47948850096E+03  0.47948850096E+03  0.00000000000E+00 0.  1.
         25    2    1    2    0    0  0.00000000000E+00  0.00000000000E+00 -0.47134446489E+03  0.48763253702E+03  0.12497954462E+03 0.  0.
          4    1    3    3  501    0  0.81899987899E+01 -0.29326333523E+02 -0.22843264202E+02  0.38096287712E+02  0.15500000000E+01 0.  1.
         -4    1    3    3    0  501 -0.81899987899E+01  0.29326333523E+02 -0.44850120069E+03  0.44953624931E+03  0.15500000000E+01 0.  1.
<mgrwt>
<rscale>  2 0.12497954E+03</rscale>
<asrwt>0</asrwt>
<pdfrwt beam="1">  1       21 0.12529287E-02 0.12497954E+03</pdfrwt>
<pdfrwt beam="2">  1       21 0.73767460E-01 0.12497954E+03</pdfrwt>
<totfact> 0.42744602E+06</totfact>
</mgrwt>
</event>
<event>
 5    0  0.1270362E+000  0.1250021E+03  0.7546771E-02  0.1235066E+00
         21   -1    0    0  503  502  0.00000000000E+00  0.00000000000E+00  0.59063762820E+03  0.59063762820E+03  0.00000000000E+00 0. -1.
         21   -1    0    0  502  503 -0.00000000000E+00 -0.00000000000E+00 -0.66138376237E+01  0.66138376237E+01  0.00000000000E+00 0. -1.
         25    2    1    2    0    0  0.00000000000E+00  0.00000000000E+00  0.58402379058E+03  0.59725146582E+03  0.12500210186E+03 0.  0.
          4    1    3    3  501    0  0.51352512125E+02 -0.30720010519E+01  0.12258310844E+03  0.13294938385E+03  0.15500000000E+01 0.  1.
         -4    1    3    3    0  501 -0.51352512125E+02  0.30720010519E+01  0.46144068214E+03  0.46430208197E+03  0.15500000000E+01 0.  1.
<mgrwt>
<rscale>  2 0.12500210E+03</rscale>
<asrwt>0</asrwt>
<pdfrwt beam="1">  1       21 0.90867286E-01 0.12500210E+03</pdfrwt>
<pdfrwt beam="2">  1       21 0.10175139E-02 0.12500210E+03</pdfrwt>
<totfact> 0.37215294E+06</totfact>
</mgrwt>
</event>
<event>
 5    0  0.1512816E+000  0.1250028E+03  0.7546771E-02  0.1235065E+00
         21   -1    0    0  503  502  0.00000000000E+00  0.00000000000E+00  0.20969618147E+02  0.20969618147E+02  0.00000000000E+00 0.  1.
         21   -1    0    0  502  503 -0.00000000000E+00 -0.00000000000E+00 -0.18628978958E+03  0.18628978958E+03  0.00000000000E+00 0.  1.
         25    2    1    2    0    0  0.00000000000E+00  0.00000000000E+00 -0.16532017144E+03  0.20725940773E+03  0.12500281200E+03 0.  0.
          4    1    3    3  501    0 -0.31358553094E+01  0.52154563917E+02 -0.25847393122E+02  0.58313140518E+02  0.15500000000E+01 0.  1.
         -4    1    3    3    0  501  0.31358553094E+01 -0.52154563917E+02 -0.13947277831E+03  0.14894626721E+03  0.15500000000E+01 0.  1.
<mgrwt>
<rscale>  2 0.12500281E+03</rscale>
<asrwt>0</asrwt>
<pdfrwt beam="1">  1       21 0.32260952E-02 0.12500281E+03</pdfrwt>
<pdfrwt beam="2">  1       21 0.28659967E-01 0.12500281E+03</pdfrwt>
<totfact> 0.64144472E+06</totfact>
</mgrwt>
</event>
<event>
 5    0  0.1581394E+000  0.1250154E+03  0.7546771E-02  0.1235045E+00
         21   -1    0    0  503  502  0.00000000000E+00  0.00000000000E+00  0.38481127253E+02  0.38481127253E+02  0.00000000000E+00 0. -1.
         21   -1    0    0  502  503 -0.00000000000E+00 -0.00000000000E+00 -0.10153584615E+03  0.10153584615E+03  0.00000000000E+00 0. -1.
         25    2    1    2    0    0  0.00000000000E+00  0.00000000000E+00 -0.63054718901E+02  0.14001697341E+03  0.12501542011E+03 0.  0.
          4    1    3    3  501    0 -0.31527473572E+02 -0.53494074747E+02 -0.23670299222E+02  0.66470167655E+02  0.15500000000E+01 0. -1.
         -4    1    3    3    0  501  0.31527473572E+02  0.53494074747E+02 -0.39384419679E+02  0.73546805752E+02  0.15500000000E+01 0. -1.
<mgrwt>
<rscale>  2 0.12501542E+03</rscale>
<asrwt>0</asrwt>
<pdfrwt beam="1">  1       21 0.59201735E-02 0.12501542E+03</pdfrwt>
<pdfrwt beam="2">  1       21 0.15620899E-01 0.12501542E+03</pdfrwt>
<totfact> 0.72008799E+06</totfact>
</mgrwt>
</event>
<event>
 5    0  0.1431959E+000  0.1250034E+03  0.7546771E-02  0.1235064E+00
         21   -1    0    0  503  502  0.00000000000E+00  0.00000000000E+00  0.34273113636E+03  0.34273113636E+03  0.00000000000E+00 0. -1.
         21   -1    0    0  502  503 -0.00000000000E+00 -0.00000000000E+00 -0.11398042046E+02  0.11398042046E+02  0.00000000000E+00 0. -1.
         25    2    1    2    0    0  0.00000000000E+00  0.00000000000E+00  0.33133309431E+03  0.35412917840E+03  0.12500342240E+03 0.  0.
          4    1    3    3  501    0  0.96027377749E+01 -0.55269576915E+02  0.87715322716E+02  0.10413125873E+03  0.15500000000E+01 0.  1.
         -4    1    3    3    0  501 -0.96027377749E+01  0.55269576915E+02  0.24361777159E+03  0.24999791967E+03  0.15500000000E+01 0.  1.
<mgrwt>
<rscale>  2 0.12500342E+03</rscale>
<asrwt>0</asrwt>
<pdfrwt beam="1">  1       21 0.52727859E-01 0.12500342E+03</pdfrwt>
<pdfrwt beam="2">  1       21 0.17535452E-02 0.12500342E+03</pdfrwt>
<totfact> 0.51230531E+06</totfact>
</mgrwt>
</event>
<event>
 5    0  0.1273910E+000  0.1250038E+03  0.7546771E-02  0.1235063E+00
         21   -1    0    0  503  502  0.00000000000E+00  0.00000000000E+00  0.78261006959E+01  0.78261006959E+01  0.00000000000E+00 0. -1.
         21   -1    0    0  502  503 -0.00000000000E+00 -0.00000000000E+00 -0.49916127810E+03  0.49916127810E+03  0.00000000000E+00 0. -1.
         25    2    1    2    0    0  0.00000000000E+00  0.00000000000E+00 -0.49133517741E+03  0.50698737880E+03  0.12500378276E+03 0.  0.
          4    1    3    3  501    0 -0.40069907552E+02  0.88678135630E+01 -0.43675656881E+03  0.43868318694E+03  0.15500000000E+01 0. -1.
         -4    1    3    3    0  501  0.40069907552E+02 -0.88678135630E+01 -0.54578608599E+02  0.68304191857E+02  0.15500000000E+01 0. -1.
<mgrwt>
<rscale>  2 0.12500378E+03</rscale>
<asrwt>0</asrwt>
<pdfrwt beam="1">  1       21 0.12040154E-02 0.12500378E+03</pdfrwt>
<pdfrwt beam="2">  1       21 0.76794047E-01 0.12500378E+03</pdfrwt>
<totfact> 0.41663722E+06</totfact>
</mgrwt>
</event>
<event>
 5    0  0.1636862E+000  0.1250100E+03  0.7546771E-02  0.1235054E+00
         21   -1    0    0  503  502  0.00000000000E+00  0.00000000000E+00  0.51857723478E+02  0.51857723478E+02  0.00000000000E+00 0.  1.
         21   -1    0    0  502  503 -0.00000000000E+00 -0.00000000000E+00 -0.75338367873E+02  0.75338367873E+02  0.00000000000E+00 0.  1.
         25    2    1    2    0    0  0.00000000000E+00  0.00000000000E+00 -0.23480644395E+02  0.12719609135E+03  0.12501001957E+03 0.  0.
          4    1    3    3  501    0 -0.49462952329E+02 -0.35698063973E+02  0.20442192469E+01  0.61053392673E+02  0.15500000000E+01 0. -1.
         -4    1    3    3    0  501  0.49462952329E+02  0.35698063973E+02 -0.25524863642E+02  0.66142698678E+02  0.15500000000E+01 0. -1.
<mgrwt>
<rscale>  2 0.12501002E+03</rscale>
<asrwt>0</asrwt>
<pdfrwt beam="1">  1       21 0.79781114E-02 0.12501002E+03</pdfrwt>
<pdfrwt beam="2">  1       21 0.11590518E-01 0.12501002E+03</pdfrwt>
<totfact> 0.73723608E+06</totfact>
</mgrwt>
</event>
<event>
 5    0  0.1555578E+000  0.1249853E+03  0.7546771E-02  0.1235092E+00
         21   -1    0    0  503  502  0.00000000000E+00  0.00000000000E+00  0.42463694647E+02  0.42463694647E+02  0.00000000000E+00 0.  1.
         21   -1    0    0  502  503 -0.00000000000E+00 -0.00000000000E+00 -0.91968667805E+02  0.91968667805E+02  0.00000000000E+00 0.  1.
         25    2    1    2    0    0  0.00000000000E+00  0.00000000000E+00 -0.49504973158E+02  0.13443236245E+03  0.12498526996E+03 0.  0.
          4    1    3    3  501    0 -0.37607194158E+02  0.34589345556E+02  0.13911833625E+02  0.52977971773E+02  0.15500000000E+01 0. -1.
         -4    1    3    3    0  501  0.37607194158E+02 -0.34589345556E+02 -0.63416806783E+02  0.81454390679E+02  0.15500000000E+01 0. -1.
<mgrwt>
<rscale>  2 0.12498527E+03</rscale>
<asrwt>0</asrwt>
<pdfrwt beam="1">  1       21 0.65328761E-02 0.12498527E+03</pdfrwt>
<pdfrwt beam="2">  1       21 0.14149026E-01 0.12498527E+03</pdfrwt>
<totfact> 0.72799067E+06</totfact>
</mgrwt>
</event>
<event>
 5    0  0.1222151E+000  0.1249903E+03  0.7546771E-02  0.1235084E+00
         21   -1    0    0  503  502  0.00000000000E+00  0.00000000000E+00  0.66489197765E+03  0.66489197765E+03  0.00000000000E+00 0.  1.
         21   -1    0    0  502  503 -0.00000000000E+00 -0.00000000000E+00 -0.58741005711E+01  0.58741005711E+01  0.00000000000E+00 0.  1.
         25    2    1    2    0    0  0.00000000000E+00  0.00000000000E+00  0.65901787707E+03  0.67076607822E+03  0.12499027715E+03 0.  0.
          4    1    3    3  501    0  0.29226425470E+02  0.19641175184E+02  0.60646016037E+03  0.60748357042E+03  0.15500000000E+01 0. -1.
         -4    1    3    3    0  501 -0.29226425470E+02 -0.19641175184E+02  0.52557716700E+02  0.63282507797E+02  0.15500000000E+01 0. -1.
<mgrwt>
<rscale>  2 0.12499028E+03</rscale>
<asrwt>0</asrwt>
<pdfrwt beam="1">  1       21 0.10229101E+00 0.12499028E+03</pdfrwt>
<pdfrwt beam="2">  1       21 0.90370831E-03 0.12499028E+03</pdfrwt>
<totfact> 0.34076177E+06</totfact>
</mgrwt>
</event>
<event>
 5    0  0.1441069E+000  0.1249979E+03  0.7546771E-02  0.1235073E+00
         21   -1    0    0  503  502  0.00000000000E+00  0.00000000000E+00  0.11073609937E+02  0.11073609937E+02  0.00000000000E+00 0. -1.
         21   -1    0    0  502  503 -0.00000000000E+00 -0.00000000000E+00 -0.35274132300E+03  0.35274132300E+03  0.00000000000E+00 0. -1.
         25    2    1    2    0    0  0.00000000000E+00  0.00000000000E+00 -0.34166771307E+03  0.36381493294E+03  0.12499791710E+03 0.  0.
          4    1    3    3  501    0 -0.51035502240E+02 -0.35525317356E+02 -0.15311840359E+03  0.16527044103E+03  0.15500000000E+01 0. -1.
         -4    1    3    3    0  501  0.51035502240E+02  0.35525317356E+02 -0.18854930948E+03  0.19854449191E+03  0.15500000000E+01 0. -1.
<mgrwt>
<rscale>  2 0.12499792E+03</rscale>
<asrwt>0</asrwt>
<pdfrwt beam="1">  1       21 0.17036326E-02 0.12499792E+03</pdfrwt>
<pdfrwt beam="2">  1       21 0.54267886E-01 0.12499792E+03</pdfrwt>
<totfact> 0.50536704E+06</totfact>
</mgrwt>
</event>
<event>
 5    0  0.1222151E+000  0.1250016E+03  0.7546771E-02  0.1235067E+00
         21   -1    0    0  503  502  0.00000000000E+00  0.00000000000E+00  0.55449823235E+03  0.55449823235E+03  0.00000000000E+00 0. -1.
         21   -1    0    0  502  503 -0.00000000000E+00 -0.00000000000E+00 -0.70448399657E+01  0.70448399657E+01  0.00000000000E+00 0. -1.
         25    2    1    2    0    0  0.00000000000E+00  0.00000000000E+00  0.54745339239E+03  0.56154307232E+03  0.12500162092E+03 0.  0.
          4    1    3    3  501    0  0.21810099937E+02 -0.39498494413E+02  0.79561304298E+02  0.91477949047E+02  0.15500000000E+01 0. -1.
         -4    1    3    3    0  501 -0.21810099937E+02  0.39498494413E+02  0.46789208809E+03  0.47006512327E+03  0.15500000000E+01 0. -1.
<mgrwt>
<rscale>  2 0.12500162E+03</rscale>
<asrwt>0</asrwt>
<pdfrwt beam="1">  1       21 0.85307386E-01 0.12500162E+03</pdfrwt>
<pdfrwt beam="2">  1       21 0.10838220E-02 0.12500162E+03</pdfrwt>
<totfact> 0.38890075E+06</totfact>
</mgrwt>
</event>
<event>
 5    0  0.1438229E+000  0.1250255E+03  0.7546771E-02  0.1235029E+00
         21   -1    0    0  503  502  0.00000000000E+00  0.00000000000E+00  0.58009108098E+02  0.58009108098E+02  0.00000000000E+00 0.  1.
         21   -1    0    0  502  503 -0.00000000000E+00 -0.00000000000E+00 -0.67366015520E+02  0.67366015520E+02  0.00000000000E+00 0.  1.
         25    2    1    2    0    0  0.00000000000E+00  0.00000000000E+00 -0.93569074227E+01  0.12537512362E+03  0.12502547703E+03 0.  0.
          4    1    3    3  501    0 -0.14016663932E+02  0.40603543323E+02 -0.50196200967E+02  0.66084610082E+02  0.15500000000E+01 0.  1.
         -4    1    3    3    0  501  0.14016663932E+02 -0.40603543323E+02  0.40839293544E+02  0.59290513536E+02  0.15500000000E+01 0.  1.
<mgrwt>
<rscale>  2 0.12502548E+03</rscale>
<asrwt>0</asrwt>
<pdfrwt beam="1">  1       21 0.89244782E-02 0.12502548E+03</pdfrwt>
<pdfrwt beam="2">  1       21 0.10364002E-01 0.12502548E+03</pdfrwt>
<totfact> 0.73944760E+06</totfact>
</mgrwt>
</event>
<event>
 5    0  0.1441726E+000  0.1249849E+03  0.7546771E-02  0.1235093E+00
         21   -1    0    0  503  502  0.00000000000E+00  0.00000000000E+00  0.22589659048E+03  0.22589659048E+03  0.00000000000E+00 0. -1.
         21   -1    0    0  502  503 -0.00000000000E+00 -0.00000000000E+00 -0.17288039023E+02  0.17288039023E+02  0.00000000000E+00 0. -1.
         25    2    1    2    0    0  0.00000000000E+00  0.00000000000E+00  0.20860855146E+03  0.24318462951E+03  0.12498494424E+03 0.  0.
          4    1    3    3  501    0 -0.42950411771E+02  0.23453089440E+02  0.28743473989E+02  0.56774774967E+02  0.15500000000E+01 0. -1.
         -4    1    3    3    0  501  0.42950411771E+02 -0.23453089440E+02  0.17986507747E+03  0.18640985454E+03  0.15500000000E+01 0. -1.
<mgrwt>
<rscale>  2 0.12498494E+03</rscale>
<asrwt>0</asrwt>
<pdfrwt beam="1">  1       21 0.34753320E-01 0.12498494E+03</pdfrwt>
<pdfrwt beam="2">  1       21 0.26596985E-02 0.12498494E+03</pdfrwt>
<totfact> 0.60548836E+06</totfact>
</mgrwt>
</event>
<event>
 5    0  0.1222151E+000  0.1249922E+03  0.7546771E-02  0.1235081E+00
         21   -1    0    0  503  502  0.00000000000E+00  0.00000000000E+00  0.12268867731E+04  0.12268867731E+04  0.00000000000E+00 0. -1.
         21   -1    0    0  502  503 -0.00000000000E+00 -0.00000000000E+00 -0.31834761291E+01  0.31834761291E+01  0.00000000000E+00 0. -1.
         25    2    1    2    0    0  0.00000000000E+00  0.00000000000E+00  0.12237032970E+04  0.12300702492E+04  0.12499223584E+03 0.  0.
          4    1    3    3  501    0 -0.41825918591E+02 -0.10599159976E+02  0.10565172620E+04  0.10573991097E+04  0.15500000000E+01 0. -1.
         -4    1    3    3    0  501  0.41825918591E+02  0.10599159976E+02  0.16718603494E+03  0.17267113956E+03  0.15500000000E+01 0. -1.
<mgrwt>
<rscale>  2 0.12499224E+03</rscale>
<asrwt>0</asrwt>
<pdfrwt beam="1">  1       21 0.18875143E+00 0.12499224E+03</pdfrwt>
<pdfrwt beam="2">  1       21 0.48976654E-03 0.12499224E+03</pdfrwt>
<totfact> 0.18557877E+06</totfact>
</mgrwt>
</event>
<event>
 5    0  0.1517179E+000  0.1249971E+03  0.7546771E-02  0.1235074E+00
         21   -1    0    0  503  502  0.00000000000E+00  0.00000000000E+00  0.17376435889E+02  0.17376435889E+02  0.00000000000E+00 0. -1.
         21   -1    0    0  502  503 -0.00000000000E+00 -0.00000000000E+00 -0.22479122116E+03  0.22479122116E+03  0.00000000000E+00 0. -1.
         25    2    1    2    0    0  0.00000000000E+00  0.00000000000E+00 -0.20741478527E+03  0.24216765705E+03  0.12499712385E+03 0.  0.
          4    1    3    3  501    0 -0.53606481607E+02  0.42343169751E+01 -0.16534194947E+03  0.17387336502E+03  0.15500000000E+01 0. -1.
         -4    1    3    3    0  501  0.53606481607E+02 -0.42343169751E+01 -0.42072835800E+02  0.68294292022E+02  0.15500000000E+01 0. -1.
<mgrwt>
<rscale>  2 0.12499712E+03</rscale>
<asrwt>0</asrwt>
<pdfrwt beam="1">  1       21 0.26732979E-02 0.12499712E+03</pdfrwt>
<pdfrwt beam="2">  1       21 0.34583263E-01 0.12499712E+03</pdfrwt>
<totfact> 0.60627930E+06</totfact>
</mgrwt>
</event>
<event>
 5    0  0.1441704E+000  0.1250060E+03  0.7546771E-02  0.1235060E+00
         21   -1    0    0  503  502  0.00000000000E+00  0.00000000000E+00  0.17321435398E+02  0.17321435398E+02  0.00000000000E+00 0.  1.
         21   -1    0    0  502  503 -0.00000000000E+00 -0.00000000000E+00 -0.22553697833E+03  0.22553697833E+03  0.00000000000E+00 0.  1.
         25    2    1    2    0    0  0.00000000000E+00  0.00000000000E+00 -0.20821554293E+03  0.24285841373E+03  0.12500598706E+03 0.  0.
          4    1    3    3  501    0  0.47602444935E+02  0.24320970616E+02 -0.41253114369E+02  0.67540538350E+02  0.15500000000E+01 0.  1.
         -4    1    3    3    0  501 -0.47602444935E+02 -0.24320970616E+02 -0.16696242856E+03  0.17531787538E+03  0.15500000000E+01 0.  1.
<mgrwt>
<rscale>  2 0.12500599E+03</rscale>
<asrwt>0</asrwt>
<pdfrwt beam="1">  1       21 0.26648363E-02 0.12500599E+03</pdfrwt>
<pdfrwt beam="2">  1       21 0.34697995E-01 0.12500599E+03</pdfrwt>
<totfact> 0.60548009E+06</totfact>
</mgrwt>
</event>
<event>
 5    0  0.1538270E+000  0.1249977E+03  0.7546771E-02  0.1235073E+00
         21   -1    0    0  503  502  0.00000000000E+00  0.00000000000E+00  0.29195038044E+02  0.29195038044E+02  0.00000000000E+00 0. -1.
         21   -1    0    0  502  503 -0.00000000000E+00 -0.00000000000E+00 -0.13379359601E+03  0.13379359601E+03  0.00000000000E+00 0. -1.
         25    2    1    2    0    0  0.00000000000E+00  0.00000000000E+00 -0.10459855797E+03  0.16298863406E+03  0.12499774599E+03 0.  0.
          4    1    3    3  501    0  0.71004695717E+01 -0.35651684426E+02 -0.11855967986E+03  0.12401717405E+03  0.15500000000E+01 0. -1.
         -4    1    3    3    0  501 -0.71004695717E+01  0.35651684426E+02  0.13961121892E+02  0.38971460007E+02  0.15500000000E+01 0. -1.
<mgrwt>
<rscale>  2 0.12499775E+03</rscale>
<asrwt>0</asrwt>
<pdfrwt beam="1">  1       21 0.44915443E-02 0.12499775E+03</pdfrwt>
<pdfrwt beam="2">  1       21 0.20583630E-01 0.12499775E+03</pdfrwt>
<totfact> 0.69160111E+06</totfact>
</mgrwt>
</event>
<event>
 5    0  0.1427203E+000  0.1249990E+03  0.7546771E-02  0.1235071E+00
         21   -1    0    0  503  502  0.00000000000E+00  0.00000000000E+00  0.17116889515E+03  0.17116889515E+03  0.00000000000E+00 0. -1.
         21   -1    0    0  502  503 -0.00000000000E+00 -0.00000000000E+00 -0.22820654064E+02  0.22820654064E+02  0.00000000000E+00 0. -1.
         25    2    1    2    0    0  0.00000000000E+00  0.00000000000E+00  0.14834824108E+03  0.19398954921E+03  0.12499897828E+03 0.  0.
          4    1    3    3  501    0  0.16614791674E+02 -0.34856050031E+02 -0.20568524930E+01  0.38699207593E+02  0.15500000000E+01 0. -1.
         -4    1    3    3    0  501 -0.16614791674E+02  0.34856050031E+02  0.15040509358E+03  0.15529034162E+03  0.15500000000E+01 0. -1.
<mgrwt>
<rscale>  2 0.12499898E+03</rscale>
<asrwt>0</asrwt>
<pdfrwt beam="1">  1       21 0.26333675E-01 0.12499898E+03</pdfrwt>
<pdfrwt beam="2">  1       21 0.35108700E-02 0.12499898E+03</pdfrwt>
<totfact> 0.65583481E+06</totfact>
</mgrwt>
</event>
<event>
 5    0  0.1543554E+000  0.1250015E+03  0.7546771E-02  0.1235067E+00
         21   -1    0    0  503  502  0.00000000000E+00  0.00000000000E+00  0.31563492404E+02  0.31563492404E+02  0.00000000000E+00 0. -1.
         21   -1    0    0  502  503 -0.00000000000E+00 -0.00000000000E+00 -0.12376136315E+03  0.12376136315E+03  0.00000000000E+00 0. -1.
         25    2    1    2    0    0  0.00000000000E+00  0.00000000000E+00 -0.92197870748E+02  0.15532485556E+03  0.12500145352E+03 0.  0.
          4    1    3    3  501    0  0.41089754341E+02  0.41137571884E+02 -0.74523188907E+02  0.94534522357E+02  0.15500000000E+01 0.  1.
         -4    1    3    3    0  501 -0.41089754341E+02 -0.41137571884E+02 -0.17674681841E+02  0.60790333199E+02  0.15500000000E+01 0.  1.
<mgrwt>
<rscale>  2 0.12500145E+03</rscale>
<asrwt>0</asrwt>
<pdfrwt beam="1">  1       21 0.48559220E-02 0.12500145E+03</pdfrwt>
<pdfrwt beam="2">  1       21 0.19040210E-01 0.12500145E+03</pdfrwt>
<totfact> 0.70092715E+06</totfact>
</mgrwt>
</event>
<event>
 5    0  0.1537827E+000  0.1249988E+03  0.7546771E-02  0.1235071E+00
         21   -1    0    0  503  502  0.00000000000E+00  0.00000000000E+00  0.69598725748E+02  0.69598725748E+02  0.00000000000E+00 0.  1.
         21   -1    0    0  502  503 -0.00000000000E+00 -0.00000000000E+00 -0.56124261647E+02  0.56124261647E+02  0.00000000000E+00 0.  1.
         25    2    1    2    0    0  0.00000000000E+00  0.00000000000E+00  0.13474464101E+02  0.12572298740E+03  0.12499883350E+03 0.  0.
          4    1    3    3  501    0  0.59072684604E+02 -0.19821397271E+02  0.20947863642E+01  0.62363935781E+02  0.15500000000E+01 0. -1.
         -4    1    3    3    0  501 -0.59072684604E+02  0.19821397271E+02  0.11379677737E+02  0.63359051615E+02  0.15500000000E+01 0. -1.
<mgrwt>
<rscale>  2 0.12499883E+03</rscale>
<asrwt>0</asrwt>
<pdfrwt beam="1">  1       21 0.10707496E-01 0.12499883E+03</pdfrwt>
<pdfrwt beam="2">  1       21 0.86345018E-02 0.12499883E+03</pdfrwt>
<totfact> 0.73946546E+06</totfact>
</mgrwt>
</event>
<event>
 5    0  0.1573235E+000  0.1249784E+03  0.7546771E-02  0.1235103E+00
         21   -1    0    0  503  502  0.00000000000E+00  0.00000000000E+00  0.22040335081E+02  0.22040335081E+02  0.00000000000E+00 0. -1.
         21   -1    0    0  502  503 -0.00000000000E+00 -0.00000000000E+00 -0.17717074706E+03  0.17717074706E+03  0.00000000000E+00 0. -1.
         25    2    1    2    0    0  0.00000000000E+00  0.00000000000E+00 -0.15513041198E+03  0.19921108214E+03  0.12497844025E+03 0.  0.
          4    1    3    3  501    0  0.12358935614E+02 -0.60682134717E+02 -0.64475729987E+02  0.89412454506E+02  0.15500000000E+01 0. -1.
         -4    1    3    3    0  501 -0.12358935614E+02  0.60682134717E+02 -0.90654681988E+02  0.10979862763E+03  0.15500000000E+01 0. -1.
<mgrwt>
<rscale>  2 0.12497844E+03</rscale>
<asrwt>0</asrwt>
<pdfrwt beam="1">  1       21 0.33908208E-02 0.12497844E+03</pdfrwt>
<pdfrwt beam="2">  1       21 0.27257038E-01 0.12497844E+03</pdfrwt>
<totfact> 0.65048336E+06</totfact>
</mgrwt>
</event>
<event>
 5    0  0.1381188E+000  0.1250005E+03  0.7546771E-02  0.1235068E+00
         21   -1    0    0  503  502  0.00000000000E+00  0.00000000000E+00  0.39347345123E+03  0.39347345123E+03  0.00000000000E+00 0.  1.
         21   -1    0    0  502  503 -0.00000000000E+00 -0.00000000000E+00 -0.99276906518E+01  0.99276906518E+01  0.00000000000E+00 0.  1.
         25    2    1    2    0    0  0.00000000000E+00  0.00000000000E+00  0.38354576058E+03  0.40340114188E+03  0.12500052326E+03 0.  0.
          4    1    3    3  501    0  0.49575009960E+02  0.20761219678E+02  0.29459694180E+03  0.29946363798E+03  0.15500000000E+01 0. -1.
         -4    1    3    3    0  501 -0.49575009960E+02 -0.20761219678E+02  0.88948818779E+02  0.10393750390E+03  0.15500000000E+01 0. -1.
<mgrwt>
<rscale>  2 0.12500052E+03</rscale>
<asrwt>0</asrwt>
<pdfrwt beam="1">  1       21 0.60534365E-01 0.12500052E+03</pdfrwt>
<pdfrwt beam="2">  1       21 0.15273373E-02 0.12500052E+03</pdfrwt>
<totfact> 0.47815952E+06</totfact>
</mgrwt>
</event>
<event>
 5    0  0.1273427E+000  0.1250016E+03  0.7546771E-02  0.1235067E+00
         21   -1    0    0  503  502  0.00000000000E+00  0.00000000000E+00  0.63163326237E+01  0.63163326237E+01  0.00000000000E+00 0.  1.
         21   -1    0    0  502  503 -0.00000000000E+00 -0.00000000000E+00 -0.61845193125E+03  0.61845193125E+03  0.00000000000E+00 0.  1.
         25    2    1    2    0    0  0.00000000000E+00  0.00000000000E+00 -0.61213559863E+03  0.62476826387E+03  0.12500156974E+03 0.  0.
          4    1    3    3  501    0 -0.47726355829E+01  0.52141288018E+02 -0.13565927510E+03  0.14542122743E+03  0.15500000000E+01 0. -1.
         -4    1    3    3    0  501  0.47726355829E+01 -0.52141288018E+02 -0.47647632352E+03  0.47934703644E+03  0.15500000000E+01 0. -1.
<mgrwt>
<rscale>  2 0.12500157E+03</rscale>
<asrwt>0</asrwt>
<pdfrwt beam="1">  1       21 0.97174354E-03 0.12500157E+03</pdfrwt>
<pdfrwt beam="2">  1       21 0.95146445E-01 0.12500157E+03</pdfrwt>
<totfact> 0.35994543E+06</totfact>
</mgrwt>
</event>
<event>
 5    0  0.1584968E+000  0.1250010E+03  0.7546771E-02  0.1235068E+00
         21   -1    0    0  503  502  0.00000000000E+00  0.00000000000E+00  0.64011582670E+02  0.64011582670E+02  0.00000000000E+00 0. -1.
         21   -1    0    0  502  503 -0.00000000000E+00 -0.00000000000E+00 -0.61025117485E+02  0.61025117485E+02  0.00000000000E+00 0. -1.
         25    2    1    2    0    0  0.00000000000E+00  0.00000000000E+00  0.29864651846E+01  0.12503670016E+03  0.12500102964E+03 0.  0.
          4    1    3    3  501    0 -0.17467254127E+02 -0.51233916158E+02 -0.29722927069E+02  0.61772761191E+02  0.15500000000E+01 0.  1.
         -4    1    3    3    0  501  0.17467254127E+02  0.51233916158E+02  0.32709392253E+02  0.63263938964E+02  0.15500000000E+01 0.  1.
<mgrwt>
<rscale>  2 0.12500103E+03</rscale>
<asrwt>0</asrwt>
<pdfrwt beam="1">  1       21 0.98479358E-02 0.12500103E+03</pdfrwt>
<pdfrwt beam="2">  1       21 0.93884796E-02 0.12500103E+03</pdfrwt>
<totfact> 0.74036675E+06</totfact>
</mgrwt>
</event>
<event>
 5    0  0.1563390E+000  0.1250111E+03  0.7546771E-02  0.1235052E+00
         21   -1    0    0  503  502  0.00000000000E+00  0.00000000000E+00  0.10950919748E+03  0.10950919748E+03  0.00000000000E+00 0.  1.
         21   -1    0    0  502  503 -0.00000000000E+00 -0.00000000000E+00 -0.35676834386E+02  0.35676834386E+02  0.00000000000E+00 0.  1.
         25    2    1    2    0    0  0.00000000000E+00  0.00000000000E+00  0.73832363093E+02  0.14518603187E+03  0.12501106355E+03 0.  0.
          4    1    3    3  501    0 -0.55304641684E+02  0.11890355717E+02  0.67743365361E+02  0.88269757003E+02  0.15500000000E+01 0.  1.
         -4    1    3    3    0  501  0.55304641684E+02 -0.11890355717E+02  0.60889977320E+01  0.56916274863E+02  0.15500000000E+01 0.  1.
<mgrwt>
<rscale>  2 0.12501106E+03</rscale>
<asrwt>0</asrwt>
<pdfrwt beam="1">  1       21 0.16847569E-01 0.12501106E+03</pdfrwt>
<pdfrwt beam="2">  1       21 0.54887438E-02 0.12501106E+03</pdfrwt>
<totfact> 0.71349195E+06</totfact>
</mgrwt>
</event>
<event>
 5    0  0.1469442E+000  0.1250006E+03  0.7546771E-02  0.1235068E+00
         21   -1    0    0  503  502  0.00000000000E+00  0.00000000000E+00  0.24756220379E+02  0.24756220379E+02  0.00000000000E+00 0. -1.
         21   -1    0    0  502  503 -0.00000000000E+00 -0.00000000000E+00 -0.15779003178E+03  0.15779003178E+03  0.00000000000E+00 0. -1.
         25    2    1    2    0    0  0.00000000000E+00  0.00000000000E+00 -0.13303381140E+03  0.18254625216E+03  0.12500055680E+03 0.  0.
          4    1    3    3  501    0 -0.10630452336E+02 -0.36189979797E+02 -0.13925944531E+03  0.14428553899E+03  0.15500000000E+01 0. -1.
         -4    1    3    3    0  501  0.10630452336E+02  0.36189979797E+02  0.62256339065E+01  0.38260713167E+02  0.15500000000E+01 0. -1.
<mgrwt>
<rscale>  2 0.12500056E+03</rscale>
<asrwt>0</asrwt>
<pdfrwt beam="1">  1       21 0.38086492E-02 0.12500056E+03</pdfrwt>
<pdfrwt beam="2">  1       21 0.24275390E-01 0.12500056E+03</pdfrwt>
<totfact> 0.66859688E+06</totfact>
</mgrwt>
</event>
<event>
 5    0  0.1222151E+000  0.1249852E+03  0.7546771E-02  0.1235092E+00
         21   -1    0    0  503  502  0.00000000000E+00  0.00000000000E+00  0.52430920399E+01  0.52430920399E+01  0.00000000000E+00 0. -1.
         21   -1    0    0  502  503 -0.00000000000E+00 -0.00000000000E+00 -0.74485169022E+03  0.74485169022E+03  0.00000000000E+00 0. -1.
         25    2    1    2    0    0  0.00000000000E+00  0.00000000000E+00 -0.73960859818E+03  0.75009478226E+03  0.12498521461E+03 0.  0.
          4    1    3    3  501    0  0.32183635414E+01  0.30964143584E+02 -0.69487050695E+03  0.69556923450E+03  0.15500000000E+01 0. -1.
         -4    1    3    3    0  501 -0.32183635414E+01 -0.30964143584E+02 -0.44738091231E+02  0.54525547762E+02  0.15500000000E+01 0. -1.
<mgrwt>
<rscale>  2 0.12498521E+03</rscale>
<asrwt>0</asrwt>
<pdfrwt beam="1">  1       21 0.80663015E-03 0.12498521E+03</pdfrwt>
<pdfrwt beam="2">  1       21 0.11459248E+00 0.12498521E+03</pdfrwt>
<totfact> 0.31076928E+06</totfact>
</mgrwt>
</event>
<event>
 5    0  0.1341599E+000  0.1249996E+03  0.7546771E-02  0.1235070E+00
         21   -1    0    0  503  502  0.00000000000E+00  0.00000000000E+00  0.46668269900E+03  0.46668269900E+03  0.00000000000E+00 0.  1.
         21   -1    0    0  502  503 -0.00000000000E+00 -0.00000000000E+00 -0.83701940711E+01  0.83701940711E+01  0.00000000000E+00 0.  1.
         25    2    1    2    0    0  0.00000000000E+00  0.00000000000E+00  0.45831250493E+03  0.47505289307E+03  0.12499959616E+03 0.  0.
          4    1    3    3  501    0  0.56461769822E+02 -0.23762770586E+01  0.12787310718E+03  0.13981241784E+03  0.15500000000E+01 0.  1.
         -4    1    3    3    0  501 -0.56461769822E+02  0.23762770586E+01  0.33043939776E+03  0.33524047523E+03  0.15500000000E+01 0.  1.
<mgrwt>
<rscale>  2 0.12499960E+03</rscale>
<asrwt>0</asrwt>
<pdfrwt beam="1">  1       21 0.71797318E-01 0.12499960E+03</pdfrwt>
<pdfrwt beam="2">  1       21 0.12877225E-02 0.12499960E+03</pdfrwt>
<totfact> 0.43430589E+06</totfact>
</mgrwt>
</event>
<event>
 5    0  0.1321627E+000  0.1250041E+03  0.7546771E-02  0.1235063E+00
         21   -1    0    0  503  502  0.00000000000E+00  0.00000000000E+00  0.75012689087E+01  0.75012689087E+01  0.00000000000E+00 0.  1.
         21   -1    0    0  502  503 -0.00000000000E+00 -0.00000000000E+00 -0.52077977555E+03  0.52077977555E+03  0.00000000000E+00 0.  1.
         25    2    1    2    0    0  0.00000000000E+00  0.00000000000E+00 -0.51327850664E+03  0.52828104446E+03  0.12500414615E+03 0.  0.
          4    1    3    3  501    0 -0.39676612041E+02 -0.99493408987E+01 -0.57030732624E+02  0.70200640246E+02  0.15500000000E+01 0.  1.
         -4    1    3    3    0  501  0.39676612041E+02  0.99493408987E+01 -0.45624777402E+03  0.45808040421E+03  0.15500000000E+01 0.  1.
<mgrwt>
<rscale>  2 0.12500415E+03</rscale>
<asrwt>0</asrwt>
<pdfrwt beam="1">  1       21 0.11540413E-02 0.12500415E+03</pdfrwt>
<pdfrwt beam="2">  1       21 0.80119970E-01 0.12500415E+03</pdfrwt>
<totfact> 0.40546533E+06</totfact>
</mgrwt>
</event>
<event>
 5    0  0.1547655E+000  0.1250013E+03  0.7546771E-02  0.1235067E+00
         21   -1    0    0  503  502  0.00000000000E+00  0.00000000000E+00  0.95530922089E+02  0.95530922089E+02  0.00000000000E+00 0.  1.
         21   -1    0    0  502  503 -0.00000000000E+00 -0.00000000000E+00 -0.40890764985E+02  0.40890764985E+02  0.00000000000E+00 0.  1.
         25    2    1    2    0    0  0.00000000000E+00  0.00000000000E+00  0.54640157104E+02  0.13642168707E+03  0.12500131974E+03 0.  0.
          4    1    3    3  501    0 -0.38943498742E+02  0.46686508069E+02  0.11591441340E+02  0.61911147157E+02  0.15500000000E+01 0.  1.
         -4    1    3    3    0  501  0.38943498742E+02 -0.46686508069E+02  0.43048715764E+02  0.74510539918E+02  0.15500000000E+01 0.  1.
<mgrwt>
<rscale>  2 0.12500132E+03</rscale>
<asrwt>0</asrwt>
<pdfrwt beam="1">  1       21 0.14697065E-01 0.12500132E+03</pdfrwt>
<pdfrwt beam="2">  1       21 0.62908870E-02 0.12500132E+03</pdfrwt>
<totfact> 0.72506334E+06</totfact>
</mgrwt>
</event>
<event>
 5    0  0.1222151E+000  0.1249955E+03  0.7546771E-02  0.1235076E+00
         21   -1    0    0  503  502  0.00000000000E+00  0.00000000000E+00  0.53830219791E+03  0.53830219791E+03  0.00000000000E+00 0. -1.
         21   -1    0    0  502  503 -0.00000000000E+00 -0.00000000000E+00 -0.72560903279E+01  0.72560903279E+01  0.00000000000E+00 0. -1.
         25    2    1    2    0    0  0.00000000000E+00  0.00000000000E+00  0.53104610758E+03  0.54555828823E+03  0.12499550987E+03 0.  0.
          4    1    3    3  501    0  0.19929747866E+02  0.63134324389E+01  0.85467153468E+01  0.22638531807E+02  0.15500000000E+01 0.  1.
         -4    1    3    3    0  501 -0.19929747866E+02 -0.63134324389E+01  0.52249939223E+03  0.52291975643E+03  0.15500000000E+01 0.  1.
<mgrwt>
<rscale>  2 0.12499551E+03</rscale>
<asrwt>0</asrwt>
<pdfrwt beam="1">  1       21 0.82815691E-01 0.12499551E+03</pdfrwt>
<pdfrwt beam="2">  1       21 0.11163220E-02 0.12499551E+03</pdfrwt>
<totfact> 0.39680867E+06</totfact>
</mgrwt>
</event>
<event>
 5    0  0.1333981E+000  0.1250038E+03  0.7546771E-02  0.1235063E+00
         21   -1    0    0  503  502  0.00000000000E+00  0.00000000000E+00  0.54501609670E+03  0.54501609670E+03  0.00000000000E+00 0.  1.
         21   -1    0    0  502  503 -0.00000000000E+00 -0.00000000000E+00 -0.71676571852E+01  0.71676571852E+01  0.00000000000E+00 0.  1.
         25    2    1    2    0    0  0.00000000000E+00  0.00000000000E+00  0.53784843952E+03  0.55218375389E+03  0.12500381661E+03 0.  0.
          4    1    3    3  501    0  0.27014217541E+02  0.44889050949E+02  0.11852117754E+03  0.12959346769E+03  0.15500000000E+01 0.  1.
         -4    1    3    3    0  501 -0.27014217541E+02 -0.44889050949E+02  0.41932726198E+03  0.42259028620E+03  0.15500000000E+01 0.  1.
<mgrwt>
<rscale>  2 0.12500382E+03</rscale>
<asrwt>0</asrwt>
<pdfrwt beam="1">  1       21 0.83848598E-01 0.12500382E+03</pdfrwt>
<pdfrwt beam="2">  1       21 0.11027169E-02 0.12500382E+03</pdfrwt>
<totfact> 0.39344663E+06</totfact>
</mgrwt>
</event>
<event>
 5    0  0.1504013E+000  0.1250021E+03  0.7546771E-02  0.1235066E+00
         21   -1    0    0  503  502  0.00000000000E+00  0.00000000000E+00  0.11224997471E+03  0.11224997471E+03  0.00000000000E+00 0. -1.
         21   -1    0    0  502  503 -0.00000000000E+00 -0.00000000000E+00 -0.34800717556E+02  0.34800717556E+02  0.00000000000E+00 0. -1.
         25    2    1    2    0    0  0.00000000000E+00  0.00000000000E+00  0.77449257154E+02  0.14705069227E+03  0.12500207463E+03 0.  0.
          4    1    3    3  501    0 -0.55901452145E+02 -0.17182979434E+02  0.12850820313E+02  0.59898023480E+02  0.15500000000E+01 0. -1.
         -4    1    3    3    0  501  0.55901452145E+02  0.17182979434E+02  0.64598436841E+02  0.87152668785E+02  0.15500000000E+01 0. -1.
<mgrwt>
<rscale>  2 0.12500207E+03</rscale>
<asrwt>0</asrwt>
<pdfrwt beam="1">  1       21 0.17269227E-01 0.12500207E+03</pdfrwt>
<pdfrwt beam="2">  1       21 0.53539566E-02 0.12500207E+03</pdfrwt>
<totfact> 0.71127927E+06</totfact>
</mgrwt>
</event>
<event>
 5    0  0.1222151E+000  0.1250018E+03  0.7546771E-02  0.1235066E+00
         21   -1    0    0  503  502  0.00000000000E+00  0.00000000000E+00  0.15382046829E+04  0.15382046829E+04  0.00000000000E+00 0.  1.
         21   -1    0    0  502  503 -0.00000000000E+00 -0.00000000000E+00 -0.25395611438E+01  0.25395611438E+01  0.00000000000E+00 0.  1.
         25    2    1    2    0    0  0.00000000000E+00  0.00000000000E+00  0.15356651217E+04  0.15407442440E+04  0.12500183749E+03 0.  0.
          4    1    3    3  501    0  0.41910951767E+01 -0.43993900041E+02  0.22341086245E+03  0.22774513053E+03  0.15500000000E+01 0.  1.
         -4    1    3    3    0  501 -0.41910951767E+01  0.43993900041E+02  0.13122542593E+04  0.13129991135E+04  0.15500000000E+01 0.  1.
<mgrwt>
<rscale>  2 0.12500184E+03</rscale>
<asrwt>0</asrwt>
<pdfrwt beam="1">  1       21 0.23664613E+00 0.12500184E+03</pdfrwt>
<pdfrwt beam="2">  1       21 0.39070294E-03 0.12500184E+03</pdfrwt>
<totfact> 0.13398758E+06</totfact>
</mgrwt>
</event>
<event>
 5    0  0.1365768E+000  0.1249984E+03  0.7546771E-02  0.1235072E+00
         21   -1    0    0  503  502  0.00000000000E+00  0.00000000000E+00  0.70603331958E+01  0.70603331958E+01  0.00000000000E+00 0.  1.
         21   -1    0    0  502  503 -0.00000000000E+00 -0.00000000000E+00 -0.55325314396E+03  0.55325314396E+03  0.00000000000E+00 0.  1.
         25    2    1    2    0    0  0.00000000000E+00  0.00000000000E+00 -0.54619281077E+03  0.56031347716E+03  0.12499842460E+03 0.  0.
          4    1    3    3  501    0  0.47320267426E+02  0.38695012378E+02 -0.21512775861E+03  0.22364898104E+03  0.15500000000E+01 0. -1.
         -4    1    3    3    0  501 -0.47320267426E+02 -0.38695012378E+02 -0.33106505215E+03  0.33666449612E+03  0.15500000000E+01 0. -1.
<mgrwt>
<rscale>  2 0.12499842E+03</rscale>
<asrwt>0</asrwt>
<pdfrwt beam="1">  1       21 0.10862050E-02 0.12499842E+03</pdfrwt>
<pdfrwt beam="2">  1       21 0.85115873E-01 0.12499842E+03</pdfrwt>
<totfact> 0.38952724E+06</totfact>
</mgrwt>
</event>
<event>
 5    0  0.1341056E+000  0.1249934E+03  0.7546771E-02  0.1235080E+00
         21   -1    0    0  503  502  0.00000000000E+00  0.00000000000E+00  0.28941288456E+03  0.28941288456E+03  0.00000000000E+00 0.  1.
         21   -1    0    0  502  503 -0.00000000000E+00 -0.00000000000E+00 -0.13495719845E+02  0.13495719845E+02  0.00000000000E+00 0.  1.
         25    2    1    2    0    0  0.00000000000E+00  0.00000000000E+00  0.27591716472E+03  0.30290860441E+03  0.12499336318E+03 0.  0.
          4    1    3    3  501    0 -0.20360877334E+02 -0.28303145375E+02  0.26359717944E+03  0.26589755334E+03  0.15500000000E+01 0. -1.
         -4    1    3    3    0  501  0.20360877334E+02  0.28303145375E+02  0.12319985279E+02  0.37011051069E+02  0.15500000000E+01 0. -1.
<mgrwt>
<rscale>  2 0.12499336E+03</rscale>
<asrwt>0</asrwt>
<pdfrwt beam="1">  1       21 0.44525054E-01 0.12499336E+03</pdfrwt>
<pdfrwt beam="2">  1       21 0.20762648E-02 0.12499336E+03</pdfrwt>
<totfact> 0.55224529E+06</totfact>
</mgrwt>
</event>
<event>
 5    0  0.1222151E+000  0.1250015E+03  0.7546771E-02  0.1235067E+00
         21   -1    0    0  503  502  0.00000000000E+00  0.00000000000E+00  0.92952654148E+03  0.92952654148E+03  0.00000000000E+00 0.  1.
         21   -1    0    0  502  503 -0.00000000000E+00 -0.00000000000E+00 -0.42025058818E+01  0.42025058818E+01  0.00000000000E+00 0.  1.
         25    2    1    2    0    0  0.00000000000E+00  0.00000000000E+00  0.92532403560E+03  0.93372904736E+03  0.12500145212E+03 0.  0.
          4    1    3    3  501    0  0.77826213654E+01 -0.59694458607E+02  0.58764152658E+03  0.59071902276E+03  0.15500000000E+01 0. -1.
         -4    1    3    3    0  501 -0.77826213654E+01  0.59694458607E+02  0.33768250902E+03  0.34301002460E+03  0.15500000000E+01 0. -1.
<mgrwt>
<rscale>  2 0.12500145E+03</rscale>
<asrwt>0</asrwt>
<pdfrwt beam="1">  1       21 0.14300392E+00 0.12500145E+03</pdfrwt>
<pdfrwt beam="2">  1       21 0.64654010E-03 0.12500145E+03</pdfrwt>
<totfact> 0.25351277E+06</totfact>
</mgrwt>
</event>
<event>
 5    0  0.1222151E+000  0.1250017E+03  0.7546771E-02  0.1235067E+00
         21   -1    0    0  503  502  0.00000000000E+00  0.00000000000E+00  0.89848087597E+01  0.89848087597E+01  0.00000000000E+00 0.  1.
         21   -1    0    0  502  503 -0.00000000000E+00 -0.00000000000E+00 -0.43477367875E+03  0.43477367875E+03  0.00000000000E+00 0.  1.
         25    2    1    2    0    0  0.00000000000E+00  0.00000000000E+00 -0.42578886999E+03  0.44375848751E+03  0.12500173370E+03 0.  0.
          4    1    3    3  501    0 -0.43054876871E+02 -0.50624207853E+01 -0.53159163529E+02  0.68612314446E+02  0.15500000000E+01 0. -1.
         -4    1    3    3    0  501  0.43054876871E+02  0.50624207853E+01 -0.37262970646E+03  0.37514617306E+03  0.15500000000E+01 0. -1.
<mgrwt>
<rscale>  2 0.12500173E+03</rscale>
<asrwt>0</asrwt>
<pdfrwt beam="1">  1       21 0.13822787E-02 0.12500173E+03</pdfrwt>
<pdfrwt beam="2">  1       21 0.66888238E-01 0.12500173E+03</pdfrwt>
<totfact> 0.45266166E+06</totfact>
</mgrwt>
</event>
<event>
 5    0  0.1222151E+000  0.1249711E+03  0.7546771E-02  0.1235114E+00
         21   -1    0    0  503  502  0.00000000000E+00  0.00000000000E+00  0.28999632675E+04  0.28999632675E+04  0.00000000000E+00 0.  1.
         21   -1    0    0  502  503 -0.00000000000E+00 -0.00000000000E+00 -0.13463774648E+01  0.13463774648E+01  0.00000000000E+00 0.  1.
         25    2    1    2    0    0  0.00000000000E+00  0.00000000000E+00  0.28986168900E+04  0.29013096450E+04  0.12497111974E+03 0.  0.
          4    1    3    3  501    0 -0.20617708722E+02 -0.55549553423E+02  0.19084893130E+04  0.19094095169E+04  0.15500000000E+01 0.  1.
         -4    1    3    3    0  501  0.20617708722E+02  0.55549553423E+02  0.99012757703E+03  0.99190012808E+03  0.15500000000E+01 0.  1.
<mgrwt>
<rscale>  2 0.12497112E+03</rscale>
<asrwt>0</asrwt>
<pdfrwt beam="1">  1       21 0.44614320E+00 0.12497112E+03</pdfrwt>
<pdfrwt beam="2">  1       21 0.20713732E-03 0.12497112E+03</pdfrwt>
<totfact> 0.20790083E+05</totfact>
</mgrwt>
</event>
<event>
 5    0  0.1438848E+000  0.1249968E+03  0.7546771E-02  0.1235074E+00
         21   -1    0    0  503  502  0.00000000000E+00  0.00000000000E+00  0.24227349924E+02  0.24227349924E+02  0.00000000000E+00 0. -1.
         21   -1    0    0  502  503 -0.00000000000E+00 -0.00000000000E+00 -0.16122482715E+03  0.16122482715E+03  0.00000000000E+00 0. -1.
         25    2    1    2    0    0  0.00000000000E+00  0.00000000000E+00 -0.13699747723E+03  0.18545217708E+03  0.12499680482E+03 0.  0.
          4    1    3    3  501    0  0.31613550718E+02 -0.28102427930E+02 -0.27503312017E+00  0.42327782694E+02  0.15500000000E+01 0. -1.
         -4    1    3    3    0  501 -0.31613550718E+02  0.28102427930E+02 -0.13672244411E+03  0.14312439438E+03  0.15500000000E+01 0. -1.
<mgrwt>
<rscale>  2 0.12499680E+03</rscale>
<asrwt>0</asrwt>
<pdfrwt beam="1">  1       21 0.37272846E-02 0.12499680E+03</pdfrwt>
<pdfrwt beam="2">  1       21 0.24803820E-01 0.12499680E+03</pdfrwt>
<totfact> 0.66536906E+06</totfact>
</mgrwt>
</event>
<event>
 5    0  0.1357817E+000  0.1249982E+03  0.7546771E-02  0.1235072E+00
         21   -1    0    0  503  502  0.00000000000E+00  0.00000000000E+00  0.62303899017E+03  0.62303899017E+03  0.00000000000E+00 0.  1.
         21   -1    0    0  502  503 -0.00000000000E+00 -0.00000000000E+00 -0.62694948575E+01  0.62694948575E+01  0.00000000000E+00 0.  1.
         25    2    1    2    0    0  0.00000000000E+00  0.00000000000E+00  0.61676949531E+03  0.62930848503E+03  0.12499823591E+03 0.  0.
          4    1    3    3  501    0  0.11637595858E+02  0.57423800459E+02  0.41762504864E+03  0.42171792735E+03  0.15500000000E+01 0. -1.
         -4    1    3    3    0  501 -0.11637595858E+02 -0.57423800459E+02  0.19914444667E+03  0.20759055768E+03  0.15500000000E+01 0. -1.
<mgrwt>
<rscale>  2 0.12499824E+03</rscale>
<asrwt>0</asrwt>
<pdfrwt beam="1">  1       21 0.95852103E-01 0.12499824E+03</pdfrwt>
<pdfrwt beam="2">  1       21 0.96453817E-03 0.12499824E+03</pdfrwt>
<totfact> 0.35801442E+06</totfact>
</mgrwt>
</event>
<event>
 5    0  0.1412984E+000  0.1250098E+03  0.7546771E-02  0.1235054E+00
         21   -1    0    0  503  502  0.00000000000E+00  0.00000000000E+00  0.31369965803E+03  0.31369965803E+03  0.00000000000E+00 0.  1.
         21   -1    0    0  502  503 -0.00000000000E+00 -0.00000000000E+00 -0.12454155987E+02  0.12454155987E+02  0.00000000000E+00 0.  1.
         25    2    1    2    0    0  0.00000000000E+00  0.00000000000E+00  0.30124550204E+03  0.32615381402E+03  0.12500983120E+03 0.  0.
          4    1    3    3  501    0  0.23909063759E+02 -0.11878432110E+02  0.32250238282E+01  0.26935919474E+02  0.15500000000E+01 0. -1.
         -4    1    3    3    0  501 -0.23909063759E+02  0.11878432110E+02  0.29802047821E+03  0.29921789454E+03  0.15500000000E+01 0. -1.
<mgrwt>
<rscale>  2 0.12500983E+03</rscale>
<asrwt>0</asrwt>
<pdfrwt beam="1">  1       21 0.48261480E-01 0.12500983E+03</pdfrwt>
<pdfrwt beam="2">  1       21 0.19160242E-02 0.12500983E+03</pdfrwt>
<totfact> 0.53336109E+06</totfact>
</mgrwt>
</event>
<event>
 5    0  0.1426702E+000  0.1250002E+03  0.7546771E-02  0.1235069E+00
         21   -1    0    0  503  502  0.00000000000E+00  0.00000000000E+00  0.36100654525E+03  0.36100654525E+03  0.00000000000E+00 0. -1.
         21   -1    0    0  502  503 -0.00000000000E+00 -0.00000000000E+00 -0.10820473194E+02  0.10820473194E+02  0.00000000000E+00 0. -1.
         25    2    1    2    0    0  0.00000000000E+00  0.00000000000E+00  0.35018607205E+03  0.37182701844E+03  0.12500018633E+03 0.  0.
          4    1    3    3  501    0 -0.32554864253E+02 -0.51872408905E+02  0.21192218326E+03  0.22059913928E+03  0.15500000000E+01 0.  1.
         -4    1    3    3    0  501  0.32554864253E+02  0.51872408905E+02  0.13826388879E+03  0.15122787916E+03  0.15500000000E+01 0.  1.
<mgrwt>
<rscale>  2 0.12500019E+03</rscale>
<asrwt>0</asrwt>
<pdfrwt beam="1">  1       21 0.55539459E-01 0.12500019E+03</pdfrwt>
<pdfrwt beam="2">  1       21 0.16646885E-02 0.12500019E+03</pdfrwt>
<totfact> 0.49965518E+06</totfact>
</mgrwt>
</event>
<event>
 5    0  0.1536529E+000  0.1249921E+03  0.7546771E-02  0.1235082E+00
         21   -1    0    0  503  502  0.00000000000E+00  0.00000000000E+00  0.39708142990E+02  0.39708142990E+02  0.00000000000E+00 0. -1.
         21   -1    0    0  502  503 -0.00000000000E+00 -0.00000000000E+00 -0.98361609936E+02  0.98361609936E+02  0.00000000000E+00 0. -1.
         25    2    1    2    0    0  0.00000000000E+00  0.00000000000E+00 -0.58653466946E+02  0.13806975293E+03  0.12499210970E+03 0.  0.
          4    1    3    3  501    0 -0.58548607853E+02  0.12586272246E+02 -0.96593756286E+01  0.60679978313E+02  0.15500000000E+01 0. -1.
         -4    1    3    3    0  501  0.58548607853E+02 -0.12586272246E+02 -0.48994091318E+02  0.77389774612E+02  0.15500000000E+01 0. -1.
<mgrwt>
<rscale>  2 0.12499211E+03</rscale>
<asrwt>0</asrwt>
<pdfrwt beam="1">  1       21 0.61089451E-02 0.12499211E+03</pdfrwt>
<pdfrwt beam="2">  1       21 0.15132555E-01 0.12499211E+03</pdfrwt>
<totfact> 0.72306847E+06</totfact>
</mgrwt>
</event>
<event>
 5    0  0.1624385E+000  0.1250012E+03  0.7546771E-02  0.1235067E+00
         21   -1    0    0  503  502  0.00000000000E+00  0.00000000000E+00  0.18911182536E+03  0.18911182536E+03  0.00000000000E+00 0. -1.
         21   -1    0    0  502  503 -0.00000000000E+00 -0.00000000000E+00 -0.20656172259E+02  0.20656172259E+02  0.00000000000E+00 0. -1.
         25    2    1    2    0    0  0.00000000000E+00  0.00000000000E+00  0.16845565310E+03  0.20976799762E+03  0.12500122305E+03 0.  0.
          4    1    3    3  501    0 -0.13111110984E+02 -0.60652429030E+02  0.96479946359E+02  0.11472314905E+03  0.15500000000E+01 0.  1.
         -4    1    3    3    0  501  0.13111110984E+02  0.60652429030E+02  0.71975706738E+02  0.95044848565E+02  0.15500000000E+01 0.  1.
<mgrwt>
<rscale>  2 0.12500122E+03</rscale>
<asrwt>0</asrwt>
<pdfrwt beam="1">  1       21 0.29094126E-01 0.12500122E+03</pdfrwt>
<pdfrwt beam="2">  1       21 0.31778728E-02 0.12500122E+03</pdfrwt>
<totfact> 0.63881977E+06</totfact>
</mgrwt>
</event>
<event>
 5    0  0.1386242E+000  0.1249986E+03  0.7546771E-02  0.1235072E+00
         21   -1    0    0  503  502  0.00000000000E+00  0.00000000000E+00  0.10322980949E+02  0.10322980949E+02  0.00000000000E+00 0. -1.
         21   -1    0    0  502  503 -0.00000000000E+00 -0.00000000000E+00 -0.37839459710E+03  0.37839459710E+03  0.00000000000E+00 0. -1.
         25    2    1    2    0    0  0.00000000000E+00  0.00000000000E+00 -0.36807161615E+03  0.38871757805E+03  0.12499856346E+03 0.  0.
          4    1    3    3  501    0  0.52813105538E+02  0.29132869954E+02 -0.23473655976E+03  0.24236667101E+03  0.15500000000E+01 0. -1.
         -4    1    3    3    0  501 -0.52813105538E+02 -0.29132869954E+02 -0.13333505639E+03  0.14635090704E+03  0.15500000000E+01 0. -1.
<mgrwt>
<rscale>  2 0.12499856E+03</rscale>
<asrwt>0</asrwt>
<pdfrwt beam="1">  1       21 0.15881512E-02 0.12499856E+03</pdfrwt>
<pdfrwt beam="2">  1       21 0.58214545E-01 0.12499856E+03</pdfrwt>
<totfact> 0.48800573E+06</totfact>
</mgrwt>
</event>
<event>
 5    0  0.1552727E+000  0.1250035E+03  0.7546771E-02  0.1235064E+00
         21   -1    0    0  503  502  0.00000000000E+00  0.00000000000E+00  0.13410160585E+03  0.13410160585E+03  0.00000000000E+00 0.  1.
         21   -1    0    0  502  503 -0.00000000000E+00 -0.00000000000E+00 -0.29130647355E+02  0.29130647355E+02  0.00000000000E+00 0.  1.
         25    2    1    2    0    0  0.00000000000E+00  0.00000000000E+00  0.10497095850E+03  0.16323225321E+03  0.12500346539E+03 0.  0.
          4    1    3    3  501    0  0.52691101620E+02  0.26030859792E+02  0.80189412921E+02  0.99431897779E+02  0.15500000000E+01 0. -1.
         -4    1    3    3    0  501 -0.52691101620E+02 -0.26030859792E+02  0.24781545575E+02  0.63800355427E+02  0.15500000000E+01 0. -1.
<mgrwt>
<rscale>  2 0.12500347E+03</rscale>
<asrwt>0</asrwt>
<pdfrwt beam="1">  1       21 0.20631016E-01 0.12500347E+03</pdfrwt>
<pdfrwt beam="2">  1       21 0.44816381E-02 0.12500347E+03</pdfrwt>
<totfact> 0.69120603E+06</totfact>
</mgrwt>
</event>
<event>
 5    0  0.1512171E+000  0.1249987E+03  0.7546771E-02  0.1235071E+00
         21   -1    0    0  503  502  0.00000000000E+00  0.00000000000E+00  0.21974308277E+02  0.21974308277E+02  0.00000000000E+00 0.  1.
         21   -1    0    0  502  503 -0.00000000000E+00 -0.00000000000E+00 -0.17776080618E+03  0.17776080618E+03  0.00000000000E+00 0.  1.
         25    2    1    2    0    0  0.00000000000E+00  0.00000000000E+00 -0.15578649791E+03  0.19973511446E+03  0.12499873207E+03 0.  0.
          4    1    3    3  501    0 -0.14410499995E+02  0.57928536013E+02 -0.10737392951E+03  0.12286147091E+03  0.15500000000E+01 0. -1.
         -4    1    3    3    0  501  0.14410499995E+02 -0.57928536013E+02 -0.48412568398E+02  0.76873643556E+02  0.15500000000E+01 0. -1.
<mgrwt>
<rscale>  2 0.12499873E+03</rscale>
<asrwt>0</asrwt>
<pdfrwt beam="1">  1       21 0.33806628E-02 0.12499873E+03</pdfrwt>
<pdfrwt beam="2">  1       21 0.27347817E-01 0.12499873E+03</pdfrwt>
<totfact> 0.64958050E+06</totfact>
</mgrwt>
</event>
<event>
 5    0  0.1366608E+000  0.1249920E+03  0.7546771E-02  0.1235082E+00
         21   -1    0    0  503  502  0.00000000000E+00  0.00000000000E+00  0.13348437256E+02  0.13348437256E+02  0.00000000000E+00 0.  1.
         21   -1    0    0  502  503 -0.00000000000E+00 -0.00000000000E+00 -0.29259969548E+03  0.29259969548E+03  0.00000000000E+00 0.  1.
         25    2    1    2    0    0  0.00000000000E+00  0.00000000000E+00 -0.27925125822E+03  0.30594813274E+03  0.12499197856E+03 0.  0.
          4    1    3    3  501    0 -0.53731824023E+02 -0.21155986987E+02 -0.19799601560E+03  0.20625108337E+03  0.15500000000E+01 0. -1.
         -4    1    3    3    0  501  0.53731824023E+02  0.21155986987E+02 -0.81255242626E+02  0.99697049366E+02  0.15500000000E+01 0. -1.
<mgrwt>
<rscale>  2 0.12499198E+03</rscale>
<asrwt>0</asrwt>
<pdfrwt beam="1">  1       21 0.20536060E-02 0.12499198E+03</pdfrwt>
<pdfrwt beam="2">  1       21 0.45015331E-01 0.12499198E+03</pdfrwt>
<totfact> 0.54976533E+06</totfact>
</mgrwt>
</event>
<event>
 5    0  0.1323961E+000  0.1250084E+03  0.7546771E-02  0.1235056E+00
         21   -1    0    0  503  502  0.00000000000E+00  0.00000000000E+00  0.44056216174E+03  0.44056216174E+03  0.00000000000E+00 0.  1.
         21   -1    0    0  502  503 -0.00000000000E+00 -0.00000000000E+00 -0.88677001323E+01  0.88677001323E+01  0.00000000000E+00 0.  1.
         25    2    1    2    0    0  0.00000000000E+00  0.00000000000E+00  0.43169446160E+03  0.44942986187E+03  0.12500836996E+03 0.  0.
          4    1    3    3  501    0  0.35440358818E+02  0.20195175383E+02  0.38602230041E+03  0.38817455230E+03  0.15500000000E+01 0.  1.
         -4    1    3    3    0  501 -0.35440358818E+02 -0.20195175383E+02  0.45672161198E+02  0.61255309569E+02  0.15500000000E+01 0.  1.
<mgrwt>
<rscale>  2 0.12500837E+03</rscale>
<asrwt>0</asrwt>
<pdfrwt beam="1">  1       21 0.67778777E-01 0.12500837E+03</pdfrwt>
<pdfrwt beam="2">  1       21 0.13642619E-02 0.12500837E+03</pdfrwt>
<totfact> 0.44917034E+06</totfact>
</mgrwt>
</event>
<event>
 5    0  0.1222151E+000  0.1249719E+03  0.7546771E-02  0.1235113E+00
         21   -1    0    0  503  502  0.00000000000E+00  0.00000000000E+00  0.13752160530E+04  0.13752160530E+04  0.00000000000E+00 0. -1.
         21   -1    0    0  502  503 -0.00000000000E+00 -0.00000000000E+00 -0.28391839603E+01  0.28391839603E+01  0.00000000000E+00 0. -1.
         25    2    1    2    0    0  0.00000000000E+00  0.00000000000E+00  0.13723768690E+04  0.13780552369E+04  0.12497185858E+03 0.  0.
          4    1    3    3  501    0  0.44959973202E+02 -0.19752881448E+02  0.26047012266E+03  0.26506350713E+03  0.15500000000E+01 0.  1.
         -4    1    3    3    0  501 -0.44959973202E+02  0.19752881448E+02  0.11119067463E+04  0.11129917298E+04  0.15500000000E+01 0.  1.
<mgrwt>
<rscale>  2 0.12497186E+03</rscale>
<asrwt>0</asrwt>
<pdfrwt beam="1">  1       21 0.21157117E+00 0.12497186E+03</pdfrwt>
<pdfrwt beam="2">  1       21 0.43679863E-03 0.12497186E+03</pdfrwt>
<totfact> 0.15917022E+06</totfact>
</mgrwt>
</event>
<event>
 5    0  0.1222151E+000  0.1250034E+03  0.7546771E-02  0.1235064E+00
         21   -1    0    0  503  502  0.00000000000E+00  0.00000000000E+00  0.93601332382E+03  0.93601332382E+03  0.00000000000E+00 0. -1.
         21   -1    0    0  502  503 -0.00000000000E+00 -0.00000000000E+00 -0.41735145764E+01  0.41735145764E+01  0.00000000000E+00 0. -1.
         25    2    1    2    0    0  0.00000000000E+00  0.00000000000E+00  0.93183980924E+03  0.94018683839E+03  0.12500344396E+03 0.  0.
          4    1    3    3  501    0 -0.23860253353E+02 -0.48565975810E+02  0.70090411975E+03  0.70299143187E+03  0.15500000000E+01 0.  1.
         -4    1    3    3    0  501  0.23860253353E+02  0.48565975810E+02  0.23093568949E+03  0.23719540653E+03  0.15500000000E+01 0.  1.
<mgrwt>
<rscale>  2 0.12500344E+03</rscale>
<asrwt>0</asrwt>
<pdfrwt beam="1">  1       21 0.14400188E+00 0.12500344E+03</pdfrwt>
<pdfrwt beam="2">  1       21 0.64207991E-03 0.12500344E+03</pdfrwt>
<totfact> 0.25173879E+06</totfact>
</mgrwt>
</event>
<event>
 5    0  0.1343330E+000  0.1249997E+03  0.7546771E-02  0.1235070E+00
         21   -1    0    0  503  502  0.00000000000E+00  0.00000000000E+00  0.63624732426E+01  0.63624732426E+01  0.00000000000E+00 0.  1.
         21   -1    0    0  502  503 -0.00000000000E+00 -0.00000000000E+00 -0.61394868467E+03  0.61394868467E+03  0.00000000000E+00 0.  1.
         25    2    1    2    0    0  0.00000000000E+00  0.00000000000E+00 -0.60758621142E+03  0.62031115791E+03  0.12499971326E+03 0.  0.
          4    1    3    3  501    0  0.38258733563E+01  0.60593964632E+02 -0.37699019578E+03  0.38185111768E+03  0.15500000000E+01 0. -1.
         -4    1    3    3    0  501 -0.38258733563E+01 -0.60593964632E+02 -0.23059601564E+03  0.23846004023E+03  0.15500000000E+01 0. -1.
<mgrwt>
<rscale>  2 0.12499971E+03</rscale>
<asrwt>0</asrwt>
<pdfrwt beam="1">  1       21 0.97884192E-03 0.12499971E+03</pdfrwt>
<pdfrwt beam="2">  1       21 0.94453655E-01 0.12499971E+03</pdfrwt>
<totfact> 0.36190156E+06</totfact>
</mgrwt>
</event>
<event>
 5    0  0.1587563E+000  0.1249974E+03  0.7546771E-02  0.1235073E+00
         21   -1    0    0  503  502  0.00000000000E+00  0.00000000000E+00  0.17083037207E+03  0.17083037207E+03  0.00000000000E+00 0.  1.
         21   -1    0    0  502  503 -0.00000000000E+00 -0.00000000000E+00 -0.22865306714E+02  0.22865306714E+02  0.00000000000E+00 0.  1.
         25    2    1    2    0    0  0.00000000000E+00  0.00000000000E+00  0.14796506536E+03  0.19369567878E+03  0.12499742163E+03 0.  0.
          4    1    3    3  501    0 -0.48949013637E+02 -0.32818019838E+02  0.10614024402E+03  0.12141327054E+03  0.15500000000E+01 0.  1.
         -4    1    3    3    0  501  0.48949013637E+02  0.32818019838E+02  0.41824821334E+02  0.72282408245E+02  0.15500000000E+01 0.  1.
<mgrwt>
<rscale>  2 0.12499742E+03</rscale>
<asrwt>0</asrwt>
<pdfrwt beam="1">  1       21 0.26281595E-01 0.12499742E+03</pdfrwt>
<pdfrwt beam="2">  1       21 0.35177396E-02 0.12499742E+03</pdfrwt>
<totfact> 0.65618346E+06</totfact>
</mgrwt>
</event>
<event>
 5    0  0.1530229E+000  0.1250022E+03  0.7546771E-02  0.1235066E+00
         21   -1    0    0  503  502  0.00000000000E+00  0.00000000000E+00  0.15221169641E+03  0.15221169641E+03  0.00000000000E+00 0.  1.
         21   -1    0    0  502  503 -0.00000000000E+00 -0.00000000000E+00 -0.25664156680E+02  0.25664156680E+02  0.00000000000E+00 0.  1.
         25    2    1    2    0    0  0.00000000000E+00  0.00000000000E+00  0.12654753973E+03  0.17787585309E+03  0.12500215719E+03 0.  0.
          4    1    3    3  501    0 -0.31092958783E+02 -0.53748967138E+02  0.53388520772E+02  0.81905190339E+02  0.15500000000E+01 0. -1.
         -4    1    3    3    0  501  0.31092958783E+02  0.53748967138E+02  0.73159018961E+02  0.95970662755E+02  0.15500000000E+01 0. -1.
<mgrwt>
<rscale>  2 0.12500216E+03</rscale>
<asrwt>0</asrwt>
<pdfrwt beam="1">  1       21 0.23417184E-01 0.12500216E+03</pdfrwt>
<pdfrwt beam="2">  1       21 0.39483319E-02 0.12500216E+03</pdfrwt>
<totfact> 0.67392363E+06</totfact>
</mgrwt>
</event>
<event>
 5    0  0.1613800E+000  0.1249997E+03  0.7546771E-02  0.1235070E+00
         21   -1    0    0  503  502  0.00000000000E+00  0.00000000000E+00  0.84792291725E+02  0.84792291725E+02  0.00000000000E+00 0. -1.
         21   -1    0    0  502  503 -0.00000000000E+00 -0.00000000000E+00 -0.46068217237E+02  0.46068217237E+02  0.00000000000E+00 0. -1.
         25    2    1    2    0    0  0.00000000000E+00  0.00000000000E+00  0.38724074488E+02  0.13086050896E+03  0.12499967544E+03 0.  0.
          4    1    3    3  501    0  0.14859213812E+02  0.59735104201E+02  0.81477193853E+01  0.62111727879E+02  0.15500000000E+01 0. -1.
         -4    1    3    3    0  501 -0.14859213812E+02 -0.59735104201E+02  0.30576355103E+02  0.68748781083E+02  0.15500000000E+01 0. -1.
<mgrwt>
<rscale>  2 0.12499968E+03</rscale>
<asrwt>0</asrwt>
<pdfrwt beam="1">  1       21 0.13044968E-01 0.12499968E+03</pdfrwt>
<pdfrwt beam="2">  1       21 0.70874180E-02 0.12499968E+03</pdfrwt>
<totfact> 0.73250081E+06</totfact>
</mgrwt>
</event>
<event>
 5    0  0.1351723E+000  0.1250086E+03  0.7546771E-02  0.1235056E+00
         21   -1    0    0  503  502  0.00000000000E+00  0.00000000000E+00  0.82243993072E+01  0.82243993072E+01  0.00000000000E+00 0. -1.
         21   -1    0    0  502  503 -0.00000000000E+00 -0.00000000000E+00 -0.47502412888E+03  0.47502412888E+03  0.00000000000E+00 0. -1.
         25    2    1    2    0    0  0.00000000000E+00  0.00000000000E+00 -0.46679972957E+03  0.48324852818E+03  0.12500860957E+03 0.  0.
          4    1    3    3  501    0  0.25773779170E+02  0.52214383326E+02 -0.14577868227E+03  0.15698552871E+03  0.15500000000E+01 0.  1.
         -4    1    3    3    0  501 -0.25773779170E+02 -0.52214383326E+02 -0.32102104730E+03  0.32626299948E+03  0.15500000000E+01 0.  1.
<mgrwt>
<rscale>  2 0.12500861E+03</rscale>
<asrwt>0</asrwt>
<pdfrwt beam="1">  1       21 0.12652921E-02 0.12500861E+03</pdfrwt>
<pdfrwt beam="2">  1       21 0.73080643E-01 0.12500861E+03</pdfrwt>
<totfact> 0.42958140E+06</totfact>
</mgrwt>
</event>
<event>
 4    0  0.1893108E+000  0.1248038E+03  0.7546771E-02  0.1235376E+00
         21   -1    0    0  503  502  0.00000000000E+00  0.00000000000E+00  0.23419691184E+02  0.23419691184E+02  0.00000000000E+00 0. -1.
         21   -1    0    0  502  503 -0.00000000000E+00 -0.00000000000E+00 -0.16627027961E+03  0.16627027961E+03  0.00000000000E+00 0. -1.
          4    1    1    2  501    0  0.29968367145E+02  0.20168875583E+02  0.58766309548E+01  0.36630914034E+02  0.15500000000E+01 0.  1.
         -4    1    1    2    0  501 -0.29968367145E+02 -0.20168875583E+02 -0.14872721938E+03  0.15305905676E+03  0.15500000000E+01 0.  1.
<mgrwt>
<rscale>  2 0.12480382E+03</rscale>
<asrwt>0</asrwt>
<pdfrwt beam="1">  1       21 0.36030294E-02 0.12480382E+03</pdfrwt>
<pdfrwt beam="2">  1       21 0.25580043E-01 0.12480382E+03</pdfrwt>
<totfact> 0.66386387E+06</totfact>
</mgrwt>
</event>
<event>
 5    0  0.1612945E+000  0.1249981E+03  0.7546771E-02  0.1235072E+00
         21   -1    0    0  503  502  0.00000000000E+00  0.00000000000E+00  0.49441201994E+02  0.49441201994E+02  0.00000000000E+00 0. -1.
         21   -1    0    0  502  503 -0.00000000000E+00 -0.00000000000E+00 -0.79005538529E+02  0.79005538529E+02  0.00000000000E+00 0. -1.
         25    2    1    2    0    0  0.00000000000E+00  0.00000000000E+00 -0.29564336535E+02  0.12844674052E+03  0.12499806061E+03 0.  0.
          4    1    3    3  501    0  0.20433596404E+02  0.41717171205E+02  0.28154270449E+02  0.54340773641E+02  0.15500000000E+01 0.  1.
         -4    1    3    3    0  501 -0.20433596404E+02 -0.41717171205E+02 -0.57718606984E+02  0.74105966882E+02  0.15500000000E+01 0.  1.
<mgrwt>
<rscale>  2 0.12499806E+03</rscale>
<asrwt>0</asrwt>
<pdfrwt beam="1">  1       21 0.76063388E-02 0.12499806E+03</pdfrwt>
<pdfrwt beam="2">  1       21 0.12154698E-01 0.12499806E+03</pdfrwt>
<totfact> 0.73576939E+06</totfact>
</mgrwt>
</event>
<event>
 5    0  0.1478227E+000  0.1250036E+03  0.7546771E-02  0.1235064E+00
         21   -1    0    0  503  502  0.00000000000E+00  0.00000000000E+00  0.18796266357E+02  0.18796266357E+02  0.00000000000E+00 0. -1.
         21   -1    0    0  502  503 -0.00000000000E+00 -0.00000000000E+00 -0.20783244519E+03  0.20783244519E+03  0.00000000000E+00 0. -1.
         25    2    1    2    0    0  0.00000000000E+00  0.00000000000E+00 -0.18903617884E+03  0.22662871155E+03  0.12500358391E+03 0.  0.
          4    1    3    3  501    0 -0.62421655618E+02  0.68680285369E+00 -0.99361390455E+02  0.11735426367E+03  0.15500000000E+01 0. -1.
         -4    1    3    3    0  501  0.62421655618E+02 -0.68680285369E+00 -0.89674788382E+02  0.10927444788E+03  0.15500000000E+01 0. -1.
<mgrwt>
<rscale>  2 0.12500358E+03</rscale>
<asrwt>0</asrwt>
<pdfrwt beam="1">  1       21 0.28917332E-02 0.12500358E+03</pdfrwt>
<pdfrwt beam="2">  1       21 0.31974223E-01 0.12500358E+03</pdfrwt>
<totfact> 0.62145464E+06</totfact>
</mgrwt>
</event>
<event>
 5    0  0.1507517E+000  0.1250009E+03  0.7546771E-02  0.1235068E+00
         21   -1    0    0  503  502  0.00000000000E+00  0.00000000000E+00  0.15315162064E+02  0.15315162064E+02  0.00000000000E+00 0.  1.
         21   -1    0    0  502  503 -0.00000000000E+00 -0.00000000000E+00 -0.25506134529E+03  0.25506134529E+03  0.00000000000E+00 0.  1.
         25    2    1    2    0    0  0.00000000000E+00  0.00000000000E+00 -0.23974618323E+03  0.27037650735E+03  0.12500089343E+03 0.  0.
          4    1    3    3  501    0  0.60058638321E+02 -0.15617448078E+02 -0.10413238741E+03  0.12123077715E+03  0.15500000000E+01 0. -1.
         -4    1    3    3    0  501 -0.60058638321E+02  0.15617448078E+02 -0.13561379582E+03  0.14914573020E+03  0.15500000000E+01 0. -1.
<mgrwt>
<rscale>  2 0.12500089E+03</rscale>
<asrwt>0</asrwt>
<pdfrwt beam="1">  1       21 0.23561791E-02 0.12500089E+03</pdfrwt>
<pdfrwt beam="2">  1       21 0.39240202E-01 0.12500089E+03</pdfrwt>
<totfact> 0.58009762E+06</totfact>
</mgrwt>
</event>
<event>
 5    0  0.1465440E+000  0.1250259E+03  0.7546771E-02  0.1235029E+00
         21   -1    0    0  503  502  0.00000000000E+00  0.00000000000E+00  0.66432070503E+02  0.66432070503E+02  0.00000000000E+00 0. -1.
         21   -1    0    0  502  503 -0.00000000000E+00 -0.00000000000E+00 -0.58825020365E+02  0.58825020365E+02  0.00000000000E+00 0. -1.
         25    2    1    2    0    0  0.00000000000E+00  0.00000000000E+00  0.76070501383E+01  0.12525709087E+03  0.12502588372E+03 0.  0.
          4    1    3    3  501    0  0.52436720870E+02  0.17273440557E+01 -0.30213233780E+02  0.60562656882E+02  0.15500000000E+01 0. -1.
         -4    1    3    3    0  501 -0.52436720870E+02 -0.17273440557E+01  0.37820283919E+02  0.64694433986E+02  0.15500000000E+01 0. -1.
<mgrwt>
<rscale>  2 0.12502588E+03</rscale>
<asrwt>0</asrwt>
<pdfrwt beam="1">  1       21 0.10220318E-01 0.12502588E+03</pdfrwt>
<pdfrwt beam="2">  1       21 0.90500032E-02 0.12502588E+03</pdfrwt>
<totfact> 0.73959912E+06</totfact>
</mgrwt>
</event>
<event>
 5    0  0.1222151E+000  0.1249240E+03  0.7546771E-02  0.1235188E+00
         21   -1    0    0  503  502  0.00000000000E+00  0.00000000000E+00  0.12822259234E+02  0.12822259234E+02  0.00000000000E+00 0.  1.
         21   -1    0    0  502  503 -0.00000000000E+00 -0.00000000000E+00 -0.30427551344E+03  0.30427551344E+03  0.00000000000E+00 0.  1.
         25    2    1    2    0    0  0.00000000000E+00  0.00000000000E+00 -0.29145325421E+03  0.31709777267E+03  0.12492396907E+03 0.  0.
          4    1    3    3  501    0 -0.56258101518E+02 -0.19638400487E+02 -0.98343736905E+02  0.11499797324E+03  0.15500000000E+01 0.  1.
         -4    1    3    3    0  501  0.56258101518E+02  0.19638400487E+02 -0.19310951730E+03  0.20209979944E+03  0.15500000000E+01 0.  1.
<mgrwt>
<rscale>  2 0.12492397E+03</rscale>
<asrwt>0</asrwt>
<pdfrwt beam="1">  1       21 0.19726551E-02 0.12492397E+03</pdfrwt>
<pdfrwt beam="2">  1       21 0.46811620E-01 0.12492397E+03</pdfrwt>
<totfact> 0.54167405E+06</totfact>
</mgrwt>
</event>
<event>
 5    0  0.1222151E+000  0.1249967E+03  0.7546771E-02  0.1235074E+00
         21   -1    0    0  503  502  0.00000000000E+00  0.00000000000E+00  0.19020652787E+01  0.19020652787E+01  0.00000000000E+00 0. -1.
         21   -1    0    0  502  503 -0.00000000000E+00 -0.00000000000E+00 -0.20535809661E+04  0.20535809661E+04  0.00000000000E+00 0. -1.
         25    2    1    2    0    0  0.00000000000E+00  0.00000000000E+00 -0.20516789009E+04  0.20554830314E+04  0.12499672080E+03 0.  0.
          4    1    3    3  501    0  0.40155498712E+02  0.47858567313E+02 -0.10117317148E+04  0.10136598896E+04  0.15500000000E+01 0.  1.
         -4    1    3    3    0  501 -0.40155498712E+02 -0.47858567313E+02 -0.10399471861E+04  0.10418231419E+04  0.15500000000E+01 0.  1.
<mgrwt>
<rscale>  2 0.12499672E+03</rscale>
<asrwt>0</asrwt>
<pdfrwt beam="1">  1       21 0.29262548E-03 0.12499672E+03</pdfrwt>
<pdfrwt beam="2">  1       21 0.31593547E+00 0.12499672E+03</pdfrwt>
<totfact> 0.74201734E+05</totfact>
</mgrwt>
</event>
<event>
 5    0  0.1529955E+000  0.1249803E+03  0.7546771E-02  0.1235100E+00
         21   -1    0    0  503  502  0.00000000000E+00  0.00000000000E+00  0.25764561644E+02  0.25764561644E+02  0.00000000000E+00 0. -1.
         21   -1    0    0  502  503 -0.00000000000E+00 -0.00000000000E+00 -0.15156547701E+03  0.15156547701E+03  0.00000000000E+00 0. -1.
         25    2    1    2    0    0  0.00000000000E+00  0.00000000000E+00 -0.12580091536E+03  0.17733003865E+03  0.12498028765E+03 0.  0.
          4    1    3    3  501    0 -0.29542631182E+02 -0.54034816829E+02 -0.77787519169E+02  0.99226151418E+02  0.15500000000E+01 0. -1.
         -4    1    3    3    0  501  0.29542631182E+02  0.54034816829E+02 -0.48013396194E+02  0.78103887234E+02  0.15500000000E+01 0. -1.
<mgrwt>
<rscale>  2 0.12498029E+03</rscale>
<asrwt>0</asrwt>
<pdfrwt beam="1">  1       21 0.39637786E-02 0.12498029E+03</pdfrwt>
<pdfrwt beam="2">  1       21 0.23317766E-01 0.12498029E+03</pdfrwt>
<totfact> 0.67492900E+06</totfact>
</mgrwt>
</event>
<event>
 5    0  0.1486544E+000  0.1250001E+03  0.7546771E-02  0.1235069E+00
         21   -1    0    0  503  502  0.00000000000E+00  0.00000000000E+00  0.43828786071E+02  0.43828786071E+02  0.00000000000E+00 0. -1.
         21   -1    0    0  502  503 -0.00000000000E+00 -0.00000000000E+00 -0.89125409398E+02  0.89125409398E+02  0.00000000000E+00 0. -1.
         25    2    1    2    0    0  0.00000000000E+00  0.00000000000E+00 -0.45296623328E+02  0.13295419547E+03  0.12500013603E+03 0.  0.
          4    1    3    3  501    0 -0.50320735545E+01  0.39603067160E+02 -0.73770553897E+02  0.83894110729E+02  0.15500000000E+01 0. -1.
         -4    1    3    3    0  501  0.50320735545E+01 -0.39603067160E+02  0.28473930569E+02  0.49060084741E+02  0.15500000000E+01 0. -1.
<mgrwt>
<rscale>  2 0.12500014E+03</rscale>
<asrwt>0</asrwt>
<pdfrwt beam="1">  1       21 0.67428901E-02 0.12500014E+03</pdfrwt>
<pdfrwt beam="2">  1       21 0.13711602E-01 0.12500014E+03</pdfrwt>
<totfact> 0.72968262E+06</totfact>
</mgrwt>
</event>
<event>
 5    0  0.1222151E+000  0.1249875E+03  0.7546771E-02  0.1235089E+00
         21   -1    0    0  503  502  0.00000000000E+00  0.00000000000E+00  0.12449430324E+04  0.12449430324E+04  0.00000000000E+00 0. -1.
         21   -1    0    0  502  503 -0.00000000000E+00 -0.00000000000E+00 -0.31370660862E+01  0.31370660862E+01  0.00000000000E+00 0. -1.
         25    2    1    2    0    0  0.00000000000E+00  0.00000000000E+00  0.12418059663E+04  0.12480800985E+04  0.12498749643E+03 0.  0.
          4    1    3    3  501    0 -0.43940318766E+02  0.42505956114E+02  0.49241835601E+03  0.49620131777E+03  0.15500000000E+01 0. -1.
         -4    1    3    3    0  501  0.43940318766E+02 -0.42505956114E+02  0.74938761031E+03  0.75187878073E+03  0.15500000000E+01 0. -1.
<mgrwt>
<rscale>  2 0.12498750E+03</rscale>
<asrwt>0</asrwt>
<pdfrwt beam="1">  1       21 0.19152930E+00 0.12498750E+03</pdfrwt>
<pdfrwt beam="2">  1       21 0.48262655E-03 0.12498750E+03</pdfrwt>
<totfact> 0.18216499E+06</totfact>
</mgrwt>
</event>
<event>
 5    0  0.1222151E+000  0.1250007E+03  0.7546771E-02  0.1235068E+00
         21   -1    0    0  503  502  0.00000000000E+00  0.00000000000E+00  0.10805882391E+04  0.10805882391E+04  0.00000000000E+00 0.  1.
         21   -1    0    0  502  503 -0.00000000000E+00 -0.00000000000E+00 -0.36149683455E+01  0.36149683455E+01  0.00000000000E+00 0.  1.
         25    2    1    2    0    0  0.00000000000E+00  0.00000000000E+00  0.10769732708E+04  0.10842032075E+04  0.12500067646E+03 0.  0.
          4    1    3    3  501    0  0.59972856782E+02 -0.12733210493E+02  0.64293452396E+03  0.64585298853E+03  0.15500000000E+01 0. -1.
         -4    1    3    3    0  501 -0.59972856782E+02  0.12733210493E+02  0.43403874683E+03  0.43835021894E+03  0.15500000000E+01 0. -1.
<mgrwt>
<rscale>  2 0.12500068E+03</rscale>
<asrwt>0</asrwt>
<pdfrwt beam="1">  1       21 0.16624409E+00 0.12500068E+03</pdfrwt>
<pdfrwt beam="2">  1       21 0.55614984E-03 0.12500068E+03</pdfrwt>
<totfact> 0.21605862E+06</totfact>
</mgrwt>
</event>
<event>
 5    0  0.1425515E+000  0.1250010E+03  0.7546771E-02  0.1235068E+00
         21   -1    0    0  503  502  0.00000000000E+00  0.00000000000E+00  0.26706849742E+03  0.26706849742E+03  0.00000000000E+00 0. -1.
         21   -1    0    0  502  503 -0.00000000000E+00 -0.00000000000E+00 -0.14626634945E+02  0.14626634945E+02  0.00000000000E+00 0. -1.
         25    2    1    2    0    0  0.00000000000E+00  0.00000000000E+00  0.25244186247E+03  0.28169513236E+03  0.12500101467E+03 0.  0.
          4    1    3    3  501    0 -0.41709710686E+02  0.29163835203E+01  0.23085196955E+03  0.23461295702E+03  0.15500000000E+01 0. -1.
         -4    1    3    3    0  501  0.41709710686E+02 -0.29163835203E+01  0.21589892924E+02  0.47082175340E+02  0.15500000000E+01 0. -1.
<mgrwt>
<rscale>  2 0.12500101E+03</rscale>
<asrwt>0</asrwt>
<pdfrwt beam="1">  1       21 0.41087458E-01 0.12500101E+03</pdfrwt>
<pdfrwt beam="2">  1       21 0.22502517E-02 0.12500101E+03</pdfrwt>
<totfact> 0.57011081E+06</totfact>
</mgrwt>
</event>
<event>
 5    0  0.1407442E+000  0.1250009E+03  0.7546771E-02  0.1235068E+00
         21   -1    0    0  503  502  0.00000000000E+00  0.00000000000E+00  0.51400435598E+02  0.51400435598E+02  0.00000000000E+00 0. -1.
         21   -1    0    0  502  503 -0.00000000000E+00 -0.00000000000E+00 -0.75997554286E+02  0.75997554286E+02  0.00000000000E+00 0. -1.
         25    2    1    2    0    0  0.00000000000E+00  0.00000000000E+00 -0.24597118688E+02  0.12739798988E+03  0.12500091831E+03 0.  0.
          4    1    3    3  501    0  0.18395556212E+02 -0.18349898231E+02  0.45613531880E+02  0.52517730759E+02  0.15500000000E+01 0. -1.
         -4    1    3    3    0  501 -0.18395556212E+02  0.18349898231E+02 -0.70210650568E+02  0.74880259125E+02  0.15500000000E+01 0. -1.
<mgrwt>
<rscale>  2 0.12500092E+03</rscale>
<asrwt>0</asrwt>
<pdfrwt beam="1">  1       21 0.79077592E-02 0.12500092E+03</pdfrwt>
<pdfrwt beam="2">  1       21 0.11691932E-01 0.12500092E+03</pdfrwt>
<totfact> 0.73713324E+06</totfact>
</mgrwt>
</event>
<event>
 5    0  0.1439413E+000  0.1249834E+03  0.7546771E-02  0.1235095E+00
         21   -1    0    0  503  502  0.00000000000E+00  0.00000000000E+00  0.30593400739E+03  0.30593400739E+03  0.00000000000E+00 0. -1.
         21   -1    0    0  502  503 -0.00000000000E+00 -0.00000000000E+00 -0.12764881567E+02  0.12764881567E+02  0.00000000000E+00 0. -1.
         25    2    1    2    0    0  0.00000000000E+00  0.00000000000E+00  0.29316912583E+03  0.31869888896E+03  0.12498338084E+03 0.  0.
          4    1    3    3  501    0  0.45960271708E+02 -0.38315408117E+02  0.19236925235E+03  0.20146649554E+03  0.15500000000E+01 0. -1.
         -4    1    3    3    0  501 -0.45960271708E+02  0.38315408117E+02  0.10079987347E+03  0.11723239342E+03  0.15500000000E+01 0. -1.
<mgrwt>
<rscale>  2 0.12498338E+03</rscale>
<asrwt>0</asrwt>
<pdfrwt beam="1">  1       21 0.47066765E-01 0.12498338E+03</pdfrwt>
<pdfrwt beam="2">  1       21 0.19638282E-02 0.12498338E+03</pdfrwt>
<totfact> 0.53959110E+06</totfact>
</mgrwt>
</event>
<event>
 5    0  0.1586783E+000  0.1250025E+03  0.7546771E-02  0.1235065E+00
         21   -1    0    0  503  502  0.00000000000E+00  0.00000000000E+00  0.13050649684E+03  0.13050649684E+03  0.00000000000E+00 0. -1.
         21   -1    0    0  502  503 -0.00000000000E+00 -0.00000000000E+00 -0.29932650967E+02  0.29932650967E+02  0.00000000000E+00 0. -1.
         25    2    1    2    0    0  0.00000000000E+00  0.00000000000E+00  0.10057384587E+03  0.16043914781E+03  0.12500248668E+03 0.  0.
          4    1    3    3  501    0 -0.55857710414E+02  0.27898227234E+02  0.53326384136E+02  0.82124908770E+02  0.15500000000E+01 0.  1.
         -4    1    3    3    0  501  0.55857710414E+02 -0.27898227234E+02  0.47247461738E+02  0.78314239038E+02  0.15500000000E+01 0.  1.
<mgrwt>
<rscale>  2 0.12500249E+03</rscale>
<asrwt>0</asrwt>
<pdfrwt beam="1">  1       21 0.20077922E-01 0.12500249E+03</pdfrwt>
<pdfrwt beam="2">  1       21 0.46050233E-02 0.12500249E+03</pdfrwt>
<totfact> 0.69461485E+06</totfact>
</mgrwt>
</event>
<event>
 5    0  0.1429097E+000  0.1249966E+03  0.7546771E-02  0.1235075E+00
         21   -1    0    0  503  502  0.00000000000E+00  0.00000000000E+00  0.24714122830E+02  0.24714122830E+02  0.00000000000E+00 0. -1.
         21   -1    0    0  502  503 -0.00000000000E+00 -0.00000000000E+00 -0.15804888063E+03  0.15804888063E+03  0.00000000000E+00 0. -1.
         25    2    1    2    0    0  0.00000000000E+00  0.00000000000E+00 -0.13333475780E+03  0.18276300346E+03  0.12499663114E+03 0.  0.
          4    1    3    3  501    0  0.23751804714E+02 -0.12408616264E+02  0.15856532294E+02  0.31176178424E+02  0.15500000000E+01 0. -1.
         -4    1    3    3    0  501 -0.23751804714E+02  0.12408616264E+02 -0.14919129009E+03  0.15158682503E+03  0.15500000000E+01 0. -1.
<mgrwt>
<rscale>  2 0.12499663E+03</rscale>
<asrwt>0</asrwt>
<pdfrwt beam="1">  1       21 0.38021728E-02 0.12499663E+03</pdfrwt>
<pdfrwt beam="2">  1       21 0.24315212E-01 0.12499663E+03</pdfrwt>
<totfact> 0.66841689E+06</totfact>
</mgrwt>
</event>
<event>
 5    0  0.1437768E+000  0.1250004E+03  0.7546771E-02  0.1235069E+00
         21   -1    0    0  503  502  0.00000000000E+00  0.00000000000E+00  0.29207302014E+02  0.29207302014E+02  0.00000000000E+00 0. -1.
         21   -1    0    0  502  503 -0.00000000000E+00 -0.00000000000E+00 -0.13374308394E+03  0.13374308394E+03  0.00000000000E+00 0. -1.
         25    2    1    2    0    0  0.00000000000E+00  0.00000000000E+00 -0.10453578193E+03  0.16295038596E+03  0.12500039432E+03 0.  0.
          4    1    3    3  501    0 -0.33569664852E+01 -0.34711304307E+02  0.15314988326E+02  0.38119486331E+02  0.15500000000E+01 0. -1.
         -4    1    3    3    0  501  0.33569664852E+01  0.34711304307E+02 -0.11985077025E+03  0.12483089963E+03  0.15500000000E+01 0. -1.
<mgrwt>
<rscale>  2 0.12500039E+03</rscale>
<asrwt>0</asrwt>
<pdfrwt beam="1">  1       21 0.44934312E-02 0.12500039E+03</pdfrwt>
<pdfrwt beam="2">  1       21 0.20575859E-01 0.12500039E+03</pdfrwt>
<totfact> 0.69160083E+06</totfact>
</mgrwt>
</event>
<event>
 5    0  0.1222151E+000  0.1250040E+03  0.7546771E-02  0.1235063E+00
         21   -1    0    0  503  502  0.00000000000E+00  0.00000000000E+00  0.45988135211E+01  0.45988135211E+01  0.00000000000E+00 0.  1.
         21   -1    0    0  502  503 -0.00000000000E+00 -0.00000000000E+00 -0.84945806941E+03  0.84945806941E+03  0.00000000000E+00 0.  1.
         25    2    1    2    0    0  0.00000000000E+00  0.00000000000E+00 -0.84485925589E+03  0.85405688293E+03  0.12500398802E+03 0.  0.
          4    1    3    3  501    0  0.53873723500E+02  0.92751910500E+01 -0.62917559479E+03  0.63154789116E+03  0.15500000000E+01 0. -1.
         -4    1    3    3    0  501 -0.53873723500E+02 -0.92751910500E+01 -0.21568366110E+03  0.22250899177E+03  0.15500000000E+01 0. -1.
<mgrwt>
<rscale>  2 0.12500399E+03</rscale>
<asrwt>0</asrwt>
<pdfrwt beam="1">  1       21 0.70750927E-03 0.12500399E+03</pdfrwt>
<pdfrwt beam="2">  1       21 0.13068595E+00 0.12500399E+03</pdfrwt>
<totfact> 0.27645437E+06</totfact>
</mgrwt>
</event>
<event>
 5    0  0.1472565E+000  0.1250137E+03  0.7546771E-02  0.1235048E+00
         21   -1    0    0  503  502  0.00000000000E+00  0.00000000000E+00  0.10037241135E+03  0.10037241135E+03  0.00000000000E+00 0.  1.
         21   -1    0    0  502  503 -0.00000000000E+00 -0.00000000000E+00 -0.38926123279E+02  0.38926123279E+02  0.00000000000E+00 0.  1.
         25    2    1    2    0    0  0.00000000000E+00  0.00000000000E+00  0.61446288071E+02  0.13929853463E+03  0.12501374097E+03 0.  0.
          4    1    3    3  501    0  0.60514048883E+01  0.24588217804E+02  0.94377925416E+02  0.97728170257E+02  0.15500000000E+01 0.  1.
         -4    1    3    3    0  501 -0.60514048883E+01 -0.24588217804E+02 -0.32931637345E+02  0.41570364373E+02  0.15500000000E+01 0.  1.
<mgrwt>
<rscale>  2 0.12501374E+03</rscale>
<asrwt>0</asrwt>
<pdfrwt beam="1">  1       21 0.15441909E-01 0.12501374E+03</pdfrwt>
<pdfrwt beam="2">  1       21 0.59886344E-02 0.12501374E+03</pdfrwt>
<totfact> 0.72105768E+06</totfact>
</mgrwt>
</event>
<event>
 5    0  0.1437079E+000  0.1250023E+03  0.7546771E-02  0.1235066E+00
         21   -1    0    0  503  502  0.00000000000E+00  0.00000000000E+00  0.39445797817E+03  0.39445797817E+03  0.00000000000E+00 0.  1.
         21   -1    0    0  502  503 -0.00000000000E+00 -0.00000000000E+00 -0.99031956300E+01  0.99031956300E+01  0.00000000000E+00 0.  1.
         25    2    1    2    0    0  0.00000000000E+00  0.00000000000E+00  0.38455478254E+03  0.40436117380E+03  0.12500231239E+03 0.  0.
          4    1    3    3  501    0 -0.31883253766E+01  0.61636266192E+02  0.16078182809E+03  0.17222773724E+03  0.15500000000E+01 0. -1.
         -4    1    3    3    0  501  0.31883253766E+01 -0.61636266192E+02  0.22377295445E+03  0.23213343656E+03  0.15500000000E+01 0. -1.
<mgrwt>
<rscale>  2 0.12500231E+03</rscale>
<asrwt>0</asrwt>
<pdfrwt beam="1">  1       21 0.60685831E-01 0.12500231E+03</pdfrwt>
<pdfrwt beam="2">  1       21 0.15235689E-02 0.12500231E+03</pdfrwt>
<totfact> 0.47750664E+06</totfact>
</mgrwt>
</event>
<event>
 5    0  0.1542211E+000  0.1249932E+03  0.7546771E-02  0.1235080E+00
         21   -1    0    0  503  502  0.00000000000E+00  0.00000000000E+00  0.14712832233E+03  0.14712832233E+03  0.00000000000E+00 0. -1.
         21   -1    0    0  502  503 -0.00000000000E+00 -0.00000000000E+00 -0.26547052208E+02  0.26547052208E+02  0.00000000000E+00 0. -1.
         25    2    1    2    0    0  0.00000000000E+00  0.00000000000E+00  0.12058127012E+03  0.17367537454E+03  0.12499317188E+03 0.  0.
          4    1    3    3  501    0  0.93981493705E+01  0.58072857045E+02  0.31057411799E+02  0.66541319979E+02  0.15500000000E+01 0.  1.
         -4    1    3    3    0  501 -0.93981493705E+01 -0.58072857045E+02  0.89523858326E+02  0.10713405456E+03  0.15500000000E+01 0.  1.
<mgrwt>
<rscale>  2 0.12499317E+03</rscale>
<asrwt>0</asrwt>
<pdfrwt beam="1">  1       21 0.22635126E-01 0.12499317E+03</pdfrwt>
<pdfrwt beam="2">  1       21 0.40841620E-02 0.12499317E+03</pdfrwt>
<totfact> 0.67896354E+06</totfact>
</mgrwt>
</event>
<event>
 5    0  0.1295620E+000  0.1250011E+03  0.7546771E-02  0.1235068E+00
         21   -1    0    0  503  502  0.00000000000E+00  0.00000000000E+00  0.76885837639E+01  0.76885837639E+01  0.00000000000E+00 0.  1.
         21   -1    0    0  502  503 -0.00000000000E+00 -0.00000000000E+00 -0.50806760752E+03  0.50806760752E+03  0.00000000000E+00 0.  1.
         25    2    1    2    0    0  0.00000000000E+00  0.00000000000E+00 -0.50037902375E+03  0.51575619128E+03  0.12500112572E+03 0.  0.
          4    1    3    3  501    0  0.41445164425E+02  0.39280895764E+02 -0.14554587991E+03  0.15635439260E+03  0.15500000000E+01 0. -1.
         -4    1    3    3    0  501 -0.41445164425E+02 -0.39280895764E+02 -0.35483314384E+03  0.35940179868E+03  0.15500000000E+01 0. -1.
<mgrwt>
<rscale>  2 0.12500113E+03</rscale>
<asrwt>0</asrwt>
<pdfrwt beam="1">  1       21 0.11828588E-02 0.12500113E+03</pdfrwt>
<pdfrwt beam="2">  1       21 0.78164266E-01 0.12500113E+03</pdfrwt>
<totfact> 0.41201108E+06</totfact>
</mgrwt>
</event>
<event>
 5    0  0.1546162E+000  0.1249965E+03  0.7546771E-02  0.1235075E+00
         21   -1    0    0  503  502  0.00000000000E+00  0.00000000000E+00  0.28060701281E+02  0.28060701281E+02  0.00000000000E+00 0.  1.
         21   -1    0    0  502  503 -0.00000000000E+00 -0.00000000000E+00 -0.13919925480E+03  0.13919925480E+03  0.00000000000E+00 0.  1.
         25    2    1    2    0    0  0.00000000000E+00  0.00000000000E+00 -0.11113855352E+03  0.16725995608E+03  0.12499645927E+03 0.  0.
          4    1    3    3  501    0  0.53844035665E+02  0.30957234680E+02 -0.64654262454E+02  0.89666642121E+02  0.15500000000E+01 0.  1.
         -4    1    3    3    0  501 -0.53844035665E+02 -0.30957234680E+02 -0.46484291069E+02  0.77593313964E+02  0.15500000000E+01 0.  1.
<mgrwt>
<rscale>  2 0.12499646E+03</rscale>
<asrwt>0</asrwt>
<pdfrwt beam="1">  1       21 0.43170309E-02 0.12499646E+03</pdfrwt>
<pdfrwt beam="2">  1       21 0.21415270E-01 0.12499646E+03</pdfrwt>
<totfact> 0.68649284E+06</totfact>
</mgrwt>
</event>
<event>
 5    0  0.1222151E+000  0.1250018E+03  0.7546771E-02  0.1235067E+00
         21   -1    0    0  503  502  0.00000000000E+00  0.00000000000E+00  0.39870473173E+01  0.39870473173E+01  0.00000000000E+00 0.  1.
         21   -1    0    0  502  503 -0.00000000000E+00 -0.00000000000E+00 -0.97976293381E+03  0.97976293381E+03  0.00000000000E+00 0.  1.
         25    2    1    2    0    0  0.00000000000E+00  0.00000000000E+00 -0.97577588649E+03  0.98374998113E+03  0.12500177882E+03 0.  0.
          4    1    3    3  501    0  0.52476543219E+02 -0.24547645017E+02 -0.67204739065E+03  0.67454167569E+03  0.15500000000E+01 0. -1.
         -4    1    3    3    0  501 -0.52476543219E+02  0.24547645017E+02 -0.30372849584E+03  0.30920830544E+03  0.15500000000E+01 0. -1.
<mgrwt>
<rscale>  2 0.12500178E+03</rscale>
<asrwt>0</asrwt>
<pdfrwt beam="1">  1       21 0.61339107E-03 0.12500178E+03</pdfrwt>
<pdfrwt beam="2">  1       21 0.15073296E+00 0.12500178E+03</pdfrwt>
<totfact> 0.24027944E+06</totfact>
</mgrwt>
</event>
<event>
 5    0  0.1222151E+000  0.1249977E+03  0.7546771E-02  0.1235073E+00
         21   -1    0    0  503  502  0.00000000000E+00  0.00000000000E+00  0.17452136742E+01  0.17452136742E+01  0.00000000000E+00 0.  1.
         21   -1    0    0  502  503 -0.00000000000E+00 -0.00000000000E+00 -0.22381808270E+04  0.22381808270E+04  0.00000000000E+00 0.  1.
         25    2    1    2    0    0  0.00000000000E+00  0.00000000000E+00 -0.22364356133E+04  0.22399260406E+04  0.12499766053E+03 0.  0.
          4    1    3    3  501    0  0.55850847751E+02 -0.84916355121E+01 -0.15964689484E+04  0.15974689139E+04  0.15500000000E+01 0. -1.
         -4    1    3    3    0  501 -0.55850847751E+02  0.84916355121E+01 -0.63996666490E+03  0.64245712678E+03  0.15500000000E+01 0. -1.
<mgrwt>
<rscale>  2 0.12499766E+03</rscale>
<asrwt>0</asrwt>
<pdfrwt beam="1">  1       21 0.26849350E-03 0.12499766E+03</pdfrwt>
<pdfrwt beam="2">  1       21 0.34433668E+00 0.12499766E+03</pdfrwt>
<totfact> 0.58364802E+05</totfact>
</mgrwt>
</event>
<event>
 5    0  0.1222151E+000  0.1249963E+03  0.7546771E-02  0.1235075E+00
         21   -1    0    0  503  502  0.00000000000E+00  0.00000000000E+00  0.14390213308E+04  0.14390213308E+04  0.00000000000E+00 0. -1.
         21   -1    0    0  502  503 -0.00000000000E+00 -0.00000000000E+00 -0.27143577258E+01  0.27143577258E+01  0.00000000000E+00 0. -1.
         25    2    1    2    0    0  0.00000000000E+00  0.00000000000E+00  0.14363069731E+04  0.14417356886E+04  0.12499629862E+03 0.  0.
          4    1    3    3  501    0 -0.37569043268E+02 -0.49602626412E+02  0.65314851490E+03  0.65610764253E+03  0.15500000000E+01 0. -1.
         -4    1    3    3    0  501  0.37569043268E+02  0.49602626412E+02  0.78315845822E+03  0.78562804605E+03  0.15500000000E+01 0. -1.
<mgrwt>
<rscale>  2 0.12499630E+03</rscale>
<asrwt>0</asrwt>
<pdfrwt beam="1">  1       21 0.22138729E+00 0.12499630E+03</pdfrwt>
<pdfrwt beam="2">  1       21 0.41759465E-03 0.12499630E+03</pdfrwt>
<totfact> 0.14880695E+06</totfact>
</mgrwt>
</event>
<event>
 5    0  0.1302709E+000  0.1249999E+03  0.7546771E-02  0.1235069E+00
         21   -1    0    0  503  502  0.00000000000E+00  0.00000000000E+00  0.97912304508E+01  0.97912304508E+01  0.00000000000E+00 0.  1.
         21   -1    0    0  502  503 -0.00000000000E+00 -0.00000000000E+00 -0.39895326015E+03  0.39895326015E+03  0.00000000000E+00 0.  1.
         25    2    1    2    0    0  0.00000000000E+00  0.00000000000E+00 -0.38916202970E+03  0.40874449060E+03  0.12499989295E+03 0.  0.
          4    1    3    3  501    0  0.26613505194E+02 -0.91578352274E+01 -0.37698774824E+03  0.37804008971E+03  0.15500000000E+01 0. -1.
         -4    1    3    3    0  501 -0.26613505194E+02  0.91578352274E+01 -0.12174281452E+02  0.30704400884E+02  0.15500000000E+01 0. -1.
<mgrwt>
<rscale>  2 0.12499989E+03</rscale>
<asrwt>0</asrwt>
<pdfrwt beam="1">  1       21 0.15063430E-02 0.12499989E+03</pdfrwt>
<pdfrwt beam="2">  1       21 0.61377430E-01 0.12499989E+03</pdfrwt>
<totfact> 0.47466821E+06</totfact>
</mgrwt>
</event>
<event>
 5    0  0.1446983E+000  0.1250032E+03  0.7546771E-02  0.1235064E+00
         21   -1    0    0  503  502  0.00000000000E+00  0.00000000000E+00  0.20511029552E+03  0.20511029552E+03  0.00000000000E+00 0. -1.
         21   -1    0    0  502  503 -0.00000000000E+00 -0.00000000000E+00 -0.19045620644E+02  0.19045620644E+02  0.00000000000E+00 0. -1.
         25    2    1    2    0    0  0.00000000000E+00  0.00000000000E+00  0.18606467488E+03  0.22415591617E+03  0.12500324602E+03 0.  0.
          4    1    3    3  501    0 -0.23935659449E+02 -0.30119230560E+02  0.47462592905E+01  0.38794501157E+02  0.15500000000E+01 0. -1.
         -4    1    3    3    0  501  0.23935659449E+02  0.30119230560E+02  0.18131841559E+03  0.18536141501E+03  0.15500000000E+01 0. -1.
<mgrwt>
<rscale>  2 0.12500325E+03</rscale>
<asrwt>0</asrwt>
<pdfrwt beam="1">  1       21 0.31555429E-01 0.12500325E+03</pdfrwt>
<pdfrwt beam="2">  1       21 0.29300956E-02 0.12500325E+03</pdfrwt>
<totfact> 0.62395137E+06</totfact>
</mgrwt>
</event>
<event>
 5    0  0.1222151E+000  0.1250018E+03  0.7546771E-02  0.1235066E+00
         21   -1    0    0  503  502  0.00000000000E+00  0.00000000000E+00  0.11477710016E+02  0.11477710016E+02  0.00000000000E+00 0.  1.
         21   -1    0    0  502  503 -0.00000000000E+00 -0.00000000000E+00 -0.34034346268E+03  0.34034346268E+03  0.00000000000E+00 0.  1.
         25    2    1    2    0    0  0.00000000000E+00  0.00000000000E+00 -0.32886575266E+03  0.35182117269E+03  0.12500181711E+03 0.  0.
          4    1    3    3  501    0  0.44044492838E+01 -0.24515702840E+02 -0.31542010882E+01  0.25154926828E+02  0.15500000000E+01 0. -1.
         -4    1    3    3    0  501 -0.44044492838E+01  0.24515702840E+02 -0.32571155158E+03  0.32666624587E+03  0.15500000000E+01 0. -1.
<mgrwt>
<rscale>  2 0.12500182E+03</rscale>
<asrwt>0</asrwt>
<pdfrwt beam="1">  1       21 0.17658018E-02 0.12500182E+03</pdfrwt>
<pdfrwt beam="2">  1       21 0.52360525E-01 0.12500182E+03</pdfrwt>
<totfact> 0.51401878E+06</totfact>
</mgrwt>
</event>
<event>
 5    0  0.1224777E+000  0.1250001E+03  0.7546771E-02  0.1235069E+00
         21   -1    0    0  503  502  0.00000000000E+00  0.00000000000E+00  0.71019719170E+03  0.71019719170E+03  0.00000000000E+00 0. -1.
         21   -1    0    0  502  503 -0.00000000000E+00 -0.00000000000E+00 -0.55002450674E+01  0.55002450674E+01  0.00000000000E+00 0. -1.
         25    2    1    2    0    0  0.00000000000E+00  0.00000000000E+00  0.70469694663E+03  0.71569743677E+03  0.12500013761E+03 0.  0.
          4    1    3    3  501    0  0.43222885412E+02  0.39378935290E+02  0.22626389814E+03  0.23370210198E+03  0.15500000000E+01 0.  1.
         -4    1    3    3    0  501 -0.43222885412E+02 -0.39378935290E+02  0.47843304850E+03  0.48199533479E+03  0.15500000000E+01 0.  1.
<mgrwt>
<rscale>  2 0.12500014E+03</rscale>
<asrwt>0</asrwt>
<pdfrwt beam="1">  1       21 0.10926103E+00 0.12500014E+03</pdfrwt>
<pdfrwt beam="2">  1       21 0.84619211E-03 0.12500014E+03</pdfrwt>
<totfact> 0.32313579E+06</totfact>
</mgrwt>
</event>
