<event>
 5    0  0.1575402E+000  0.1250014E+03  0.7546771E-02  0.1235067E+00
         21   -1    0    0  503  502  0.00000000000E+00  0.00000000000E+00  0.27400719481E+02  0.27400719481E+02  0.00000000000E+00 0.  1.
         21   -1    0    0  502  503 -0.00000000000E+00 -0.00000000000E+00 -0.14256329441E+03  0.14256329441E+03  0.00000000000E+00 0.  1.
         25    2    1    2    0    0  0.00000000000E+00  0.00000000000E+00 -0.11516257493E+03  0.16996401389E+03  0.12500138941E+03 0.  0.
          4    1    3    3  501    0  0.43523244639E+02 -0.43332540558E+02 -0.41962372629E+02  0.74399093488E+02  0.15500000000E+01 0. -1.
         -4    1    3    3    0  501 -0.43523244639E+02  0.43332540558E+02 -0.73200202301E+02  0.95564920405E+02  0.15500000000E+01 0. -1.
<mgrwt>
<rscale>  2 0.12500139E+03</rscale>
<asrwt>0</asrwt>
<pdfrwt beam="1">  1       21 0.42154954E-02 0.12500139E+03</pdfrwt>
<pdfrwt beam="2">  1       21 0.21932814E-01 0.12500139E+03</pdfrwt>
<totfact> 0.68319492E+06</totfact>
</mgrwt>
</event>
<event>
 5    0  0.1627269E+000  0.1249959E+03  0.7546771E-02  0.1235076E+00
         21   -1    0    0  503  502  0.00000000000E+00  0.00000000000E+00  0.45623522568E+02  0.45623522568E+02  0.00000000000E+00 0. -1.
         21   -1    0    0  502  503 -0.00000000000E+00 -0.00000000000E+00 -0.85613566170E+02  0.85613566170E+02  0.00000000000E+00 0. -1.
         25    2    1    2    0    0  0.00000000000E+00  0.00000000000E+00 -0.39990043602E+02  0.13123708874E+03  0.12499587942E+03 0.  0.
          4    1    3    3  501    0 -0.10565222938E+02 -0.57382666904E+02  0.34632629279E+01  0.58470429166E+02  0.15500000000E+01 0. -1.
         -4    1    3    3    0  501  0.10565222938E+02  0.57382666904E+02 -0.43453306530E+02  0.72766659571E+02  0.15500000000E+01 0. -1.
<mgrwt>
<rscale>  2 0.12499588E+03</rscale>
<asrwt>0</asrwt>
<pdfrwt beam="1">  1       21 0.70190036E-02 0.12499588E+03</pdfrwt>
<pdfrwt beam="2">  1       21 0.13171318E-01 0.12499588E+03</pdfrwt>
<totfact> 0.73206435E+06</totfact>
</mgrwt>
</event>
<event>
 5    0  0.1499088E+000  0.1250030E+03  0.7546771E-02  0.1235065E+00
         21   -1    0    0  503  502  0.00000000000E+00  0.00000000000E+00  0.30047728565E+02  0.30047728565E+02  0.00000000000E+00 0. -1.
         21   -1    0    0  502  503 -0.00000000000E+00 -0.00000000000E+00 -0.13000781225E+03  0.13000781225E+03  0.00000000000E+00 0. -1.
         25    2    1    2    0    0  0.00000000000E+00  0.00000000000E+00 -0.99960083688E+02  0.16005554082E+03  0.12500303123E+03 0.  0.
          4    1    3    3  501    0 -0.29069682510E+02  0.86053576188E+01 -0.11993489518E+03  0.12371693580E+03  0.15500000000E+01 0. -1.
         -4    1    3    3    0  501  0.29069682510E+02 -0.86053576188E+01  0.19974811490E+02  0.36338605023E+02  0.15500000000E+01 0. -1.
<mgrwt>
<rscale>  2 0.12500303E+03</rscale>
<asrwt>0</asrwt>
<pdfrwt beam="1">  1       21 0.46227275E-02 0.12500303E+03</pdfrwt>
<pdfrwt beam="2">  1       21 0.20001202E-01 0.12500303E+03</pdfrwt>
<totfact> 0.69507353E+06</totfact>
</mgrwt>
</event>
<event>
 5    0  0.1546483E+000  0.1249962E+03  0.7546771E-02  0.1235075E+00
         21   -1    0    0  503  502  0.00000000000E+00  0.00000000000E+00  0.40591037261E+02  0.40591037261E+02  0.00000000000E+00 0. -1.
         21   -1    0    0  502  503 -0.00000000000E+00 -0.00000000000E+00 -0.96228413201E+02  0.96228413201E+02  0.00000000000E+00 0. -1.
         25    2    1    2    0    0  0.00000000000E+00  0.00000000000E+00 -0.55637375940E+02  0.13681945046E+03  0.12499617764E+03 0.  0.
          4    1    3    3  501    0 -0.27340104699E+02  0.59260873810E+01 -0.88968989611E+02  0.93276382053E+02  0.15500000000E+01 0.  1.
         -4    1    3    3    0  501  0.27340104699E+02 -0.59260873810E+01  0.33331613671E+02  0.43543068409E+02  0.15500000000E+01 0.  1.
<mgrwt>
<rscale>  2 0.12499618E+03</rscale>
<asrwt>0</asrwt>
<pdfrwt beam="1">  1       21 0.62447750E-02 0.12499618E+03</pdfrwt>
<pdfrwt beam="2">  1       21 0.14804371E-01 0.12499618E+03</pdfrwt>
<totfact> 0.72463513E+06</totfact>
</mgrwt>
</event>
<event>
 5    0  0.1539389E+000  0.1250622E+03  0.7546771E-02  0.1234972E+00
         21   -1    0    0  503  502  0.00000000000E+00  0.00000000000E+00  0.15638140075E+02  0.15638140075E+02  0.00000000000E+00 0. -1.
         21   -1    0    0  502  503 -0.00000000000E+00 -0.00000000000E+00 -0.25003875577E+03  0.25003875577E+03  0.00000000000E+00 0. -1.
         25    2    1    2    0    0  0.00000000000E+00  0.00000000000E+00 -0.23440061570E+03  0.26567689585E+03  0.12506224190E+03 0.  0.
          4    1    3    3  501    0 -0.27608136253E+02 -0.54000317753E+00 -0.23633940966E+03  0.23795213773E+03  0.15500000000E+01 0. -1.
         -4    1    3    3    0  501  0.27608136253E+02  0.54000317753E+00  0.19387939628E+01  0.27724758120E+02  0.15500000000E+01 0. -1.
<mgrwt>
<rscale>  2 0.12506224E+03</rscale>
<asrwt>0</asrwt>
<pdfrwt beam="1">  1       21 0.24058677E-02 0.12506224E+03</pdfrwt>
<pdfrwt beam="2">  1       21 0.38467501E-01 0.12506224E+03</pdfrwt>
<totfact> 0.58341339E+06</totfact>
</mgrwt>
</event>
<event>
 5    0  0.1561948E+000  0.1249996E+03  0.7546771E-02  0.1235070E+00
         21   -1    0    0  503  502  0.00000000000E+00  0.00000000000E+00  0.17575544719E+02  0.17575544719E+02  0.00000000000E+00 0.  1.
         21   -1    0    0  502  503 -0.00000000000E+00 -0.00000000000E+00 -0.22225341702E+03  0.22225341702E+03  0.00000000000E+00 0.  1.
         25    2    1    2    0    0  0.00000000000E+00  0.00000000000E+00 -0.20467787230E+03  0.23982896174E+03  0.12499959792E+03 0.  0.
          4    1    3    3  501    0  0.38037786829E+02  0.49224363448E+02 -0.11351179990E+03  0.12944976786E+03  0.15500000000E+01 0. -1.
         -4    1    3    3    0  501 -0.38037786829E+02 -0.49224363448E+02 -0.91166072406E+02  0.11037919388E+03  0.15500000000E+01 0. -1.
<mgrwt>
<rscale>  2 0.12499960E+03</rscale>
<asrwt>0</asrwt>
<pdfrwt beam="1">  1       21 0.27039299E-02 0.12499960E+03</pdfrwt>
<pdfrwt beam="2">  1       21 0.34192834E-01 0.12499960E+03</pdfrwt>
<totfact> 0.60849834E+06</totfact>
</mgrwt>
</event>
<event>
 5    0  0.1499816E+000  0.1250006E+03  0.7546771E-02  0.1235068E+00
         21   -1    0    0  503  502  0.00000000000E+00  0.00000000000E+00  0.20151182774E+03  0.20151182774E+03  0.00000000000E+00 0.  1.
         21   -1    0    0  502  503 -0.00000000000E+00 -0.00000000000E+00 -0.19384914164E+02  0.19384914164E+02  0.00000000000E+00 0.  1.
         25    2    1    2    0    0  0.00000000000E+00  0.00000000000E+00  0.18212691358E+03  0.22089674191E+03  0.12500063174E+03 0.  0.
          4    1    3    3  501    0 -0.27202119927E+02  0.48890108143E+02  0.41909293453E+02  0.69921308487E+02  0.15500000000E+01 0.  1.
         -4    1    3    3    0  501  0.27202119927E+02 -0.48890108143E+02  0.14021762013E+03  0.15097543342E+03  0.15500000000E+01 0.  1.
<mgrwt>
<rscale>  2 0.12500063E+03</rscale>
<asrwt>0</asrwt>
<pdfrwt beam="1">  1       21 0.31001818E-01 0.12500063E+03</pdfrwt>
<pdfrwt beam="2">  1       21 0.29822946E-02 0.12500063E+03</pdfrwt>
<totfact> 0.62729993E+06</totfact>
</mgrwt>
</event>
<event>
 5    0  0.1222151E+000  0.1250000E+03  0.7546771E-02  0.1235069E+00
         21   -1    0    0  503  502  0.00000000000E+00  0.00000000000E+00  0.48306320347E+01  0.48306320347E+01  0.00000000000E+00 0.  1.
         21   -1    0    0  502  503 -0.00000000000E+00 -0.00000000000E+00 -0.80864106880E+03  0.80864106880E+03  0.00000000000E+00 0.  1.
         25    2    1    2    0    0  0.00000000000E+00  0.00000000000E+00 -0.80381043676E+03  0.81347170083E+03  0.12499995922E+03 0.  0.
          4    1    3    3  501    0  0.43871922169E+02  0.63363869663E+01 -0.68846539604E+03  0.68989267238E+03  0.15500000000E+01 0. -1.
         -4    1    3    3    0  501 -0.43871922169E+02 -0.63363869663E+01 -0.11534504072E+03  0.12357902845E+03  0.15500000000E+01 0. -1.
<mgrwt>
<rscale>  2 0.12499996E+03</rscale>
<asrwt>0</asrwt>
<pdfrwt beam="1">  1       21 0.74317381E-03 0.12499996E+03</pdfrwt>
<pdfrwt beam="2">  1       21 0.12440638E+00 0.12499996E+03</pdfrwt>
<totfact> 0.28921317E+06</totfact>
</mgrwt>
</event>
<event>
 4    0  0.1222151E+000  0.1248162E+03  0.7546771E-02  0.1235357E+00
         21   -1    0    0  503  502  0.00000000000E+00  0.00000000000E+00  0.14992396266E+04  0.14992396266E+04  0.00000000000E+00 0.  1.
         21   -1    0    0  502  503 -0.00000000000E+00 -0.00000000000E+00 -0.25978301004E+01  0.25978301004E+01  0.00000000000E+00 0.  1.
          4    1    1    2  501    0 -0.58406524506E+02 -0.61003141626E+01  0.10018110233E+04  0.10035318953E+04  0.15500000000E+01 0. -1.
         -4    1    1    2    0  501  0.58406524506E+02  0.61003141626E+01  0.49483077320E+03  0.49830556142E+03  0.15500000000E+01 0. -1.
<mgrwt>
<rscale>  2 0.12481618E+03</rscale>
<asrwt>0</asrwt>
<pdfrwt beam="1">  1       21 0.23065156E+00 0.12481618E+03</pdfrwt>
<pdfrwt beam="2">  1       21 0.39966737E-03 0.12481618E+03</pdfrwt>
<totfact> 0.14029962E+06</totfact>
</mgrwt>
</event>
<event>
 5    0  0.1472435E+000  0.1249546E+03  0.7546771E-02  0.1235140E+00
         21   -1    0    0  503  502  0.00000000000E+00  0.00000000000E+00  0.18048265045E+02  0.18048265045E+02  0.00000000000E+00 0.  1.
         21   -1    0    0  502  503 -0.00000000000E+00 -0.00000000000E+00 -0.21627643842E+03  0.21627643842E+03  0.00000000000E+00 0.  1.
         25    2    1    2    0    0  0.00000000000E+00  0.00000000000E+00 -0.19822817337E+03  0.23432470347E+03  0.12495462350E+03 0.  0.
          4    1    3    3  501    0 -0.42043063334E+02 -0.46095490924E+02 -0.93615162381E+02  0.11251050878E+03  0.15500000000E+01 0. -1.
         -4    1    3    3    0  501  0.42043063334E+02  0.46095490924E+02 -0.10461301099E+03  0.12181419469E+03  0.15500000000E+01 0. -1.
<mgrwt>
<rscale>  2 0.12495462E+03</rscale>
<asrwt>0</asrwt>
<pdfrwt beam="1">  1       21 0.27766563E-02 0.12495462E+03</pdfrwt>
<pdfrwt beam="2">  1       21 0.33273297E-01 0.12495462E+03</pdfrwt>
<totfact> 0.61456559E+06</totfact>
</mgrwt>
</event>
<event>
 5    0  0.1222151E+000  0.1249911E+03  0.7546771E-02  0.1235083E+00
         21   -1    0    0  503  502  0.00000000000E+00  0.00000000000E+00  0.91290719488E+03  0.91290719488E+03  0.00000000000E+00 0. -1.
         21   -1    0    0  502  503 -0.00000000000E+00 -0.00000000000E+00 -0.42783043272E+01  0.42783043272E+01  0.00000000000E+00 0. -1.
         25    2    1    2    0    0  0.00000000000E+00  0.00000000000E+00  0.90862889055E+03  0.91718549921E+03  0.12499111652E+03 0.  0.
          4    1    3    3  501    0 -0.30702063684E+02  0.32411308747E+02  0.77502664511E+03  0.77631296059E+03  0.15500000000E+01 0.  1.
         -4    1    3    3    0  501  0.30702063684E+02 -0.32411308747E+02  0.13360224544E+03  0.14087253862E+03  0.15500000000E+01 0.  1.
<mgrwt>
<rscale>  2 0.12499112E+03</rscale>
<asrwt>0</asrwt>
<pdfrwt beam="1">  1       21 0.14044711E+00 0.12499112E+03</pdfrwt>
<pdfrwt beam="2">  1       21 0.65820139E-03 0.12499112E+03</pdfrwt>
<totfact> 0.25816685E+06</totfact>
</mgrwt>
</event>
<event>
 5    0  0.1443512E+000  0.1250000E+03  0.7546771E-02  0.1235069E+00
         21   -1    0    0  503  502  0.00000000000E+00  0.00000000000E+00  0.19198992802E+03  0.19198992802E+03  0.00000000000E+00 0.  1.
         21   -1    0    0  502  503 -0.00000000000E+00 -0.00000000000E+00 -0.20346118519E+02  0.20346118519E+02  0.00000000000E+00 0.  1.
         25    2    1    2    0    0  0.00000000000E+00  0.00000000000E+00  0.17164380951E+03  0.21233604654E+03  0.12499999728E+03 0.  0.
          4    1    3    3  501    0 -0.25525808430E+02 -0.32575159646E+02  0.16533684343E+03  0.17044466028E+03  0.15500000000E+01 0. -1.
         -4    1    3    3    0  501  0.25525808430E+02  0.32575159646E+02  0.63069660717E+01  0.41891386262E+02  0.15500000000E+01 0. -1.
<mgrwt>
<rscale>  2 0.12500000E+03</rscale>
<asrwt>0</asrwt>
<pdfrwt beam="1">  1       21 0.29536911E-01 0.12500000E+03</pdfrwt>
<pdfrwt beam="2">  1       21 0.31301722E-02 0.12500000E+03</pdfrwt>
<totfact> 0.63614597E+06</totfact>
</mgrwt>
</event>
<event>
 5    0  0.1603971E+000  0.1249936E+03  0.7546771E-02  0.1235079E+00
         21   -1    0    0  503  502  0.00000000000E+00  0.00000000000E+00  0.64681783619E+02  0.64681783619E+02  0.00000000000E+00 0. -1.
         21   -1    0    0  502  503 -0.00000000000E+00 -0.00000000000E+00 -0.60385645084E+02  0.60385645084E+02  0.00000000000E+00 0. -1.
         25    2    1    2    0    0  0.00000000000E+00  0.00000000000E+00  0.42961385351E+01  0.12506742870E+03  0.12499361950E+03 0.  0.
          4    1    3    3  501    0  0.15968894152E+02  0.59804144320E+02 -0.63367653875E+01  0.62242255372E+02  0.15500000000E+01 0.  1.
         -4    1    3    3    0  501 -0.15968894152E+02 -0.59804144320E+02  0.10632903923E+02  0.62825173331E+02  0.15500000000E+01 0.  1.
<mgrwt>
<rscale>  2 0.12499362E+03</rscale>
<asrwt>0</asrwt>
<pdfrwt beam="1">  1       21 0.99510436E-02 0.12499362E+03</pdfrwt>
<pdfrwt beam="2">  1       21 0.92900993E-02 0.12499362E+03</pdfrwt>
<totfact> 0.74046552E+06</totfact>
</mgrwt>
</event>
<event>
 5    0  0.1432830E+000  0.1249986E+03  0.7546771E-02  0.1235072E+00
         21   -1    0    0  503  502  0.00000000000E+00  0.00000000000E+00  0.10629241386E+02  0.10629241386E+02  0.00000000000E+00 0. -1.
         21   -1    0    0  502  503 -0.00000000000E+00 -0.00000000000E+00 -0.36749197776E+03  0.36749197776E+03  0.00000000000E+00 0. -1.
         25    2    1    2    0    0  0.00000000000E+00  0.00000000000E+00 -0.35686273637E+03  0.37812121914E+03  0.12499857502E+03 0.  0.
          4    1    3    3  501    0 -0.28991984952E+02  0.24089328306E+02 -0.27698484581E+02  0.46802131124E+02  0.15500000000E+01 0. -1.
         -4    1    3    3    0  501  0.28991984952E+02 -0.24089328306E+02 -0.32916425179E+03  0.33131908802E+03  0.15500000000E+01 0. -1.
<mgrwt>
<rscale>  2 0.12499858E+03</rscale>
<asrwt>0</asrwt>
<pdfrwt beam="1">  1       21 0.16352679E-02 0.12499858E+03</pdfrwt>
<pdfrwt beam="2">  1       21 0.56537228E-01 0.12499858E+03</pdfrwt>
<totfact> 0.49528090E+06</totfact>
</mgrwt>
</event>
<event>
 5    0  0.1272601E+000  0.1250001E+03  0.7546771E-02  0.1235069E+00
         21   -1    0    0  503  502  0.00000000000E+00  0.00000000000E+00  0.99710003985E+01  0.99710003985E+01  0.00000000000E+00 0. -1.
         21   -1    0    0  502  503 -0.00000000000E+00 -0.00000000000E+00 -0.39176198242E+03  0.39176198242E+03  0.00000000000E+00 0. -1.
         25    2    1    2    0    0  0.00000000000E+00  0.00000000000E+00 -0.38179098202E+03  0.40173298282E+03  0.12500014212E+03 0.  0.
          4    1    3    3  501    0 -0.18918548365E+02 -0.88900099357E+01 -0.16618126498E+01  0.21026361316E+02  0.15500000000E+01 0. -1.
         -4    1    3    3    0  501  0.18918548365E+02  0.88900099357E+01 -0.38012916937E+03  0.38070662150E+03  0.15500000000E+01 0. -1.
<mgrwt>
<rscale>  2 0.12500014E+03</rscale>
<asrwt>0</asrwt>
<pdfrwt beam="1">  1       21 0.15340000E-02 0.12500014E+03</pdfrwt>
<pdfrwt beam="2">  1       21 0.60271076E-01 0.12500014E+03</pdfrwt>
<totfact> 0.47926445E+06</totfact>
</mgrwt>
</event>
<event>
 5    0  0.1595770E+000  0.1249798E+03  0.7546771E-02  0.1235101E+00
         21   -1    0    0  503  502  0.00000000000E+00  0.00000000000E+00  0.21540220702E+02  0.21540220702E+02  0.00000000000E+00 0. -1.
         21   -1    0    0  502  503 -0.00000000000E+00 -0.00000000000E+00 -0.18128824438E+03  0.18128824438E+03  0.00000000000E+00 0. -1.
         25    2    1    2    0    0  0.00000000000E+00  0.00000000000E+00 -0.15974802368E+03  0.20282846508E+03  0.12497981908E+03 0.  0.
          4    1    3    3  501    0 -0.52368019501E+02  0.22277851985E+02 -0.12168899132E+03  0.13434777730E+03  0.15500000000E+01 0.  1.
         -4    1    3    3    0  501  0.52368019501E+02 -0.22277851985E+02 -0.38059032354E+02  0.68480687783E+02  0.15500000000E+01 0.  1.
<mgrwt>
<rscale>  2 0.12497982E+03</rscale>
<asrwt>0</asrwt>
<pdfrwt beam="1">  1       21 0.33138802E-02 0.12497982E+03</pdfrwt>
<pdfrwt beam="2">  1       21 0.27890498E-01 0.12497982E+03</pdfrwt>
<totfact> 0.64655070E+06</totfact>
</mgrwt>
</event>
<event>
 5    0  0.1416571E+000  0.1249947E+03  0.7546771E-02  0.1235078E+00
         21   -1    0    0  503  502  0.00000000000E+00  0.00000000000E+00  0.99938481727E+01  0.99938481727E+01  0.00000000000E+00 0. -1.
         21   -1    0    0  502  503 -0.00000000000E+00 -0.00000000000E+00 -0.39083252721E+03  0.39083252721E+03  0.00000000000E+00 0. -1.
         25    2    1    2    0    0  0.00000000000E+00  0.00000000000E+00 -0.38083867904E+03  0.40082637538E+03  0.12499473490E+03 0.  0.
          4    1    3    3  501    0  0.75166502538E+01 -0.54132381985E+02 -0.93328323316E+02  0.10816373349E+03  0.15500000000E+01 0. -1.
         -4    1    3    3    0  501 -0.75166502538E+01  0.54132381985E+02 -0.28751035572E+03  0.29266264189E+03  0.15500000000E+01 0. -1.
<mgrwt>
<rscale>  2 0.12499473E+03</rscale>
<asrwt>0</asrwt>
<pdfrwt beam="1">  1       21 0.15375149E-02 0.12499473E+03</pdfrwt>
<pdfrwt beam="2">  1       21 0.60128087E-01 0.12499473E+03</pdfrwt>
<totfact> 0.47992899E+06</totfact>
</mgrwt>
</event>
<event>
 5    0  0.1418878E+000  0.1250453E+03  0.7546771E-02  0.1234999E+00
         21   -1    0    0  503  502  0.00000000000E+00  0.00000000000E+00  0.35703370806E+03  0.35703370806E+03  0.00000000000E+00 0.  1.
         21   -1    0    0  502  503 -0.00000000000E+00 -0.00000000000E+00 -0.10948768143E+02  0.10948768143E+02  0.00000000000E+00 0.  1.
         25    2    1    2    0    0  0.00000000000E+00  0.00000000000E+00  0.34608493992E+03  0.36798247620E+03  0.12504526042E+03 0.  0.
          4    1    3    3  501    0  0.44273825675E+02 -0.42861098372E+02  0.14225805743E+03  0.15503871387E+03  0.15500000000E+01 0.  1.
         -4    1    3    3    0  501 -0.44273825675E+02  0.42861098372E+02  0.20382688248E+03  0.21294376233E+03  0.15500000000E+01 0.  1.
<mgrwt>
<rscale>  2 0.12504526E+03</rscale>
<asrwt>0</asrwt>
<pdfrwt beam="1">  1       21 0.54928254E-01 0.12504526E+03</pdfrwt>
<pdfrwt beam="2">  1       21 0.16844261E-02 0.12504526E+03</pdfrwt>
<totfact> 0.50180316E+06</totfact>
</mgrwt>
</event>
<event>
 5    0  0.1381487E+000  0.1249997E+03  0.7546771E-02  0.1235070E+00
         21   -1    0    0  503  502  0.00000000000E+00  0.00000000000E+00  0.39566454560E+03  0.39566454560E+03  0.00000000000E+00 0. -1.
         21   -1    0    0  502  503 -0.00000000000E+00 -0.00000000000E+00 -0.98725889671E+01  0.98725889671E+01  0.00000000000E+00 0. -1.
         25    2    1    2    0    0  0.00000000000E+00  0.00000000000E+00  0.38579195664E+03  0.40553713457E+03  0.12499973484E+03 0.  0.
          4    1    3    3  501    0  0.49934922435E+02  0.10622934504E+02  0.30975793755E+03  0.31394064024E+03  0.15500000000E+01 0. -1.
         -4    1    3    3    0  501 -0.49934922435E+02 -0.10622934504E+02  0.76034019088E+02  0.91596494337E+02  0.15500000000E+01 0. -1.
<mgrwt>
<rscale>  2 0.12499973E+03</rscale>
<asrwt>0</asrwt>
<pdfrwt beam="1">  1       21 0.60871456E-01 0.12499973E+03</pdfrwt>
<pdfrwt beam="2">  1       21 0.15188602E-02 0.12499973E+03</pdfrwt>
<totfact> 0.47676555E+06</totfact>
</mgrwt>
</event>
<event>
 5    0  0.1323495E+000  0.1250035E+03  0.7546771E-02  0.1235064E+00
         21   -1    0    0  503  502  0.00000000000E+00  0.00000000000E+00  0.43356599861E+02  0.43356599861E+02  0.00000000000E+00 0. -1.
         21   -1    0    0  502  503 -0.00000000000E+00 -0.00000000000E+00 -0.90100931748E+02  0.90100931748E+02  0.00000000000E+00 0. -1.
         25    2    1    2    0    0  0.00000000000E+00  0.00000000000E+00 -0.46744331887E+02  0.13345753161E+03  0.12500352067E+03 0.  0.
          4    1    3    3  501    0  0.16294678878E+02 -0.17077353080E+02 -0.85137270990E+02  0.88362378644E+02  0.15500000000E+01 0. -1.
         -4    1    3    3    0  501 -0.16294678878E+02  0.17077353080E+02  0.38392939103E+02  0.45095152965E+02  0.15500000000E+01 0. -1.
<mgrwt>
<rscale>  2 0.12500352E+03</rscale>
<asrwt>0</asrwt>
<pdfrwt beam="1">  1       21 0.66702462E-02 0.12500352E+03</pdfrwt>
<pdfrwt beam="2">  1       21 0.13861682E-01 0.12500352E+03</pdfrwt>
<totfact> 0.72894817E+06</totfact>
</mgrwt>
</event>
<event>
 5    0  0.1222151E+000  0.1250027E+03  0.7546771E-02  0.1235065E+00
         21   -1    0    0  503  502  0.00000000000E+00  0.00000000000E+00  0.99593388927E+03  0.99593388927E+03  0.00000000000E+00 0.  1.
         21   -1    0    0  502  503 -0.00000000000E+00 -0.00000000000E+00 -0.39223687904E+01  0.39223687904E+01  0.00000000000E+00 0.  1.
         25    2    1    2    0    0  0.00000000000E+00  0.00000000000E+00  0.99201152048E+03  0.99985625806E+03  0.12500272004E+03 0.  0.
          4    1    3    3  501    0  0.38695725005E+01  0.27366554122E+02  0.94422544529E+03  0.94463114277E+03  0.15500000000E+01 0.  1.
         -4    1    3    3    0  501 -0.38695725005E+01 -0.27366554122E+02  0.47786075194E+02  0.55225115285E+02  0.15500000000E+01 0.  1.
<mgrwt>
<rscale>  2 0.12500272E+03</rscale>
<asrwt>0</asrwt>
<pdfrwt beam="1">  1       21 0.15322040E+00 0.12500272E+03</pdfrwt>
<pdfrwt beam="2">  1       21 0.60344215E-03 0.12500272E+03</pdfrwt>
<totfact> 0.23620725E+06</totfact>
</mgrwt>
</event>
<event>
 5    0  0.1222151E+000  0.1250029E+03  0.7546771E-02  0.1235065E+00
         21   -1    0    0  503  502  0.00000000000E+00  0.00000000000E+00  0.89879952369E+03  0.89879952369E+03  0.00000000000E+00 0. -1.
         21   -1    0    0  502  503 -0.00000000000E+00 -0.00000000000E+00 -0.43462740693E+01  0.43462740693E+01  0.00000000000E+00 0. -1.
         25    2    1    2    0    0  0.00000000000E+00  0.00000000000E+00  0.89445324962E+03  0.90314579775E+03  0.12500286498E+03 0.  0.
          4    1    3    3  501    0  0.65700411991E+01  0.51736021775E+02  0.69585959050E+03  0.69781283564E+03  0.15500000000E+01 0. -1.
         -4    1    3    3    0  501 -0.65700411991E+01 -0.51736021775E+02  0.19859365911E+03  0.20533296211E+03  0.15500000000E+01 0. -1.
<mgrwt>
<rscale>  2 0.12500286E+03</rscale>
<asrwt>0</asrwt>
<pdfrwt beam="1">  1       21 0.13827670E+00 0.12500286E+03</pdfrwt>
<pdfrwt beam="2">  1       21 0.66865827E-03 0.12500286E+03</pdfrwt>
<totfact> 0.26207032E+06</totfact>
</mgrwt>
</event>
<event>
 5    0  0.1611887E+000  0.1249998E+03  0.7546771E-02  0.1235070E+00
         21   -1    0    0  503  502  0.00000000000E+00  0.00000000000E+00  0.58382215823E+02  0.58382215823E+02  0.00000000000E+00 0.  1.
         21   -1    0    0  502  503 -0.00000000000E+00 -0.00000000000E+00 -0.66908022372E+02  0.66908022372E+02  0.00000000000E+00 0.  1.
         25    2    1    2    0    0  0.00000000000E+00  0.00000000000E+00 -0.85258065497E+01  0.12529023820E+03  0.12499981764E+03 0.  0.
          4    1    3    3  501    0 -0.47833713997E+02  0.24112955121E+02  0.27972933591E+02  0.60451520354E+02  0.15500000000E+01 0. -1.
         -4    1    3    3    0  501  0.47833713997E+02 -0.24112955121E+02 -0.36498740141E+02  0.64838717841E+02  0.15500000000E+01 0. -1.
<mgrwt>
<rscale>  2 0.12499982E+03</rscale>
<asrwt>0</asrwt>
<pdfrwt beam="1">  1       21 0.89818793E-02 0.12499982E+03</pdfrwt>
<pdfrwt beam="2">  1       21 0.10293542E-01 0.12499982E+03</pdfrwt>
<totfact> 0.74004734E+06</totfact>
</mgrwt>
</event>
<event>
 5    0  0.1534841E+000  0.1249984E+03  0.7546771E-02  0.1235072E+00
         21   -1    0    0  503  502  0.00000000000E+00  0.00000000000E+00  0.14930559949E+03  0.14930559949E+03  0.00000000000E+00 0.  1.
         21   -1    0    0  502  503 -0.00000000000E+00 -0.00000000000E+00 -0.26162100012E+02  0.26162100012E+02  0.00000000000E+00 0.  1.
         25    2    1    2    0    0  0.00000000000E+00  0.00000000000E+00  0.12314349948E+03  0.17546769950E+03  0.12499836841E+03 0.  0.
          4    1    3    3  501    0  0.56610512486E+02  0.20912985390E+01  0.98568797071E+02  0.11369843407E+03  0.15500000000E+01 0.  1.
         -4    1    3    3    0  501 -0.56610512486E+02 -0.20912985390E+01  0.24574702405E+02  0.61769265431E+02  0.15500000000E+01 0.  1.
<mgrwt>
<rscale>  2 0.12499837E+03</rscale>
<asrwt>0</asrwt>
<pdfrwt beam="1">  1       21 0.22970092E-01 0.12499837E+03</pdfrwt>
<pdfrwt beam="2">  1       21 0.40249385E-02 0.12499837E+03</pdfrwt>
<totfact> 0.67678112E+06</totfact>
</mgrwt>
</event>
<event>
 5    0  0.1510249E+000  0.1249994E+03  0.7546771E-02  0.1235070E+00
         21   -1    0    0  503  502  0.00000000000E+00  0.00000000000E+00  0.17371334156E+03  0.17371334156E+03  0.00000000000E+00 0. -1.
         21   -1    0    0  502  503 -0.00000000000E+00 -0.00000000000E+00 -0.22486532624E+02  0.22486532624E+02  0.00000000000E+00 0. -1.
         25    2    1    2    0    0  0.00000000000E+00  0.00000000000E+00  0.15122680893E+03  0.19619987418E+03  0.12499937155E+03 0.  0.
          4    1    3    3  501    0 -0.83214842698E+01 -0.51028460888E+02  0.13067635273E+03  0.14054131984E+03  0.15500000000E+01 0. -1.
         -4    1    3    3    0  501  0.83214842698E+01  0.51028460888E+02  0.20550456210E+02  0.55658554342E+02  0.15500000000E+01 0. -1.
<mgrwt>
<rscale>  2 0.12499937E+03</rscale>
<asrwt>0</asrwt>
<pdfrwt beam="1">  1       21 0.26725129E-01 0.12499937E+03</pdfrwt>
<pdfrwt beam="2">  1       21 0.34594667E-02 0.12499937E+03</pdfrwt>
<totfact> 0.65340979E+06</totfact>
</mgrwt>
</event>
<event>
 5    0  0.1550286E+000  0.1249984E+03  0.7546771E-02  0.1235072E+00
         21   -1    0    0  503  502  0.00000000000E+00  0.00000000000E+00  0.64413312402E+02  0.64413312402E+02  0.00000000000E+00 0.  1.
         21   -1    0    0  502  503 -0.00000000000E+00 -0.00000000000E+00 -0.60641934216E+02  0.60641934216E+02  0.00000000000E+00 0.  1.
         25    2    1    2    0    0  0.00000000000E+00  0.00000000000E+00  0.37713781854E+01  0.12505524662E+03  0.12499836564E+03 0.  0.
          4    1    3    3  501    0  0.19628533365E+02 -0.42291782114E+02 -0.39724957668E+02  0.61272742049E+02  0.15500000000E+01 0.  1.
         -4    1    3    3    0  501 -0.19628533365E+02  0.42291782114E+02  0.43496335854E+02  0.63782504569E+02  0.15500000000E+01 0.  1.
<mgrwt>
<rscale>  2 0.12499837E+03</rscale>
<asrwt>0</asrwt>
<pdfrwt beam="1">  1       21 0.99097404E-02 0.12499837E+03</pdfrwt>
<pdfrwt beam="2">  1       21 0.93295283E-02 0.12499837E+03</pdfrwt>
<totfact> 0.74039213E+06</totfact>
</mgrwt>
</event>
<event>
 5    0  0.1417087E+000  0.1249939E+03  0.7546771E-02  0.1235079E+00
         21   -1    0    0  503  502  0.00000000000E+00  0.00000000000E+00  0.80427301901E+01  0.80427301901E+01  0.00000000000E+00 0. -1.
         21   -1    0    0  502  503 -0.00000000000E+00 -0.00000000000E+00 -0.48563985346E+03  0.48563985346E+03  0.00000000000E+00 0. -1.
         25    2    1    2    0    0  0.00000000000E+00  0.00000000000E+00 -0.47759712327E+03  0.49368258365E+03  0.12499392483E+03 0.  0.
          4    1    3    3  501    0  0.60474350782E+02 -0.95544468536E+01 -0.18962050848E+03  0.19926558733E+03  0.15500000000E+01 0.  1.
         -4    1    3    3    0  501 -0.60474350782E+02  0.95544468536E+01 -0.28797661479E+03  0.29441699632E+03  0.15500000000E+01 0.  1.
<mgrwt>
<rscale>  2 0.12499392E+03</rscale>
<asrwt>0</asrwt>
<pdfrwt beam="1">  1       21 0.12373431E-02 0.12499392E+03</pdfrwt>
<pdfrwt beam="2">  1       21 0.74713822E-01 0.12499392E+03</pdfrwt>
<totfact> 0.42395178E+06</totfact>
</mgrwt>
</event>
<event>
 4    0  0.1698986E+000  0.1248624E+03  0.7546771E-02  0.1235285E+00
         21   -1    0    0  503  502  0.00000000000E+00  0.00000000000E+00  0.15226589719E+03  0.15226589719E+03  0.00000000000E+00 0. -1.
         21   -1    0    0  502  503 -0.00000000000E+00 -0.00000000000E+00 -0.25597673192E+02  0.25597673192E+02  0.00000000000E+00 0. -1.
          4    1    1    2  501    0 -0.48082549920E+02 -0.43018057769E+01  0.11968317125E+03  0.12906161754E+03  0.15500000000E+01 0. -1.
         -4    1    1    2    0  501  0.48082549920E+02  0.43018057769E+01  0.69850527449E+01  0.48801952847E+02  0.15500000000E+01 0. -1.
<mgrwt>
<rscale>  2 0.12486237E+03</rscale>
<asrwt>0</asrwt>
<pdfrwt beam="1">  1       21 0.23425522E-01 0.12486237E+03</pdfrwt>
<pdfrwt beam="2">  1       21 0.39381037E-02 0.12486237E+03</pdfrwt>
<totfact> 0.67633319E+06</totfact>
</mgrwt>
</event>
<event>
 5    0  0.1518740E+000  0.1249934E+03  0.7546771E-02  0.1235080E+00
         21   -1    0    0  503  502  0.00000000000E+00  0.00000000000E+00  0.12147286239E+02  0.12147286239E+02  0.00000000000E+00 0. -1.
         21   -1    0    0  502  503 -0.00000000000E+00 -0.00000000000E+00 -0.32153979473E+03  0.32153979473E+03  0.00000000000E+00 0. -1.
         25    2    1    2    0    0  0.00000000000E+00  0.00000000000E+00 -0.30939250849E+03  0.33368708097E+03  0.12499337461E+03 0.  0.
          4    1    3    3  501    0  0.83351391457E+01  0.61196771807E+02 -0.12952310950E+03  0.14350316310E+03  0.15500000000E+01 0.  1.
         -4    1    3    3    0  501 -0.83351391457E+01 -0.61196771807E+02 -0.17986939899E+03  0.19018391787E+03  0.15500000000E+01 0.  1.
<mgrwt>
<rscale>  2 0.12499337E+03</rscale>
<asrwt>0</asrwt>
<pdfrwt beam="1">  1       21 0.18688134E-02 0.12499337E+03</pdfrwt>
<pdfrwt beam="2">  1       21 0.49467657E-01 0.12499337E+03</pdfrwt>
<totfact> 0.52774995E+06</totfact>
</mgrwt>
</event>
<event>
 5    0  0.1496160E+000  0.1250004E+03  0.7546771E-02  0.1235069E+00
         21   -1    0    0  503  502  0.00000000000E+00  0.00000000000E+00  0.32189842502E+02  0.32189842502E+02  0.00000000000E+00 0.  1.
         21   -1    0    0  502  503 -0.00000000000E+00 -0.00000000000E+00 -0.12135108748E+03  0.12135108748E+03  0.00000000000E+00 0.  1.
         25    2    1    2    0    0  0.00000000000E+00  0.00000000000E+00 -0.89161244978E+02  0.15354092998E+03  0.12500035829E+03 0.  0.
          4    1    3    3  501    0  0.53578112681E+02  0.66339785983E+01 -0.59470318115E+01  0.54335932107E+02  0.15500000000E+01 0. -1.
         -4    1    3    3    0  501 -0.53578112681E+02 -0.66339785983E+01 -0.83214213167E+02  0.99204997876E+02  0.15500000000E+01 0. -1.
<mgrwt>
<rscale>  2 0.12500036E+03</rscale>
<asrwt>0</asrwt>
<pdfrwt beam="1">  1       21 0.49522835E-02 0.12500036E+03</pdfrwt>
<pdfrwt beam="2">  1       21 0.18669398E-01 0.12500036E+03</pdfrwt>
<totfact> 0.70316537E+06</totfact>
</mgrwt>
</event>
<event>
 5    0  0.1607460E+000  0.1249968E+03  0.7546771E-02  0.1235074E+00
         21   -1    0    0  503  502  0.00000000000E+00  0.00000000000E+00  0.34295228350E+02  0.34295228350E+02  0.00000000000E+00 0. -1.
         21   -1    0    0  502  503 -0.00000000000E+00 -0.00000000000E+00 -0.11389491537E+03  0.11389491537E+03  0.00000000000E+00 0. -1.
         25    2    1    2    0    0  0.00000000000E+00  0.00000000000E+00 -0.79599687016E+02  0.14819014372E+03  0.12499683405E+03 0.  0.
          4    1    3    3  501    0 -0.43220799405E+01  0.45398291320E+02 -0.90432240149E+02  0.10129204208E+03  0.15500000000E+01 0.  1.
         -4    1    3    3    0  501  0.43220799405E+01 -0.45398291320E+02  0.10832553134E+02  0.46898101638E+02  0.15500000000E+01 0.  1.
<mgrwt>
<rscale>  2 0.12499683E+03</rscale>
<asrwt>0</asrwt>
<pdfrwt beam="1">  1       21 0.52761890E-02 0.12499683E+03</pdfrwt>
<pdfrwt beam="2">  1       21 0.17522295E-01 0.12499683E+03</pdfrwt>
<totfact> 0.70993021E+06</totfact>
</mgrwt>
</event>
<event>
 5    0  0.1582495E+000  0.1250021E+03  0.7546771E-02  0.1235066E+00
         21   -1    0    0  503  502  0.00000000000E+00  0.00000000000E+00  0.14882267372E+03  0.14882267372E+03  0.00000000000E+00 0. -1.
         21   -1    0    0  502  503 -0.00000000000E+00 -0.00000000000E+00 -0.26248546563E+02  0.26248546563E+02  0.00000000000E+00 0. -1.
         25    2    1    2    0    0  0.00000000000E+00  0.00000000000E+00  0.12257412716E+03  0.17507122028E+03  0.12500206208E+03 0.  0.
          4    1    3    3  501    0  0.53718855541E+02 -0.27614471869E+02  0.83682758622E+02  0.10321570175E+03  0.15500000000E+01 0. -1.
         -4    1    3    3    0  501 -0.53718855541E+02  0.27614471869E+02  0.38891368536E+02  0.71855518534E+02  0.15500000000E+01 0. -1.
<mgrwt>
<rscale>  2 0.12500206E+03</rscale>
<asrwt>0</asrwt>
<pdfrwt beam="1">  1       21 0.22895795E-01 0.12500206E+03</pdfrwt>
<pdfrwt beam="2">  1       21 0.40382380E-02 0.12500206E+03</pdfrwt>
<totfact> 0.67717955E+06</totfact>
</mgrwt>
</event>
<event>
 5    0  0.1251108E+000  0.1249964E+03  0.7546771E-02  0.1235075E+00
         21   -1    0    0  503  502  0.00000000000E+00  0.00000000000E+00  0.76046778047E+03  0.76046778047E+03  0.00000000000E+00 0.  1.
         21   -1    0    0  502  503 -0.00000000000E+00 -0.00000000000E+00 -0.51363451700E+01  0.51363451700E+01  0.00000000000E+00 0.  1.
         25    2    1    2    0    0  0.00000000000E+00  0.00000000000E+00  0.75533143530E+03  0.76560412564E+03  0.12499640013E+03 0.  0.
          4    1    3    3  501    0  0.23107782274E+02  0.30090800574E+02  0.68171531959E+03  0.68277200099E+03  0.15500000000E+01 0.  1.
         -4    1    3    3    0  501 -0.23107782274E+02 -0.30090800574E+02  0.73616115713E+02  0.82832124647E+02  0.15500000000E+01 0.  1.
<mgrwt>
<rscale>  2 0.12499640E+03</rscale>
<asrwt>0</asrwt>
<pdfrwt beam="1">  1       21 0.11699495E+00 0.12499640E+03</pdfrwt>
<pdfrwt beam="2">  1       21 0.79020755E-03 0.12499640E+03</pdfrwt>
<totfact> 0.30530230E+06</totfact>
</mgrwt>
</event>
<event>
 5    0  0.1535932E+000  0.1249909E+03  0.7546771E-02  0.1235083E+00
         21   -1    0    0  503  502  0.00000000000E+00  0.00000000000E+00  0.33300360069E+02  0.33300360069E+02  0.00000000000E+00 0.  1.
         21   -1    0    0  502  503 -0.00000000000E+00 -0.00000000000E+00 -0.11728647661E+03  0.11728647661E+03  0.00000000000E+00 0.  1.
         25    2    1    2    0    0  0.00000000000E+00  0.00000000000E+00 -0.83986116536E+02  0.15058683667E+03  0.12499091011E+03 0.  0.
          4    1    3    3  501    0 -0.20838808128E+02  0.58779148933E+02 -0.37479523620E+02  0.72776105036E+02  0.15500000000E+01 0. -1.
         -4    1    3    3    0  501  0.20838808128E+02 -0.58779148933E+02 -0.46506592916E+02  0.77810731639E+02  0.15500000000E+01 0. -1.
<mgrwt>
<rscale>  2 0.12499091E+03</rscale>
<asrwt>0</asrwt>
<pdfrwt beam="1">  1       21 0.51231324E-02 0.12499091E+03</pdfrwt>
<pdfrwt beam="2">  1       21 0.18044073E-01 0.12499091E+03</pdfrwt>
<totfact> 0.70701919E+06</totfact>
</mgrwt>
</event>
<event>
 5    0  0.1222151E+000  0.1250017E+03  0.7546771E-02  0.1235067E+00
         21   -1    0    0  503  502  0.00000000000E+00  0.00000000000E+00  0.25715696992E+01  0.25715696992E+01  0.00000000000E+00 0. -1.
         21   -1    0    0  502  503 -0.00000000000E+00 -0.00000000000E+00 -0.15190561496E+04  0.15190561496E+04  0.00000000000E+00 0. -1.
         25    2    1    2    0    0  0.00000000000E+00  0.00000000000E+00 -0.15164845799E+04  0.15216277193E+04  0.12500174024E+03 0.  0.
          4    1    3    3  501    0 -0.49135890550E+02  0.25101801817E+02 -0.40136380772E+03  0.40514163553E+03  0.15500000000E+01 0.  1.
         -4    1    3    3    0  501  0.49135890550E+02 -0.25101801817E+02 -0.11151207722E+04  0.11164860837E+04  0.15500000000E+01 0.  1.
<mgrwt>
<rscale>  2 0.12500174E+03</rscale>
<asrwt>0</asrwt>
<pdfrwt beam="1">  1       21 0.39562630E-03 0.12500174E+03</pdfrwt>
<pdfrwt beam="2">  1       21 0.23370083E+00 0.12500174E+03</pdfrwt>
<totfact> 0.13674570E+06</totfact>
</mgrwt>
</event>
<event>
 5    0  0.1655577E+000  0.1249995E+03  0.7546771E-02  0.1235070E+00
         21   -1    0    0  503  502  0.00000000000E+00  0.00000000000E+00  0.20145934399E+03  0.20145934399E+03  0.00000000000E+00 0.  1.
         21   -1    0    0  502  503 -0.00000000000E+00 -0.00000000000E+00 -0.19389613157E+02  0.19389613157E+02  0.00000000000E+00 0.  1.
         25    2    1    2    0    0  0.00000000000E+00  0.00000000000E+00  0.18206973084E+03  0.22084895715E+03  0.12499949995E+03 0.  0.
          4    1    3    3  501    0 -0.50939604153E+02 -0.33516952359E+02  0.11510401317E+03  0.13026728567E+03  0.15500000000E+01 0. -1.
         -4    1    3    3    0  501  0.50939604153E+02  0.33516952359E+02  0.66965717665E+02  0.90581671485E+02  0.15500000000E+01 0. -1.
<mgrwt>
<rscale>  2 0.12499950E+03</rscale>
<asrwt>0</asrwt>
<pdfrwt beam="1">  1       21 0.30993744E-01 0.12499950E+03</pdfrwt>
<pdfrwt beam="2">  1       21 0.29830175E-02 0.12499950E+03</pdfrwt>
<totfact> 0.62736659E+06</totfact>
</mgrwt>
</event>
<event>
 5    0  0.1660252E+000  0.1249976E+03  0.7546771E-02  0.1235073E+00
         21   -1    0    0  503  502  0.00000000000E+00  0.00000000000E+00  0.22014649709E+02  0.22014649709E+02  0.00000000000E+00 0. -1.
         21   -1    0    0  502  503 -0.00000000000E+00 -0.00000000000E+00 -0.17743193693E+03  0.17743193693E+03  0.00000000000E+00 0. -1.
         25    2    1    2    0    0  0.00000000000E+00  0.00000000000E+00 -0.15541728722E+03  0.19944658664E+03  0.12499763100E+03 0.  0.
          4    1    3    3  501    0  0.25780406211E+02  0.55546556589E+02 -0.57930236417E+02  0.84311114834E+02  0.15500000000E+01 0.  1.
         -4    1    3    3    0  501 -0.25780406211E+02 -0.55546556589E+02 -0.97487050807E+02  0.11513547181E+03  0.15500000000E+01 0.  1.
<mgrwt>
<rscale>  2 0.12499763E+03</rscale>
<asrwt>0</asrwt>
<pdfrwt beam="1">  1       21 0.33868692E-02 0.12499763E+03</pdfrwt>
<pdfrwt beam="2">  1       21 0.27297221E-01 0.12499763E+03</pdfrwt>
<totfact> 0.64991165E+06</totfact>
</mgrwt>
</event>
<event>
 5    0  0.1440866E+000  0.1250043E+03  0.7546771E-02  0.1235063E+00
         21   -1    0    0  503  502  0.00000000000E+00  0.00000000000E+00  0.12061481060E+02  0.12061481060E+02  0.00000000000E+00 0. -1.
         21   -1    0    0  502  503 -0.00000000000E+00 -0.00000000000E+00 -0.32388358073E+03  0.32388358073E+03  0.00000000000E+00 0. -1.
         25    2    1    2    0    0  0.00000000000E+00  0.00000000000E+00 -0.31182209967E+03  0.33594506179E+03  0.12500425072E+03 0.  0.
          4    1    3    3  501    0 -0.40825132163E+02 -0.47120862115E+02 -0.16700678674E+03  0.17827152431E+03  0.15500000000E+01 0.  1.
         -4    1    3    3    0  501  0.40825132163E+02  0.47120862115E+02 -0.14481531293E+03  0.15767353748E+03  0.15500000000E+01 0.  1.
<mgrwt>
<rscale>  2 0.12500425E+03</rscale>
<asrwt>0</asrwt>
<pdfrwt beam="1">  1       21 0.18556129E-02 0.12500425E+03</pdfrwt>
<pdfrwt beam="2">  1       21 0.49828230E-01 0.12500425E+03</pdfrwt>
<totfact> 0.52587884E+06</totfact>
</mgrwt>
</event>
<event>
 5    0  0.1222151E+000  0.1249993E+03  0.7546771E-02  0.1235070E+00
         21   -1    0    0  503  502  0.00000000000E+00  0.00000000000E+00  0.49327977344E+03  0.49327977344E+03  0.00000000000E+00 0. -1.
         21   -1    0    0  502  503 -0.00000000000E+00 -0.00000000000E+00 -0.79188401086E+01  0.79188401086E+01  0.00000000000E+00 0. -1.
         25    2    1    2    0    0  0.00000000000E+00  0.00000000000E+00  0.48536093333E+03  0.50119861354E+03  0.12499925847E+03 0.  0.
          4    1    3    3  501    0 -0.28481173301E+01 -0.24331567327E+02  0.12217910911E+02  0.27419277670E+02  0.15500000000E+01 0. -1.
         -4    1    3    3    0  501  0.28481173301E+01  0.24331567327E+02  0.47314302242E+03  0.47377933587E+03  0.15500000000E+01 0. -1.
<mgrwt>
<rscale>  2 0.12499926E+03</rscale>
<asrwt>0</asrwt>
<pdfrwt beam="1">  1       21 0.75889172E-01 0.12499926E+03</pdfrwt>
<pdfrwt beam="2">  1       21 0.12182835E-02 0.12499926E+03</pdfrwt>
<totfact> 0.41979925E+06</totfact>
</mgrwt>
</event>
<event>
 5    0  0.1666209E+000  0.1249996E+03  0.7546771E-02  0.1235070E+00
         21   -1    0    0  503  502  0.00000000000E+00  0.00000000000E+00  0.60811801768E+02  0.60811801768E+02  0.00000000000E+00 0. -1.
         21   -1    0    0  502  503 -0.00000000000E+00 -0.00000000000E+00 -0.64234694850E+02  0.64234694850E+02  0.00000000000E+00 0. -1.
         25    2    1    2    0    0  0.00000000000E+00  0.00000000000E+00 -0.34228930823E+01  0.12504649662E+03  0.12499964048E+03 0.  0.
          4    1    3    3  501    0 -0.72102984866E+01  0.61436108161E+02 -0.10514815683E+02  0.62764222604E+02  0.15500000000E+01 0. -1.
         -4    1    3    3    0  501  0.72102984866E+01 -0.61436108161E+02  0.70919226002E+01  0.62282274014E+02  0.15500000000E+01 0. -1.
<mgrwt>
<rscale>  2 0.12499964E+03</rscale>
<asrwt>0</asrwt>
<pdfrwt beam="1">  1       21 0.93556619E-02 0.12499964E+03</pdfrwt>
<pdfrwt beam="2">  1       21 0.98822607E-02 0.12499964E+03</pdfrwt>
<totfact> 0.74037982E+06</totfact>
</mgrwt>
</event>
<event>
 5    0  0.1513176E+000  0.1249989E+03  0.7546771E-02  0.1235071E+00
         21   -1    0    0  503  502  0.00000000000E+00  0.00000000000E+00  0.27983843014E+02  0.27983843014E+02  0.00000000000E+00 0. -1.
         21   -1    0    0  502  503 -0.00000000000E+00 -0.00000000000E+00 -0.13958691835E+03  0.13958691835E+03  0.00000000000E+00 0. -1.
         25    2    1    2    0    0  0.00000000000E+00  0.00000000000E+00 -0.11160307533E+03  0.16757076136E+03  0.12499885455E+03 0.  0.
          4    1    3    3  501    0 -0.31130127213E+02 -0.41417472078E+02 -0.10261218686E+03  0.11496153794E+03  0.15500000000E+01 0. -1.
         -4    1    3    3    0  501  0.31130127213E+02  0.41417472078E+02 -0.89908884774E+01  0.52609223424E+02  0.15500000000E+01 0. -1.
<mgrwt>
<rscale>  2 0.12499885E+03</rscale>
<asrwt>0</asrwt>
<pdfrwt beam="1">  1       21 0.43052066E-02 0.12499885E+03</pdfrwt>
<pdfrwt beam="2">  1       21 0.21474910E-01 0.12499885E+03</pdfrwt>
<totfact> 0.68608056E+06</totfact>
</mgrwt>
</event>
<event>
 5    0  0.1222151E+000  0.1250566E+03  0.7546771E-02  0.1234981E+00
         21   -1    0    0  503  502  0.00000000000E+00  0.00000000000E+00  0.13802617293E+04  0.13802617293E+04  0.00000000000E+00 0. -1.
         21   -1    0    0  502  503 -0.00000000000E+00 -0.00000000000E+00 -0.28326407010E+01  0.28326407010E+01  0.00000000000E+00 0. -1.
         25    2    1    2    0    0  0.00000000000E+00  0.00000000000E+00  0.13774290886E+04  0.13830943700E+04  0.12505655604E+03 0.  0.
          4    1    3    3  501    0 -0.42819319445E+02 -0.46456769661E+01  0.18768138165E+03  0.19256630014E+03  0.15500000000E+01 0.  1.
         -4    1    3    3    0  501  0.42819319445E+02  0.46456769661E+01  0.11897477069E+04  0.11905280698E+04  0.15500000000E+01 0.  1.
<mgrwt>
<rscale>  2 0.12505656E+03</rscale>
<asrwt>0</asrwt>
<pdfrwt beam="1">  1       21 0.21234742E+00 0.12505656E+03</pdfrwt>
<pdfrwt beam="2">  1       21 0.43579198E-03 0.12505656E+03</pdfrwt>
<totfact> 0.15800093E+06</totfact>
</mgrwt>
</event>
<event>
 5    0  0.1222151E+000  0.1249871E+03  0.7546771E-02  0.1235089E+00
         21   -1    0    0  503  502  0.00000000000E+00  0.00000000000E+00  0.44386710878E+01  0.44386710878E+01  0.00000000000E+00 0. -1.
         21   -1    0    0  502  503 -0.00000000000E+00 -0.00000000000E+00 -0.87986750241E+03  0.87986750241E+03  0.00000000000E+00 0. -1.
         25    2    1    2    0    0  0.00000000000E+00  0.00000000000E+00 -0.87542883133E+03  0.88430617350E+03  0.12498707844E+03 0.  0.
          4    1    3    3  501    0 -0.32978428467E+02  0.51029007379E+02 -0.33481890469E+03  0.34029051967E+03  0.15500000000E+01 0.  1.
         -4    1    3    3    0  501  0.32978428467E+02 -0.51029007379E+02 -0.54060992664E+03  0.54401565384E+03  0.15500000000E+01 0.  1.
<mgrwt>
<rscale>  2 0.12498708E+03</rscale>
<asrwt>0</asrwt>
<pdfrwt beam="1">  1       21 0.68287222E-03 0.12498708E+03</pdfrwt>
<pdfrwt beam="2">  1       21 0.13536428E+00 0.12498708E+03</pdfrwt>
<totfact> 0.26760027E+06</totfact>
</mgrwt>
</event>
<event>
 5    0  0.1675410E+000  0.1249974E+03  0.7546771E-02  0.1235073E+00
         21   -1    0    0  503  502  0.00000000000E+00  0.00000000000E+00  0.73860277161E+02  0.73860277161E+02  0.00000000000E+00 0. -1.
         21   -1    0    0  502  503 -0.00000000000E+00 -0.00000000000E+00 -0.52884817710E+02  0.52884817710E+02  0.00000000000E+00 0. -1.
         25    2    1    2    0    0  0.00000000000E+00  0.00000000000E+00  0.20975459451E+02  0.12674509487E+03  0.12499739667E+03 0.  0.
          4    1    3    3  501    0  0.24368513980E+02  0.37086593837E+02  0.55085009774E+02  0.70753096878E+02  0.15500000000E+01 0.  1.
         -4    1    3    3    0  501 -0.24368513980E+02 -0.37086593837E+02 -0.34109550323E+02  0.55991997993E+02  0.15500000000E+01 0.  1.
<mgrwt>
<rscale>  2 0.12499740E+03</rscale>
<asrwt>0</asrwt>
<pdfrwt beam="1">  1       21 0.11363120E-01 0.12499740E+03</pdfrwt>
<pdfrwt beam="2">  1       21 0.81361258E-02 0.12499740E+03</pdfrwt>
<totfact> 0.73808783E+06</totfact>
</mgrwt>
</event>
<event>
 5    0  0.1557643E+000  0.1250029E+03  0.7546771E-02  0.1235065E+00
         21   -1    0    0  503  502  0.00000000000E+00  0.00000000000E+00  0.18971799959E+03  0.18971799959E+03  0.00000000000E+00 0.  1.
         21   -1    0    0  502  503 -0.00000000000E+00 -0.00000000000E+00 -0.20590741504E+02  0.20590741504E+02  0.00000000000E+00 0.  1.
         25    2    1    2    0    0  0.00000000000E+00  0.00000000000E+00  0.16912725809E+03  0.21030874109E+03  0.12500294858E+03 0.  0.
          4    1    3    3  501    0  0.58400424838E+02  0.20047006793E+02  0.68466746513E+02  0.92209489646E+02  0.15500000000E+01 0. -1.
         -4    1    3    3    0  501 -0.58400424838E+02 -0.20047006793E+02  0.10066051157E+03  0.11809925145E+03  0.15500000000E+01 0. -1.
<mgrwt>
<rscale>  2 0.12500295E+03</rscale>
<asrwt>0</asrwt>
<pdfrwt beam="1">  1       21 0.29187383E-01 0.12500295E+03</pdfrwt>
<pdfrwt beam="2">  1       21 0.31678065E-02 0.12500295E+03</pdfrwt>
<totfact> 0.63822308E+06</totfact>
</mgrwt>
</event>
<event>
 5    0  0.1491427E+000  0.1249978E+03  0.7546771E-02  0.1235073E+00
         21   -1    0    0  503  502  0.00000000000E+00  0.00000000000E+00  0.11616014304E+02  0.11616014304E+02  0.00000000000E+00 0. -1.
         21   -1    0    0  502  503 -0.00000000000E+00 -0.00000000000E+00 -0.33626966606E+03  0.33626966606E+03  0.00000000000E+00 0. -1.
         25    2    1    2    0    0  0.00000000000E+00  0.00000000000E+00 -0.32465365176E+03  0.34788568037E+03  0.12499781200E+03 0.  0.
          4    1    3    3  501    0 -0.57835671112E+02 -0.23449450241E+02 -0.17061532534E+03  0.18167782834E+03  0.15500000000E+01 0.  1.
         -4    1    3    3    0  501  0.57835671112E+02  0.23449450241E+02 -0.15403832643E+03  0.16620785203E+03  0.15500000000E+01 0.  1.
<mgrwt>
<rscale>  2 0.12499781E+03</rscale>
<asrwt>0</asrwt>
<pdfrwt beam="1">  1       21 0.17870793E-02 0.12499781E+03</pdfrwt>
<pdfrwt beam="2">  1       21 0.51733791E-01 0.12499781E+03</pdfrwt>
<totfact> 0.51697795E+06</totfact>
</mgrwt>
</event>
<event>
 5    0  0.1545688E+000  0.1249974E+03  0.7546771E-02  0.1235073E+00
         21   -1    0    0  503  502  0.00000000000E+00  0.00000000000E+00  0.36373713544E+02  0.36373713544E+02  0.00000000000E+00 0. -1.
         21   -1    0    0  502  503 -0.00000000000E+00 -0.00000000000E+00 -0.10738766103E+03  0.10738766103E+03  0.00000000000E+00 0. -1.
         25    2    1    2    0    0  0.00000000000E+00  0.00000000000E+00 -0.71013947482E+02  0.14376137457E+03  0.12499740830E+03 0.  0.
          4    1    3    3  501    0 -0.38994109345E+02 -0.18925883430E+02 -0.87261578010E+02  0.97445960019E+02  0.15500000000E+01 0. -1.
         -4    1    3    3    0  501  0.38994109345E+02  0.18925883430E+02  0.16247630528E+02  0.46315414551E+02  0.15500000000E+01 0. -1.
<mgrwt>
<rscale>  2 0.12499741E+03</rscale>
<asrwt>0</asrwt>
<pdfrwt beam="1">  1       21 0.55959559E-02 0.12499741E+03</pdfrwt>
<pdfrwt beam="2">  1       21 0.16521179E-01 0.12499741E+03</pdfrwt>
<totfact> 0.71556715E+06</totfact>
</mgrwt>
</event>
<event>
 5    0  0.1480215E+000  0.1250025E+03  0.7546771E-02  0.1235065E+00
         21   -1    0    0  503  502  0.00000000000E+00  0.00000000000E+00  0.24795815626E+03  0.24795815626E+03  0.00000000000E+00 0. -1.
         21   -1    0    0  502  503 -0.00000000000E+00 -0.00000000000E+00 -0.15754304125E+02  0.15754304125E+02  0.00000000000E+00 0. -1.
         25    2    1    2    0    0  0.00000000000E+00  0.00000000000E+00  0.23220385214E+03  0.26371246039E+03  0.12500253124E+03 0.  0.
          4    1    3    3  501    0  0.53759438255E+02 -0.22692498455E+02  0.68976750131E+02  0.90361613788E+02  0.15500000000E+01 0. -1.
         -4    1    3    3    0  501 -0.53759438255E+02  0.22692498455E+02  0.16322710200E+03  0.17335084660E+03  0.15500000000E+01 0. -1.
<mgrwt>
<rscale>  2 0.12500253E+03</rscale>
<asrwt>0</asrwt>
<pdfrwt beam="1">  1       21 0.38147406E-01 0.12500253E+03</pdfrwt>
<pdfrwt beam="2">  1       21 0.24237393E-02 0.12500253E+03</pdfrwt>
<totfact> 0.58606932E+06</totfact>
</mgrwt>
</event>
<event>
 5    0  0.1280327E+000  0.1249994E+03  0.7546771E-02  0.1235070E+00
         21   -1    0    0  503  502  0.00000000000E+00  0.00000000000E+00  0.51995252179E+01  0.51995252179E+01  0.00000000000E+00 0. -1.
         21   -1    0    0  502  503 -0.00000000000E+00 -0.00000000000E+00 -0.75126325389E+03  0.75126325389E+03  0.00000000000E+00 0. -1.
         25    2    1    2    0    0  0.00000000000E+00  0.00000000000E+00 -0.74606372868E+03  0.75646277911E+03  0.12499939574E+03 0.  0.
          4    1    3    3  501    0 -0.24211868346E+02  0.55769289145E+02 -0.46018132665E+03  0.46418281320E+03  0.15500000000E+01 0.  1.
         -4    1    3    3    0  501  0.24211868346E+02 -0.55769289145E+02 -0.28588240203E+03  0.29227996591E+03  0.15500000000E+01 0.  1.
<mgrwt>
<rscale>  2 0.12499940E+03</rscale>
<asrwt>0</asrwt>
<pdfrwt beam="1">  1       21 0.79992676E-03 0.12499940E+03</pdfrwt>
<pdfrwt beam="2">  1       21 0.11557899E+00 0.12499940E+03</pdfrwt>
<totfact> 0.30843305E+06</totfact>
</mgrwt>
</event>
<event>
 4    0  0.1499608E+000  0.1250981E+03  0.7546771E-02  0.1234916E+00
         21   -1    0    0  503  502  0.00000000000E+00  0.00000000000E+00  0.19392318339E+03  0.19392318339E+03  0.00000000000E+00 0. -1.
         21   -1    0    0  502  503 -0.00000000000E+00 -0.00000000000E+00 -0.20174902285E+02  0.20174902285E+02  0.00000000000E+00 0. -1.
          4    1    1    2  501    0 -0.54427733187E+01  0.62148363392E+02  0.79626042539E+02  0.10116695115E+03  0.15500000000E+01 0. -1.
         -4    1    1    2    0  501  0.54427733187E+01 -0.62148363392E+02  0.94122238565E+02  0.11293113453E+03  0.15500000000E+01 0. -1.
<mgrwt>
<rscale>  2 0.12509806E+03</rscale>
<asrwt>0</asrwt>
<pdfrwt beam="1">  1       21 0.29834335E-01 0.12509806E+03</pdfrwt>
<pdfrwt beam="2">  1       21 0.31038312E-02 0.12509806E+03</pdfrwt>
<totfact> 0.63273901E+06</totfact>
</mgrwt>
</event>
<event>
 5    0  0.1632834E+000  0.1249941E+03  0.7546771E-02  0.1235079E+00
         21   -1    0    0  503  502  0.00000000000E+00  0.00000000000E+00  0.31537451659E+03  0.31537451659E+03  0.00000000000E+00 0. -1.
         21   -1    0    0  502  503 -0.00000000000E+00 -0.00000000000E+00 -0.12384889679E+02  0.12384889679E+02  0.00000000000E+00 0. -1.
         25    2    1    2    0    0  0.00000000000E+00  0.00000000000E+00  0.30298962691E+03  0.32775940627E+03  0.12499405739E+03 0.  0.
          4    1    3    3  501    0 -0.53227399641E+02 -0.14626833339E+01  0.65793369834E+02  0.84654979353E+02  0.15500000000E+01 0. -1.
         -4    1    3    3    0  501  0.53227399641E+02  0.14626833339E+01  0.23719625708E+03  0.24310442692E+03  0.15500000000E+01 0. -1.
<mgrwt>
<rscale>  2 0.12499406E+03</rscale>
<asrwt>0</asrwt>
<pdfrwt beam="1">  1       21 0.48519150E-01 0.12499406E+03</pdfrwt>
<pdfrwt beam="2">  1       21 0.19053679E-02 0.12499406E+03</pdfrwt>
<totfact> 0.53232057E+06</totfact>
</mgrwt>
</event>
<event>
 5    0  0.1514891E+000  0.1250055E+03  0.7546771E-02  0.1235061E+00
         21   -1    0    0  503  502  0.00000000000E+00  0.00000000000E+00  0.55217880075E+02  0.55217880075E+02  0.00000000000E+00 0.  1.
         21   -1    0    0  502  503 -0.00000000000E+00 -0.00000000000E+00 -0.70748660850E+02  0.70748660850E+02  0.00000000000E+00 0.  1.
         25    2    1    2    0    0  0.00000000000E+00  0.00000000000E+00 -0.15530780775E+02  0.12596654092E+03  0.12500545700E+03 0.  0.
          4    1    3    3  501    0  0.32681228471E+02 -0.52982785652E+02 -0.13187306187E+02  0.63651754212E+02  0.15500000000E+01 0. -1.
         -4    1    3    3    0  501 -0.32681228471E+02  0.52982785652E+02 -0.23434745884E+01  0.62314786712E+02  0.15500000000E+01 0. -1.
<mgrwt>
<rscale>  2 0.12500546E+03</rscale>
<asrwt>0</asrwt>
<pdfrwt beam="1">  1       21 0.84950585E-02 0.12500546E+03</pdfrwt>
<pdfrwt beam="2">  1       21 0.10884409E-01 0.12500546E+03</pdfrwt>
<totfact> 0.73900365E+06</totfact>
</mgrwt>
</event>
<event>
 5    0  0.1321113E+000  0.1250014E+03  0.7546771E-02  0.1235067E+00
         21   -1    0    0  503  502  0.00000000000E+00  0.00000000000E+00  0.56606332127E+03  0.56606332127E+03  0.00000000000E+00 0. -1.
         21   -1    0    0  502  503 -0.00000000000E+00 -0.00000000000E+00 -0.69008835226E+01  0.69008835226E+01  0.00000000000E+00 0. -1.
         25    2    1    2    0    0  0.00000000000E+00  0.00000000000E+00  0.55916243775E+03  0.57296420480E+03  0.12500139274E+03 0.  0.
          4    1    3    3  501    0 -0.24179896589E+02 -0.44631319712E+02  0.11258785131E+03  0.12351133090E+03  0.15500000000E+01 0. -1.
         -4    1    3    3    0  501  0.24179896589E+02  0.44631319712E+02  0.44657458644E+03  0.44945287389E+03  0.15500000000E+01 0. -1.
<mgrwt>
<rscale>  2 0.12500139E+03</rscale>
<asrwt>0</asrwt>
<pdfrwt beam="1">  1       21 0.87086628E-01 0.12500139E+03</pdfrwt>
<pdfrwt beam="2">  1       21 0.10616748E-02 0.12500139E+03</pdfrwt>
<totfact> 0.38343231E+06</totfact>
</mgrwt>
</event>
<event>
 5    0  0.1455233E+000  0.1249698E+03  0.7546771E-02  0.1235116E+00
         21   -1    0    0  503  502  0.00000000000E+00  0.00000000000E+00  0.69614555195E+02  0.69614555195E+02  0.00000000000E+00 0.  1.
         21   -1    0    0  502  503 -0.00000000000E+00 -0.00000000000E+00 -0.56085448396E+02  0.56085448396E+02  0.00000000000E+00 0.  1.
         25    2    1    2    0    0  0.00000000000E+00  0.00000000000E+00  0.13529106799E+02  0.12570000359E+03  0.12496981304E+03 0.  0.
          4    1    3    3  501    0 -0.23970027993E+02  0.36269862726E+02 -0.38351688686E+02  0.57994135128E+02  0.15500000000E+01 0.  1.
         -4    1    3    3    0  501  0.23970027993E+02 -0.36269862726E+02  0.51880795485E+02  0.67705868463E+02  0.15500000000E+01 0.  1.
<mgrwt>
<rscale>  2 0.12496981E+03</rscale>
<asrwt>0</asrwt>
<pdfrwt beam="1">  1       21 0.10709932E-01 0.12496981E+03</pdfrwt>
<pdfrwt beam="2">  1       21 0.86285306E-02 0.12496981E+03</pdfrwt>
<totfact> 0.74004493E+06</totfact>
</mgrwt>
</event>
<event>
 5    0  0.1612501E+000  0.1249994E+03  0.7546771E-02  0.1235070E+00
         21   -1    0    0  503  502  0.00000000000E+00  0.00000000000E+00  0.78070282477E+02  0.78070282477E+02  0.00000000000E+00 0.  1.
         21   -1    0    0  502  503 -0.00000000000E+00 -0.00000000000E+00 -0.50034562773E+02  0.50034562773E+02  0.00000000000E+00 0.  1.
         25    2    1    2    0    0  0.00000000000E+00  0.00000000000E+00  0.28035719704E+02  0.12810484525E+03  0.12499939919E+03 0.  0.
          4    1    3    3  501    0 -0.81019815110E+01  0.38408037111E+02  0.63836127459E+02  0.74955140505E+02  0.15500000000E+01 0. -1.
         -4    1    3    3    0  501  0.81019815110E+01 -0.38408037111E+02 -0.35800407754E+02  0.53149704746E+02  0.15500000000E+01 0. -1.
<mgrwt>
<rscale>  2 0.12499940E+03</rscale>
<asrwt>0</asrwt>
<pdfrwt beam="1">  1       21 0.12010813E-01 0.12499940E+03</pdfrwt>
<pdfrwt beam="2">  1       21 0.76976250E-02 0.12499940E+03</pdfrwt>
<totfact> 0.73620530E+06</totfact>
</mgrwt>
</event>
<event>
 5    0  0.1223158E+000  0.1250353E+03  0.7546771E-02  0.1235014E+00
         21   -1    0    0  503  502  0.00000000000E+00  0.00000000000E+00  0.84453392323E+03  0.84453392323E+03  0.00000000000E+00 0. -1.
         21   -1    0    0  502  503 -0.00000000000E+00 -0.00000000000E+00 -0.46279481559E+01  0.46279481559E+01  0.00000000000E+00 0. -1.
         25    2    1    2    0    0  0.00000000000E+00  0.00000000000E+00  0.83990597508E+03  0.84916187139E+03  0.12503534241E+03 0.  0.
          4    1    3    3  501    0  0.56672370686E+02  0.26329523631E+02  0.42692961342E+03  0.43148151609E+03  0.15500000000E+01 0. -1.
         -4    1    3    3    0  501 -0.56672370686E+02 -0.26329523631E+02  0.41297636166E+03  0.41768035530E+03  0.15500000000E+01 0. -1.
<mgrwt>
<rscale>  2 0.12503534E+03</rscale>
<asrwt>0</asrwt>
<pdfrwt beam="1">  1       21 0.12992817E+00 0.12503534E+03</pdfrwt>
<pdfrwt beam="2">  1       21 0.71199269E-03 0.12503534E+03</pdfrwt>
<totfact> 0.27773057E+06</totfact>
</mgrwt>
</event>
<event>
 5    0  0.1504244E+000  0.1249949E+03  0.7546771E-02  0.1235077E+00
         21   -1    0    0  503  502  0.00000000000E+00  0.00000000000E+00  0.11832076972E+02  0.11832076972E+02  0.00000000000E+00 0. -1.
         21   -1    0    0  502  503 -0.00000000000E+00 -0.00000000000E+00 -0.33011394368E+03  0.33011394368E+03  0.00000000000E+00 0. -1.
         25    2    1    2    0    0  0.00000000000E+00  0.00000000000E+00 -0.31828186671E+03  0.34194602066E+03  0.12499493736E+03 0.  0.
          4    1    3    3  501    0 -0.49121334713E+02  0.36825458352E+02 -0.12741281409E+03  0.14144061511E+03  0.15500000000E+01 0. -1.
         -4    1    3    3    0  501  0.49121334713E+02 -0.36825458352E+02 -0.19086905262E+03  0.20050540555E+03  0.15500000000E+01 0. -1.
<mgrwt>
<rscale>  2 0.12499494E+03</rscale>
<asrwt>0</asrwt>
<pdfrwt beam="1">  1       21 0.18203194E-02 0.12499494E+03</pdfrwt>
<pdfrwt beam="2">  1       21 0.50786764E-01 0.12499494E+03</pdfrwt>
<totfact> 0.52145411E+06</totfact>
</mgrwt>
</event>
<event>
 5    0  0.1488779E+000  0.1250030E+03  0.7546771E-02  0.1235065E+00
         21   -1    0    0  503  502  0.00000000000E+00  0.00000000000E+00  0.14733309619E+03  0.14733309619E+03  0.00000000000E+00 0. -1.
         21   -1    0    0  502  503 -0.00000000000E+00 -0.00000000000E+00 -0.26514336628E+02  0.26514336628E+02  0.00000000000E+00 0. -1.
         25    2    1    2    0    0  0.00000000000E+00  0.00000000000E+00  0.12081875956E+03  0.17384743282E+03  0.12500302890E+03 0.  0.
          4    1    3    3  501    0  0.19646440142E+02  0.24712051635E+02  0.13539842102E+03  0.13903885435E+03  0.15500000000E+01 0. -1.
         -4    1    3    3    0  501 -0.19646440142E+02 -0.24712051635E+02 -0.14579661458E+02  0.34808578461E+02  0.15500000000E+01 0. -1.
<mgrwt>
<rscale>  2 0.12500303E+03</rscale>
<asrwt>0</asrwt>
<pdfrwt beam="1">  1       21 0.22666630E-01 0.12500303E+03</pdfrwt>
<pdfrwt beam="2">  1       21 0.40791288E-02 0.12500303E+03</pdfrwt>
<totfact> 0.67859229E+06</totfact>
</mgrwt>
</event>
<event>
 5    0  0.1345211E+000  0.1249984E+03  0.7546771E-02  0.1235072E+00
         21   -1    0    0  503  502  0.00000000000E+00  0.00000000000E+00  0.73779656361E+01  0.73779656361E+01  0.00000000000E+00 0.  1.
         21   -1    0    0  502  503 -0.00000000000E+00 -0.00000000000E+00 -0.52943442925E+03  0.52943442925E+03  0.00000000000E+00 0.  1.
         25    2    1    2    0    0  0.00000000000E+00  0.00000000000E+00 -0.52205646361E+03  0.53681239488E+03  0.12499838440E+03 0.  0.
          4    1    3    3  501    0  0.26737720902E+02 -0.38526813902E+02 -0.83723683674E+02  0.95975407352E+02  0.15500000000E+01 0.  1.
         -4    1    3    3    0  501 -0.26737720902E+02  0.38526813902E+02 -0.43833277994E+03  0.44083698753E+03  0.15500000000E+01 0.  1.
<mgrwt>
<rscale>  2 0.12499838E+03</rscale>
<asrwt>0</asrwt>
<pdfrwt beam="1">  1       21 0.11350711E-02 0.12499838E+03</pdfrwt>
<pdfrwt beam="2">  1       21 0.81451486E-01 0.12499838E+03</pdfrwt>
<totfact> 0.40117125E+06</totfact>
</mgrwt>
</event>
<event>
 5    0  0.1535077E+000  0.1250000E+03  0.7546771E-02  0.1235069E+00
         21   -1    0    0  503  502  0.00000000000E+00  0.00000000000E+00  0.21238641936E+03  0.21238641936E+03  0.00000000000E+00 0. -1.
         21   -1    0    0  502  503 -0.00000000000E+00 -0.00000000000E+00 -0.18392195138E+02  0.18392195138E+02  0.00000000000E+00 0. -1.
         25    2    1    2    0    0  0.00000000000E+00  0.00000000000E+00  0.19399422423E+03  0.23077861450E+03  0.12500003951E+03 0.  0.
          4    1    3    3  501    0  0.23974552902E+02  0.57526314041E+02  0.88783164508E+02  0.10848460164E+03  0.15500000000E+01 0.  1.
         -4    1    3    3    0  501 -0.23974552902E+02 -0.57526314041E+02  0.10521105972E+03  0.12229401286E+03  0.15500000000E+01 0.  1.
<mgrwt>
<rscale>  2 0.12500004E+03</rscale>
<asrwt>0</asrwt>
<pdfrwt beam="1">  1       21 0.32674832E-01 0.12500004E+03</pdfrwt>
<pdfrwt beam="2">  1       21 0.28295686E-02 0.12500004E+03</pdfrwt>
<totfact> 0.61736518E+06</totfact>
</mgrwt>
</event>
<event>
 5    0  0.1502677E+000  0.1249974E+03  0.7546771E-02  0.1235073E+00
         21   -1    0    0  503  502  0.00000000000E+00  0.00000000000E+00  0.24229798505E+03  0.24229798505E+03  0.00000000000E+00 0. -1.
         21   -1    0    0  502  503 -0.00000000000E+00 -0.00000000000E+00 -0.16121014084E+02  0.16121014084E+02  0.00000000000E+00 0. -1.
         25    2    1    2    0    0  0.00000000000E+00  0.00000000000E+00  0.22617697096E+03  0.25841899913E+03  0.12499742765E+03 0.  0.
          4    1    3    3  501    0  0.23356141040E+02 -0.50928985035E+02  0.17024795863E+03  0.17923738661E+03  0.15500000000E+01 0. -1.
         -4    1    3    3    0  501 -0.23356141040E+02  0.50928985035E+02  0.55929012334E+02  0.79181612522E+02  0.15500000000E+01 0. -1.
<mgrwt>
<rscale>  2 0.12499743E+03</rscale>
<asrwt>0</asrwt>
<pdfrwt beam="1">  1       21 0.37276611E-01 0.12499743E+03</pdfrwt>
<pdfrwt beam="2">  1       21 0.24801562E-02 0.12499743E+03</pdfrwt>
<totfact> 0.59098315E+06</totfact>
</mgrwt>
</event>
<event>
 5    0  0.1292103E+000  0.1249995E+03  0.7546771E-02  0.1235070E+00
         21   -1    0    0  503  502  0.00000000000E+00  0.00000000000E+00  0.64312939949E+01  0.64312939949E+01  0.00000000000E+00 0.  1.
         21   -1    0    0  502  503 -0.00000000000E+00 -0.00000000000E+00 -0.60737648773E+03  0.60737648773E+03  0.00000000000E+00 0.  1.
         25    2    1    2    0    0  0.00000000000E+00  0.00000000000E+00 -0.60094519374E+03  0.61380778173E+03  0.12499946813E+03 0.  0.
          4    1    3    3  501    0 -0.25810594695E+01 -0.52982869270E+02 -0.13835465198E+03  0.14818319247E+03  0.15500000000E+01 0.  1.
         -4    1    3    3    0  501  0.25810594695E+01  0.52982869270E+02 -0.46259054175E+03  0.46562458926E+03  0.15500000000E+01 0.  1.
<mgrwt>
<rscale>  2 0.12499947E+03</rscale>
<asrwt>0</asrwt>
<pdfrwt beam="1">  1       21 0.98942986E-03 0.12499947E+03</pdfrwt>
<pdfrwt beam="2">  1       21 0.93442535E-01 0.12499947E+03</pdfrwt>
<totfact> 0.36476026E+06</totfact>
</mgrwt>
</event>
<event>
 5    0  0.1222151E+000  0.1250012E+03  0.7546771E-02  0.1235067E+00
         21   -1    0    0  503  502  0.00000000000E+00  0.00000000000E+00  0.42783680925E+03  0.42783680925E+03  0.00000000000E+00 0.  1.
         21   -1    0    0  502  503 -0.00000000000E+00 -0.00000000000E+00 -0.91304111910E+01  0.91304111910E+01  0.00000000000E+00 0.  1.
         25    2    1    2    0    0  0.00000000000E+00  0.00000000000E+00  0.41870639806E+03  0.43696722044E+03  0.12500121585E+03 0.  0.
          4    1    3    3  501    0  0.94898202473E+01  0.20274642809E+02  0.54363107869E+01  0.23088391116E+02  0.15500000000E+01 0. -1.
         -4    1    3    3    0  501 -0.94898202473E+01 -0.20274642809E+02  0.41327008728E+03  0.41387882933E+03  0.15500000000E+01 0. -1.
<mgrwt>
<rscale>  2 0.12500122E+03</rscale>
<asrwt>0</asrwt>
<pdfrwt beam="1">  1       21 0.65821032E-01 0.12500122E+03</pdfrwt>
<pdfrwt beam="2">  1       21 0.14046790E-02 0.12500122E+03</pdfrwt>
<totfact> 0.45680882E+06</totfact>
</mgrwt>
</event>
<event>
 5    0  0.1222151E+000  0.1249919E+03  0.7546771E-02  0.1235082E+00
         21   -1    0    0  503  502  0.00000000000E+00  0.00000000000E+00  0.53544089278E+02  0.53544089278E+02  0.00000000000E+00 0.  1.
         21   -1    0    0  502  503 -0.00000000000E+00 -0.00000000000E+00 -0.72944485859E+02  0.72944485859E+02  0.00000000000E+00 0.  1.
         25    2    1    2    0    0  0.00000000000E+00  0.00000000000E+00 -0.19400396581E+02  0.12648857514E+03  0.12499193675E+03 0.  0.
          4    1    3    3  501    0  0.14153053226E+02  0.19090641367E+02  0.48772122369E+02  0.54275997677E+02  0.15500000000E+01 0.  1.
         -4    1    3    3    0  501 -0.14153053226E+02 -0.19090641367E+02 -0.68172518950E+02  0.72212577460E+02  0.15500000000E+01 0.  1.
<mgrwt>
<rscale>  2 0.12499194E+03</rscale>
<asrwt>0</asrwt>
<pdfrwt beam="1">  1       21 0.82375523E-02 0.12499194E+03</pdfrwt>
<pdfrwt beam="2">  1       21 0.11222229E-01 0.12499194E+03</pdfrwt>
<totfact> 0.73854133E+06</totfact>
</mgrwt>
</event>
<event>
 5    0  0.1614813E+000  0.1249973E+03  0.7546771E-02  0.1235073E+00
         21   -1    0    0  503  502  0.00000000000E+00  0.00000000000E+00  0.44181411786E+02  0.44181411786E+02  0.00000000000E+00 0. -1.
         21   -1    0    0  502  503 -0.00000000000E+00 -0.00000000000E+00 -0.88410107738E+02  0.88410107738E+02  0.00000000000E+00 0. -1.
         25    2    1    2    0    0  0.00000000000E+00  0.00000000000E+00 -0.44228695952E+02  0.13259151952E+03  0.12499733399E+03 0.  0.
          4    1    3    3  501    0 -0.36357948102E+02 -0.11274551124E+02 -0.74668993492E+02  0.83826469461E+02  0.15500000000E+01 0.  1.
         -4    1    3    3    0  501  0.36357948102E+02  0.11274551124E+02  0.30440297541E+02  0.48765050062E+02  0.15500000000E+01 0.  1.
<mgrwt>
<rscale>  2 0.12499733E+03</rscale>
<asrwt>0</asrwt>
<pdfrwt beam="1">  1       21 0.67971404E-02 0.12499733E+03</pdfrwt>
<pdfrwt beam="2">  1       21 0.13601555E-01 0.12499733E+03</pdfrwt>
<totfact> 0.73021959E+06</totfact>
</mgrwt>
</event>
<event>
 5    0  0.1622261E+000  0.1249943E+03  0.7546771E-02  0.1235078E+00
         21   -1    0    0  503  502  0.00000000000E+00  0.00000000000E+00  0.56053100774E+02  0.56053100774E+02  0.00000000000E+00 0.  1.
         21   -1    0    0  502  503 -0.00000000000E+00 -0.00000000000E+00 -0.69682015529E+02  0.69682015529E+02  0.00000000000E+00 0.  1.
         25    2    1    2    0    0  0.00000000000E+00  0.00000000000E+00 -0.13628914755E+02  0.12573511630E+03  0.12499428849E+03 0.  0.
          4    1    3    3  501    0  0.55439192158E+02 -0.22680970386E+02 -0.24683753973E+02  0.64804480208E+02  0.15500000000E+01 0.  1.
         -4    1    3    3    0  501 -0.55439192158E+02  0.22680970386E+02  0.11054839218E+02  0.60930636095E+02  0.15500000000E+01 0.  1.
<mgrwt>
<rscale>  2 0.12499429E+03</rscale>
<asrwt>0</asrwt>
<pdfrwt beam="1">  1       21 0.86235540E-02 0.12499429E+03</pdfrwt>
<pdfrwt beam="2">  1       21 0.10720310E-01 0.12499429E+03</pdfrwt>
<totfact> 0.73953436E+06</totfact>
</mgrwt>
</event>
<event>
 5    0  0.1415191E+000  0.1249783E+03  0.7546771E-02  0.1235103E+00
         21   -1    0    0  503  502  0.00000000000E+00  0.00000000000E+00  0.37059739030E+03  0.37059739030E+03  0.00000000000E+00 0. -1.
         21   -1    0    0  502  503 -0.00000000000E+00 -0.00000000000E+00 -0.10536752068E+02  0.10536752068E+02  0.00000000000E+00 0. -1.
         25    2    1    2    0    0  0.00000000000E+00  0.00000000000E+00  0.36006063823E+03  0.38113414237E+03  0.12497828321E+03 0.  0.
          4    1    3    3  501    0  0.57780771210E+02 -0.74079676731E+01  0.11122849094E+03  0.12556940393E+03  0.15500000000E+01 0.  1.
         -4    1    3    3    0  501 -0.57780771210E+02  0.74079676731E+01  0.24883214729E+03  0.25556473844E+03  0.15500000000E+01 0.  1.
<mgrwt>
<rscale>  2 0.12497828E+03</rscale>
<asrwt>0</asrwt>
<pdfrwt beam="1">  1       21 0.57014973E-01 0.12497828E+03</pdfrwt>
<pdfrwt beam="2">  1       21 0.16210391E-02 0.12497828E+03</pdfrwt>
<totfact> 0.49344932E+06</totfact>
</mgrwt>
</event>
<event>
 5    0  0.1339769E+000  0.1250002E+03  0.7546771E-02  0.1235069E+00
         21   -1    0    0  503  502  0.00000000000E+00  0.00000000000E+00  0.35958588897E+03  0.35958588897E+03  0.00000000000E+00 0.  1.
         21   -1    0    0  502  503 -0.00000000000E+00 -0.00000000000E+00 -0.10863226130E+02  0.10863226130E+02  0.00000000000E+00 0.  1.
         25    2    1    2    0    0  0.00000000000E+00  0.00000000000E+00  0.34872266284E+03  0.37044911510E+03  0.12500020520E+03 0.  0.
          4    1    3    3  501    0  0.28317048480E+02 -0.28011702849E+02  0.31702507429E+03  0.31952122146E+03  0.15500000000E+01 0.  1.
         -4    1    3    3    0  501 -0.28317048480E+02  0.28011702849E+02  0.31697588546E+02  0.50927893641E+02  0.15500000000E+01 0.  1.
<mgrwt>
<rscale>  2 0.12500021E+03</rscale>
<asrwt>0</asrwt>
<pdfrwt beam="1">  1       21 0.55320897E-01 0.12500021E+03</pdfrwt>
<pdfrwt beam="2">  1       21 0.16712658E-02 0.12500021E+03</pdfrwt>
<totfact> 0.50062510E+06</totfact>
</mgrwt>
</event>
<event>
 5    0  0.1617632E+000  0.1249752E+03  0.7546771E-02  0.1235108E+00
         21   -1    0    0  503  502  0.00000000000E+00  0.00000000000E+00  0.42421341379E+02  0.42421341379E+02  0.00000000000E+00 0. -1.
         21   -1    0    0  502  503 -0.00000000000E+00 -0.00000000000E+00 -0.92045613160E+02  0.92045613160E+02  0.00000000000E+00 0. -1.
         25    2    1    2    0    0  0.00000000000E+00  0.00000000000E+00 -0.49624271781E+02  0.13446695454E+03  0.12497517159E+03 0.  0.
          4    1    3    3  501    0  0.38240042915E+02  0.35030908844E+02 -0.62282841226E+02  0.81061829906E+02  0.15500000000E+01 0.  1.
         -4    1    3    3    0  501 -0.38240042915E+02 -0.35030908844E+02  0.12658569445E+02  0.53405124632E+02  0.15500000000E+01 0.  1.
<mgrwt>
<rscale>  2 0.12497517E+03</rscale>
<asrwt>0</asrwt>
<pdfrwt beam="1">  1       21 0.65263602E-02 0.12497517E+03</pdfrwt>
<pdfrwt beam="2">  1       21 0.14160863E-01 0.12497517E+03</pdfrwt>
<totfact> 0.72813230E+06</totfact>
</mgrwt>
</event>
<event>
 5    0  0.1267288E+000  0.1250015E+03  0.7546771E-02  0.1235067E+00
         21   -1    0    0  503  502  0.00000000000E+00  0.00000000000E+00  0.76121078752E+01  0.76121078752E+01  0.00000000000E+00 0. -1.
         21   -1    0    0  502  503 -0.00000000000E+00 -0.00000000000E+00 -0.51317490120E+03  0.51317490120E+03  0.00000000000E+00 0. -1.
         25    2    1    2    0    0  0.00000000000E+00  0.00000000000E+00 -0.50556279332E+03  0.52078700907E+03  0.12500148330E+03 0.  0.
          4    1    3    3  501    0  0.36901974894E+01 -0.45818427055E+02 -0.42909754448E+03  0.43155538578E+03  0.15500000000E+01 0. -1.
         -4    1    3    3    0  501 -0.36901974894E+01  0.45818427055E+02 -0.76465248842E+02  0.89231623295E+02  0.15500000000E+01 0. -1.
<mgrwt>
<rscale>  2 0.12500148E+03</rscale>
<asrwt>0</asrwt>
<pdfrwt beam="1">  1       21 0.11710931E-02 0.12500148E+03</pdfrwt>
<pdfrwt beam="2">  1       21 0.78950011E-01 0.12500148E+03</pdfrwt>
<totfact> 0.40937206E+06</totfact>
</mgrwt>
</event>
<event>
 5    0  0.1515455E+000  0.1250006E+03  0.7546771E-02  0.1235068E+00
         21   -1    0    0  503  502  0.00000000000E+00  0.00000000000E+00  0.10083846441E+03  0.10083846441E+03  0.00000000000E+00 0. -1.
         21   -1    0    0  502  503 -0.00000000000E+00 -0.00000000000E+00 -0.38738071632E+02  0.38738071632E+02  0.00000000000E+00 0. -1.
         25    2    1    2    0    0  0.00000000000E+00  0.00000000000E+00  0.62100392774E+02  0.13957653604E+03  0.12500060252E+03 0.  0.
          4    1    3    3  501    0 -0.25459489929E+02  0.30215983928E+02  0.85095514551E+02  0.93834111116E+02  0.15500000000E+01 0. -1.
         -4    1    3    3    0  501  0.25459489929E+02 -0.30215983928E+02 -0.22995121777E+02  0.45742424922E+02  0.15500000000E+01 0. -1.
<mgrwt>
<rscale>  2 0.12500060E+03</rscale>
<asrwt>0</asrwt>
<pdfrwt beam="1">  1       21 0.15513610E-01 0.12500060E+03</pdfrwt>
<pdfrwt beam="2">  1       21 0.59597034E-02 0.12500060E+03</pdfrwt>
<totfact> 0.72093532E+06</totfact>
</mgrwt>
</event>
<event>
 5    0  0.1347518E+000  0.1249950E+03  0.7546771E-02  0.1235077E+00
         21   -1    0    0  503  502  0.00000000000E+00  0.00000000000E+00  0.46629484216E+03  0.46629484216E+03  0.00000000000E+00 0. -1.
         21   -1    0    0  502  503 -0.00000000000E+00 -0.00000000000E+00 -0.83765349912E+01  0.83765349912E+01  0.00000000000E+00 0. -1.
         25    2    1    2    0    0  0.00000000000E+00  0.00000000000E+00  0.45791830717E+03  0.47467137715E+03  0.12499496088E+03 0.  0.
          4    1    3    3  501    0  0.43295150986E+02  0.42834138785E+02  0.17602501606E+03  0.18626981055E+03  0.15500000000E+01 0. -1.
         -4    1    3    3    0  501 -0.43295150986E+02 -0.42834138785E+02  0.28189329111E+03  0.28840156660E+03  0.15500000000E+01 0. -1.
<mgrwt>
<rscale>  2 0.12499496E+03</rscale>
<asrwt>0</asrwt>
<pdfrwt beam="1">  1       21 0.71737648E-01 0.12499496E+03</pdfrwt>
<pdfrwt beam="2">  1       21 0.12886980E-02 0.12499496E+03</pdfrwt>
<totfact> 0.43457334E+06</totfact>
</mgrwt>
</event>
<event>
 5    0  0.1724975E+000  0.1250005E+03  0.7546771E-02  0.1235069E+00
         21   -1    0    0  503  502  0.00000000000E+00  0.00000000000E+00  0.67951979155E+02  0.67951979155E+02  0.00000000000E+00 0. -1.
         21   -1    0    0  502  503 -0.00000000000E+00 -0.00000000000E+00 -0.57485866998E+02  0.57485866998E+02  0.00000000000E+00 0. -1.
         25    2    1    2    0    0  0.00000000000E+00  0.00000000000E+00  0.10466112157E+02  0.12543784615E+03  0.12500045497E+03 0.  0.
          4    1    3    3  501    0 -0.60804491855E+02 -0.34709650932E+01 -0.87671811166E+01  0.61550790354E+02  0.15500000000E+01 0. -1.
         -4    1    3    3    0  501  0.60804491855E+02  0.34709650932E+01  0.19233293274E+02  0.63887055799E+02  0.15500000000E+01 0. -1.
<mgrwt>
<rscale>  2 0.12500045E+03</rscale>
<asrwt>0</asrwt>
<pdfrwt beam="1">  1       21 0.10454151E-01 0.12500045E+03</pdfrwt>
<pdfrwt beam="2">  1       21 0.88439795E-02 0.12500045E+03</pdfrwt>
<totfact> 0.73983241E+06</totfact>
</mgrwt>
</event>
<event>
 5    0  0.1509392E+000  0.1249974E+03  0.7546771E-02  0.1235073E+00
         21   -1    0    0  503  502  0.00000000000E+00  0.00000000000E+00  0.94925593101E+02  0.94925593101E+02  0.00000000000E+00 0.  1.
         21   -1    0    0  502  503 -0.00000000000E+00 -0.00000000000E+00 -0.41148960496E+02  0.41148960496E+02  0.00000000000E+00 0.  1.
         25    2    1    2    0    0  0.00000000000E+00  0.00000000000E+00  0.53776632604E+02  0.13607455360E+03  0.12499743166E+03 0.  0.
          4    1    3    3  501    0 -0.14537078957E+02  0.24650872678E+02 -0.33573602929E+02  0.44142740083E+02  0.15500000000E+01 0.  1.
         -4    1    3    3    0  501  0.14537078957E+02 -0.24650872678E+02  0.87350235533E+02  0.91931813514E+02  0.15500000000E+01 0.  1.
<mgrwt>
<rscale>  2 0.12499743E+03</rscale>
<asrwt>0</asrwt>
<pdfrwt beam="1">  1       21 0.14603937E-01 0.12499743E+03</pdfrwt>
<pdfrwt beam="2">  1       21 0.63306093E-02 0.12499743E+03</pdfrwt>
<totfact> 0.72559258E+06</totfact>
</mgrwt>
</event>
<event>
 5    0  0.1745806E+000  0.1249961E+03  0.7546771E-02  0.1235075E+00
         21   -1    0    0  503  502  0.00000000000E+00  0.00000000000E+00  0.25637783181E+03  0.25637783181E+03  0.00000000000E+00 0.  1.
         21   -1    0    0  502  503 -0.00000000000E+00 -0.00000000000E+00 -0.15235347495E+02  0.15235347495E+02  0.00000000000E+00 0.  1.
         25    2    1    2    0    0  0.00000000000E+00  0.00000000000E+00  0.24114248432E+03  0.27161317931E+03  0.12499608566E+03 0.  0.
          4    1    3    3  501    0 -0.61204560979E+02 -0.35665680063E+01  0.14672685428E+03  0.15902795653E+03  0.15500000000E+01 0. -1.
         -4    1    3    3    0  501  0.61204560979E+02  0.35665680063E+01  0.94415630038E+02  0.11258522278E+03  0.15500000000E+01 0. -1.
<mgrwt>
<rscale>  2 0.12499609E+03</rscale>
<asrwt>0</asrwt>
<pdfrwt beam="1">  1       21 0.39442740E-01 0.12499609E+03</pdfrwt>
<pdfrwt beam="2">  1       21 0.23438998E-02 0.12499609E+03</pdfrwt>
<totfact> 0.57906636E+06</totfact>
</mgrwt>
</event>
<event>
 5    0  0.1518047E+000  0.1250002E+03  0.7546771E-02  0.1235069E+00
         21   -1    0    0  503  502  0.00000000000E+00  0.00000000000E+00  0.23249739142E+02  0.23249739142E+02  0.00000000000E+00 0.  1.
         21   -1    0    0  502  503 -0.00000000000E+00 -0.00000000000E+00 -0.16801305500E+03  0.16801305500E+03  0.00000000000E+00 0.  1.
         25    2    1    2    0    0  0.00000000000E+00  0.00000000000E+00 -0.14476331586E+03  0.19126279414E+03  0.12500015522E+03 0.  0.
          4    1    3    3  501    0  0.51317018132E+02  0.35606761314E+02 -0.69924238521E+02  0.93771421201E+02  0.15500000000E+01 0.  1.
         -4    1    3    3    0  501 -0.51317018132E+02 -0.35606761314E+02 -0.74839077339E+02  0.97491372943E+02  0.15500000000E+01 0.  1.
<mgrwt>
<rscale>  2 0.12500016E+03</rscale>
<asrwt>0</asrwt>
<pdfrwt beam="1">  1       21 0.35768831E-02 0.12500016E+03</pdfrwt>
<pdfrwt beam="2">  1       21 0.25848161E-01 0.12500016E+03</pdfrwt>
<totfact> 0.65882132E+06</totfact>
</mgrwt>
</event>
<event>
 5    0  0.1549997E+000  0.1250130E+03  0.7546771E-02  0.1235049E+00
         21   -1    0    0  503  502  0.00000000000E+00  0.00000000000E+00  0.58500502671E+02  0.58500502671E+02  0.00000000000E+00 0.  1.
         21   -1    0    0  502  503 -0.00000000000E+00 -0.00000000000E+00 -0.66786846423E+02  0.66786846423E+02  0.00000000000E+00 0.  1.
         25    2    1    2    0    0  0.00000000000E+00  0.00000000000E+00 -0.82863437518E+01  0.12528734909E+03  0.12501302472E+03 0.  0.
          4    1    3    3  501    0  0.27425814116E+02  0.28230443063E+02  0.44497115119E+02  0.59426668671E+02  0.15500000000E+01 0.  1.
         -4    1    3    3    0  501 -0.27425814116E+02 -0.28230443063E+02 -0.52783458870E+02  0.65860680423E+02  0.15500000000E+01 0.  1.
<mgrwt>
<rscale>  2 0.12501302E+03</rscale>
<asrwt>0</asrwt>
<pdfrwt beam="1">  1       21 0.90000773E-02 0.12501302E+03</pdfrwt>
<pdfrwt beam="2">  1       21 0.10274899E-01 0.12501302E+03</pdfrwt>
<totfact> 0.73980143E+06</totfact>
</mgrwt>
</event>
<event>
 5    0  0.1608233E+000  0.1250032E+03  0.7546771E-02  0.1235064E+00
         21   -1    0    0  503  502  0.00000000000E+00  0.00000000000E+00  0.27810966434E+02  0.27810966434E+02  0.00000000000E+00 0.  1.
         21   -1    0    0  502  503 -0.00000000000E+00 -0.00000000000E+00 -0.14046435083E+03  0.14046435083E+03  0.00000000000E+00 0.  1.
         25    2    1    2    0    0  0.00000000000E+00  0.00000000000E+00 -0.11265338440E+03  0.16827531726E+03  0.12500318950E+03 0.  0.
          4    1    3    3  501    0 -0.12975885726E+02 -0.56366164298E+02 -0.24512412605E+02  0.62839310624E+02  0.15500000000E+01 0.  1.
         -4    1    3    3    0  501  0.12975885726E+02  0.56366164298E+02 -0.88140971791E+02  0.10543600664E+03  0.15500000000E+01 0.  1.
<mgrwt>
<rscale>  2 0.12500319E+03</rscale>
<asrwt>0</asrwt>
<pdfrwt beam="1">  1       21 0.42786102E-02 0.12500319E+03</pdfrwt>
<pdfrwt beam="2">  1       21 0.21609900E-01 0.12500319E+03</pdfrwt>
<totfact> 0.68516661E+06</totfact>
</mgrwt>
</event>
<event>
 5    0  0.1560310E+000  0.1250006E+03  0.7546771E-02  0.1235068E+00
         21   -1    0    0  503  502  0.00000000000E+00  0.00000000000E+00  0.98591340587E+02  0.98591340587E+02  0.00000000000E+00 0. -1.
         21   -1    0    0  502  503 -0.00000000000E+00 -0.00000000000E+00 -0.39621030822E+02  0.39621030822E+02  0.00000000000E+00 0. -1.
         25    2    1    2    0    0  0.00000000000E+00  0.00000000000E+00  0.58970309765E+02  0.13821237141E+03  0.12500064871E+03 0.  0.
          4    1    3    3  501    0  0.38261765015E+02  0.39047464001E+02  0.62935270645E+02  0.83378161998E+02  0.15500000000E+01 0.  1.
         -4    1    3    3    0  501 -0.38261765015E+02 -0.39047464001E+02 -0.39649608801E+01  0.54834209411E+02  0.15500000000E+01 0.  1.
<mgrwt>
<rscale>  2 0.12500065E+03</rscale>
<asrwt>0</asrwt>
<pdfrwt beam="1">  1       21 0.15167898E-01 0.12500065E+03</pdfrwt>
<pdfrwt beam="2">  1       21 0.60955432E-02 0.12500065E+03</pdfrwt>
<totfact> 0.72272352E+06</totfact>
</mgrwt>
</event>
<event>
 5    0  0.1579219E+000  0.1249984E+03  0.7546771E-02  0.1235072E+00
         21   -1    0    0  503  502  0.00000000000E+00  0.00000000000E+00  0.28352750303E+02  0.28352750303E+02  0.00000000000E+00 0. -1.
         21   -1    0    0  502  503 -0.00000000000E+00 -0.00000000000E+00 -0.13776974375E+03  0.13776974375E+03  0.00000000000E+00 0. -1.
         25    2    1    2    0    0  0.00000000000E+00  0.00000000000E+00 -0.10941699345E+03  0.16612249406E+03  0.12499841829E+03 0.  0.
          4    1    3    3  501    0 -0.38745343639E+02  0.13534495286E+02  0.79007149522E+01  0.41823534201E+02  0.15500000000E+01 0.  1.
         -4    1    3    3    0  501  0.38745343639E+02 -0.13534495286E+02 -0.11731770840E+03  0.12429895986E+03  0.15500000000E+01 0.  1.
<mgrwt>
<rscale>  2 0.12499842E+03</rscale>
<asrwt>0</asrwt>
<pdfrwt beam="1">  1       21 0.43619616E-02 0.12499842E+03</pdfrwt>
<pdfrwt beam="2">  1       21 0.21195345E-01 0.12499842E+03</pdfrwt>
<totfact> 0.68781788E+06</totfact>
</mgrwt>
</event>
<event>
 5    0  0.1396499E+000  0.1250356E+03  0.7546771E-02  0.1235014E+00
         21   -1    0    0  503  502  0.00000000000E+00  0.00000000000E+00  0.50606512348E+03  0.50606512348E+03  0.00000000000E+00 0. -1.
         21   -1    0    0  502  503 -0.00000000000E+00 -0.00000000000E+00 -0.77232659854E+01  0.77232659854E+01  0.00000000000E+00 0. -1.
         25    2    1    2    0    0  0.00000000000E+00  0.00000000000E+00  0.49834185750E+03  0.51378838947E+03  0.12503560380E+03 0.  0.
          4    1    3    3  501    0  0.34727796833E+02  0.50733817146E+02  0.20302165004E+03  0.21213234775E+03  0.15500000000E+01 0.  1.
         -4    1    3    3    0  501 -0.34727796833E+02 -0.50733817146E+02  0.29532020745E+03  0.30165604172E+03  0.15500000000E+01 0.  1.
<mgrwt>
<rscale>  2 0.12503560E+03</rscale>
<asrwt>0</asrwt>
<pdfrwt beam="1">  1       21 0.77856147E-01 0.12503560E+03</pdfrwt>
<pdfrwt beam="2">  1       21 0.11881952E-02 0.12503560E+03</pdfrwt>
<totfact> 0.41269458E+06</totfact>
</mgrwt>
</event>
<event>
 5    0  0.1593563E+000  0.1250146E+03  0.7546771E-02  0.1235046E+00
         21   -1    0    0  503  502  0.00000000000E+00  0.00000000000E+00  0.18169968192E+03  0.18169968192E+03  0.00000000000E+00 0. -1.
         21   -1    0    0  502  503 -0.00000000000E+00 -0.00000000000E+00 -0.21503404346E+02  0.21503404346E+02  0.00000000000E+00 0. -1.
         25    2    1    2    0    0  0.00000000000E+00  0.00000000000E+00  0.16019627757E+03  0.20320308627E+03  0.12501458683E+03 0.  0.
          4    1    3    3  501    0  0.42655346698E+02 -0.19316081374E+02  0.12840285063E+02  0.48578441948E+02  0.15500000000E+01 0.  1.
         -4    1    3    3    0  501 -0.42655346698E+02  0.19316081374E+02  0.14735599251E+03  0.15462464432E+03  0.15500000000E+01 0.  1.
<mgrwt>
<rscale>  2 0.12501459E+03</rscale>
<asrwt>0</asrwt>
<pdfrwt beam="1">  1       21 0.27953796E-01 0.12501459E+03</pdfrwt>
<pdfrwt beam="2">  1       21 0.33082162E-02 0.12501459E+03</pdfrwt>
<totfact> 0.64557984E+06</totfact>
</mgrwt>
</event>
<event>
 5    0  0.1352672E+000  0.1250027E+03  0.7546771E-02  0.1235065E+00
         21   -1    0    0  503  502  0.00000000000E+00  0.00000000000E+00  0.43900455074E+03  0.43900455074E+03  0.00000000000E+00 0. -1.
         21   -1    0    0  502  503 -0.00000000000E+00 -0.00000000000E+00 -0.88983540452E+01  0.88983540452E+01  0.00000000000E+00 0. -1.
         25    2    1    2    0    0  0.00000000000E+00  0.00000000000E+00  0.43010619669E+03  0.44790290478E+03  0.12500268669E+03 0.  0.
          4    1    3    3  501    0  0.61254715417E+02  0.10400457938E+02  0.19136480680E+03  0.20120437736E+03  0.15500000000E+01 0.  1.
         -4    1    3    3    0  501 -0.61254715417E+02 -0.10400457938E+02  0.23874138989E+03  0.24669852742E+03  0.15500000000E+01 0.  1.
<mgrwt>
<rscale>  2 0.12500269E+03</rscale>
<asrwt>0</asrwt>
<pdfrwt beam="1">  1       21 0.67539145E-01 0.12500269E+03</pdfrwt>
<pdfrwt beam="2">  1       21 0.13689779E-02 0.12500269E+03</pdfrwt>
<totfact> 0.45015010E+06</totfact>
</mgrwt>
</event>
<event>
 5    0  0.1580054E+000  0.1249991E+03  0.7546771E-02  0.1235071E+00
         21   -1    0    0  503  502  0.00000000000E+00  0.00000000000E+00  0.41215661182E+02  0.41215661182E+02  0.00000000000E+00 0.  1.
         21   -1    0    0  502  503 -0.00000000000E+00 -0.00000000000E+00 -0.94774534940E+02  0.94774534940E+02  0.00000000000E+00 0.  1.
         25    2    1    2    0    0  0.00000000000E+00  0.00000000000E+00 -0.53558873759E+02  0.13599019612E+03  0.12499912193E+03 0.  0.
          4    1    3    3  501    0 -0.50981245737E+02 -0.26344516046E+02  0.10522180104E+00  0.57406746243E+02  0.15500000000E+01 0.  1.
         -4    1    3    3    0  501  0.50981245737E+02  0.26344516046E+02 -0.53664095560E+02  0.78583449879E+02  0.15500000000E+01 0.  1.
<mgrwt>
<rscale>  2 0.12499912E+03</rscale>
<asrwt>0</asrwt>
<pdfrwt beam="1">  1       21 0.63408711E-02 0.12499912E+03</pdfrwt>
<pdfrwt beam="2">  1       21 0.14580697E-01 0.12499912E+03</pdfrwt>
<totfact> 0.72567253E+06</totfact>
</mgrwt>
</event>
<event>
 5    0  0.1534220E+000  0.1250050E+03  0.7546771E-02  0.1235061E+00
         21   -1    0    0  503  502  0.00000000000E+00  0.00000000000E+00  0.85447262415E+02  0.85447262415E+02  0.00000000000E+00 0. -1.
         21   -1    0    0  502  503 -0.00000000000E+00 -0.00000000000E+00 -0.45719010193E+02  0.45719010193E+02  0.00000000000E+00 0. -1.
         25    2    1    2    0    0  0.00000000000E+00  0.00000000000E+00  0.39728252221E+02  0.13116627261E+03  0.12500502808E+03 0.  0.
          4    1    3    3  501    0 -0.93738803152E+01  0.47827354636E+02  0.60891638472E+02  0.78009740542E+02  0.15500000000E+01 0. -1.
         -4    1    3    3    0  501  0.93738803152E+01 -0.47827354636E+02 -0.21163386251E+02  0.53156532066E+02  0.15500000000E+01 0. -1.
<mgrwt>
<rscale>  2 0.12500503E+03</rscale>
<asrwt>0</asrwt>
<pdfrwt beam="1">  1       21 0.13145733E-01 0.12500503E+03</pdfrwt>
<pdfrwt beam="2">  1       21 0.70336939E-02 0.12500503E+03</pdfrwt>
<totfact> 0.73198883E+06</totfact>
</mgrwt>
</event>
<event>
 5    0  0.1614955E+000  0.1250188E+03  0.7546771E-02  0.1235040E+00
         21   -1    0    0  503  502  0.00000000000E+00  0.00000000000E+00  0.43133454331E+02  0.43133454331E+02  0.00000000000E+00 0.  1.
         21   -1    0    0  502  503 -0.00000000000E+00 -0.00000000000E+00 -0.90589201215E+02  0.90589201215E+02  0.00000000000E+00 0.  1.
         25    2    1    2    0    0  0.00000000000E+00  0.00000000000E+00 -0.47455746884E+02  0.13372265555E+03  0.12501880136E+03 0.  0.
          4    1    3    3  501    0  0.51991721286E+02  0.31313927223E+02 -0.39640487013E+02  0.72508425932E+02  0.15500000000E+01 0. -1.
         -4    1    3    3    0  501 -0.51991721286E+02 -0.31313927223E+02 -0.78152598712E+01  0.61214229614E+02  0.15500000000E+01 0. -1.
<mgrwt>
<rscale>  2 0.12501880E+03</rscale>
<asrwt>0</asrwt>
<pdfrwt beam="1">  1       21 0.66359161E-02 0.12501880E+03</pdfrwt>
<pdfrwt beam="2">  1       21 0.13936800E-01 0.12501880E+03</pdfrwt>
<totfact> 0.72831116E+06</totfact>
</mgrwt>
</event>
<event>
 5    0  0.1533454E+000  0.1250382E+03  0.7546771E-02  0.1235010E+00
         21   -1    0    0  503  502  0.00000000000E+00  0.00000000000E+00  0.10863564004E+03  0.10863564004E+03  0.00000000000E+00 0. -1.
         21   -1    0    0  502  503 -0.00000000000E+00 -0.00000000000E+00 -0.35979333805E+02  0.35979333805E+02  0.00000000000E+00 0. -1.
         25    2    1    2    0    0  0.00000000000E+00  0.00000000000E+00  0.72656306235E+02  0.14461497385E+03  0.12503820146E+03 0.  0.
          4    1    3    3  501    0 -0.54396960019E+02 -0.18785634931E+02  0.64523383360E+02  0.86473110498E+02  0.15500000000E+01 0. -1.
         -4    1    3    3    0  501  0.54396960019E+02  0.18785634931E+02  0.81329228757E+01  0.58141863348E+02  0.15500000000E+01 0. -1.
<mgrwt>
<rscale>  2 0.12503820E+03</rscale>
<asrwt>0</asrwt>
<pdfrwt beam="1">  1       21 0.16713175E-01 0.12503820E+03</pdfrwt>
<pdfrwt beam="2">  1       21 0.55352822E-02 0.12503820E+03</pdfrwt>
<totfact> 0.71372945E+06</totfact>
</mgrwt>
</event>
<event>
 5    0  0.1267355E+000  0.1250010E+03  0.7546771E-02  0.1235068E+00
         21   -1    0    0  503  502  0.00000000000E+00  0.00000000000E+00  0.55953443459E+03  0.55953443459E+03  0.00000000000E+00 0. -1.
         21   -1    0    0  502  503 -0.00000000000E+00 -0.00000000000E+00 -0.69813585620E+01  0.69813585620E+01  0.00000000000E+00 0. -1.
         25    2    1    2    0    0  0.00000000000E+00  0.00000000000E+00  0.55255307602E+03  0.56651579315E+03  0.12500096825E+03 0.  0.
          4    1    3    3  501    0 -0.62495240948E-01 -0.27816058725E+02  0.22715409892E+02  0.35946201124E+02  0.15500000000E+01 0.  1.
         -4    1    3    3    0  501  0.62495240948E-01  0.27816058725E+02  0.52983766613E+03  0.53056959203E+03  0.15500000000E+01 0.  1.
<mgrwt>
<rscale>  2 0.12500097E+03</rscale>
<asrwt>0</asrwt>
<pdfrwt beam="1">  1       21 0.86082185E-01 0.12500097E+03</pdfrwt>
<pdfrwt beam="2">  1       21 0.10740556E-02 0.12500097E+03</pdfrwt>
<totfact> 0.38651142E+06</totfact>
</mgrwt>
</event>
<event>
 5    0  0.1572235E+000  0.1250002E+03  0.7546771E-02  0.1235069E+00
         21   -1    0    0  503  502  0.00000000000E+00  0.00000000000E+00  0.97285540353E+02  0.97285540353E+02  0.00000000000E+00 0.  1.
         21   -1    0    0  502  503 -0.00000000000E+00 -0.00000000000E+00 -0.40152572948E+02  0.40152572948E+02  0.00000000000E+00 0.  1.
         25    2    1    2    0    0  0.00000000000E+00  0.00000000000E+00  0.57132967405E+02  0.13743811330E+03  0.12500023609E+03 0.  0.
          4    1    3    3  501    0 -0.57009421851E+02  0.25504680716E+02  0.30563629315E+02  0.69549269264E+02  0.15500000000E+01 0. -1.
         -4    1    3    3    0  501  0.57009421851E+02 -0.25504680716E+02  0.26569338090E+02  0.67888844038E+02  0.15500000000E+01 0. -1.
<mgrwt>
<rscale>  2 0.12500024E+03</rscale>
<asrwt>0</asrwt>
<pdfrwt beam="1">  1       21 0.14967006E-01 0.12500024E+03</pdfrwt>
<pdfrwt beam="2">  1       21 0.61773189E-02 0.12500024E+03</pdfrwt>
<totfact> 0.72374794E+06</totfact>
</mgrwt>
</event>
<event>
 5    0  0.1462845E+000  0.1249956E+03  0.7546771E-02  0.1235076E+00
         21   -1    0    0  503  502  0.00000000000E+00  0.00000000000E+00  0.18670998499E+03  0.18670998499E+03  0.00000000000E+00 0.  1.
         21   -1    0    0  502  503 -0.00000000000E+00 -0.00000000000E+00 -0.20920001799E+02  0.20920001799E+02  0.00000000000E+00 0.  1.
         25    2    1    2    0    0  0.00000000000E+00  0.00000000000E+00  0.16578998319E+03  0.20762998679E+03  0.12499557147E+03 0.  0.
          4    1    3    3  501    0  0.38726768622E+02 -0.32570288466E+02  0.14376886511E+03  0.15242203048E+03  0.15500000000E+01 0. -1.
         -4    1    3    3    0  501 -0.38726768622E+02  0.32570288466E+02  0.22021118077E+02  0.55207956311E+02  0.15500000000E+01 0. -1.
<mgrwt>
<rscale>  2 0.12499557E+03</rscale>
<asrwt>0</asrwt>
<pdfrwt beam="1">  1       21 0.28724612E-01 0.12499557E+03</pdfrwt>
<pdfrwt beam="2">  1       21 0.32184619E-02 0.12499557E+03</pdfrwt>
<totfact> 0.64116938E+06</totfact>
</mgrwt>
</event>
<event>
 5    0  0.1222151E+000  0.1250026E+03  0.7546771E-02  0.1235065E+00
         21   -1    0    0  503  502  0.00000000000E+00  0.00000000000E+00  0.12811575831E+04  0.12811575831E+04  0.00000000000E+00 0.  1.
         21   -1    0    0  502  503 -0.00000000000E+00 -0.00000000000E+00 -0.30491283736E+01  0.30491283736E+01  0.00000000000E+00 0.  1.
         25    2    1    2    0    0  0.00000000000E+00  0.00000000000E+00  0.12781084548E+04  0.12842067115E+04  0.12500262298E+03 0.  0.
          4    1    3    3  501    0  0.36015707749E+02 -0.46207791910E+02  0.86218426889E+03  0.86417382930E+03  0.15500000000E+01 0. -1.
         -4    1    3    3    0  501 -0.36015707749E+02  0.46207791910E+02  0.41592418589E+03  0.42003288222E+03  0.15500000000E+01 0. -1.
<mgrwt>
<rscale>  2 0.12500262E+03</rscale>
<asrwt>0</asrwt>
<pdfrwt beam="1">  1       21 0.19710074E+00 0.12500262E+03</pdfrwt>
<pdfrwt beam="2">  1       21 0.46909770E-03 0.12500262E+03</pdfrwt>
<totfact> 0.17537233E+06</totfact>
</mgrwt>
</event>
<event>
 5    0  0.1504605E+000  0.1250072E+03  0.7546771E-02  0.1235058E+00
         21   -1    0    0  503  502  0.00000000000E+00  0.00000000000E+00  0.46490116451E+02  0.46490116451E+02  0.00000000000E+00 0. -1.
         21   -1    0    0  502  503 -0.00000000000E+00 -0.00000000000E+00 -0.84032912272E+02  0.84032912272E+02  0.00000000000E+00 0. -1.
         25    2    1    2    0    0  0.00000000000E+00  0.00000000000E+00 -0.37542795821E+02  0.13052302872E+03  0.12500719783E+03 0.  0.
          4    1    3    3  501    0 -0.27173883850E+02 -0.37256193993E+02  0.25253676516E+02  0.52598428036E+02  0.15500000000E+01 0.  1.
         -4    1    3    3    0  501  0.27173883850E+02  0.37256193993E+02 -0.62796472337E+02  0.77924600687E+02  0.15500000000E+01 0.  1.
<mgrwt>
<rscale>  2 0.12500720E+03</rscale>
<asrwt>0</asrwt>
<pdfrwt beam="1">  1       21 0.71523256E-02 0.12500720E+03</pdfrwt>
<pdfrwt beam="2">  1       21 0.12928140E-01 0.12500720E+03</pdfrwt>
<totfact> 0.73281563E+06</totfact>
</mgrwt>
</event>
<event>
 4    0  0.1528512E+000  0.1255731E+03  0.7546771E-02  0.1234176E+00
         21   -1    0    0  503  502  0.00000000000E+00  0.00000000000E+00  0.81418330949E+02  0.81418330949E+02  0.00000000000E+00 0.  1.
         21   -1    0    0  502  503 -0.00000000000E+00 -0.00000000000E+00 -0.48418465216E+02  0.48418465216E+02  0.00000000000E+00 0.  1.
          4    1    1    2  501    0  0.24091919773E+02 -0.54791891170E+02 -0.30408715074E+01  0.59951825126E+02  0.15500000000E+01 0. -1.
         -4    1    1    2    0  501 -0.24091919773E+02  0.54791891170E+02  0.36040737240E+02  0.69884971040E+02  0.15500000000E+01 0. -1.
<mgrwt>
<rscale>  2 0.12557310E+03</rscale>
<asrwt>0</asrwt>
<pdfrwt beam="1">  1       21 0.12525897E-01 0.12557310E+03</pdfrwt>
<pdfrwt beam="2">  1       21 0.74489947E-02 0.12557310E+03</pdfrwt>
<totfact> 0.72322999E+06</totfact>
</mgrwt>
</event>
<event>
 5    0  0.1566239E+000  0.1250186E+03  0.7546771E-02  0.1235040E+00
         21   -1    0    0  503  502  0.00000000000E+00  0.00000000000E+00  0.14503431323E+03  0.14503431323E+03  0.00000000000E+00 0. -1.
         21   -1    0    0  502  503 -0.00000000000E+00 -0.00000000000E+00 -0.26941298655E+02  0.26941298655E+02  0.00000000000E+00 0. -1.
         25    2    1    2    0    0  0.00000000000E+00  0.00000000000E+00  0.11809301458E+03  0.17197561188E+03  0.12501860258E+03 0.  0.
          4    1    3    3  501    0 -0.59340665561E+02  0.19537427398E+02  0.57108624304E+02  0.84657091425E+02  0.15500000000E+01 0. -1.
         -4    1    3    3    0  501  0.59340665561E+02 -0.19537427398E+02  0.60984390271E+02  0.87318520460E+02  0.15500000000E+01 0. -1.
<mgrwt>
<rscale>  2 0.12501860E+03</rscale>
<asrwt>0</asrwt>
<pdfrwt beam="1">  1       21 0.22312971E-01 0.12501860E+03</pdfrwt>
<pdfrwt beam="2">  1       21 0.41448153E-02 0.12501860E+03</pdfrwt>
<totfact> 0.68052069E+06</totfact>
</mgrwt>
</event>
<event>
 5    0  0.1643507E+000  0.1249970E+03  0.7546771E-02  0.1235074E+00
         21   -1    0    0  503  502  0.00000000000E+00  0.00000000000E+00  0.13199605664E+03  0.13199605664E+03  0.00000000000E+00 0. -1.
         21   -1    0    0  502  503 -0.00000000000E+00 -0.00000000000E+00 -0.29592268954E+02  0.29592268954E+02  0.00000000000E+00 0. -1.
         25    2    1    2    0    0  0.00000000000E+00  0.00000000000E+00  0.10240378769E+03  0.16158832560E+03  0.12499700491E+03 0.  0.
          4    1    3    3  501    0 -0.47748362739E+02 -0.39905738873E+02  0.58432697559E+02  0.85376558746E+02  0.15500000000E+01 0.  1.
         -4    1    3    3    0  501  0.47748362739E+02  0.39905738873E+02  0.43971090128E+02  0.76211766849E+02  0.15500000000E+01 0.  1.
<mgrwt>
<rscale>  2 0.12499700E+03</rscale>
<asrwt>0</asrwt>
<pdfrwt beam="1">  1       21 0.20307085E-01 0.12499700E+03</pdfrwt>
<pdfrwt beam="2">  1       21 0.45526569E-02 0.12499700E+03</pdfrwt>
<totfact> 0.69331217E+06</totfact>
</mgrwt>
</event>
<event>
 5    0  0.1672183E+000  0.1249998E+03  0.7546771E-02  0.1235070E+00
         21   -1    0    0  503  502  0.00000000000E+00  0.00000000000E+00  0.98714842621E+02  0.98714842621E+02  0.00000000000E+00 0. -1.
         21   -1    0    0  502  503 -0.00000000000E+00 -0.00000000000E+00 -0.39570891997E+02  0.39570891997E+02  0.00000000000E+00 0. -1.
         25    2    1    2    0    0  0.00000000000E+00  0.00000000000E+00  0.59143950624E+02  0.13828573462E+03  0.12499975001E+03 0.  0.
          4    1    3    3  501    0  0.14068004462E+02  0.51231280743E+02 -0.68058824778E+01  0.53584283259E+02  0.15500000000E+01 0.  1.
         -4    1    3    3    0  501 -0.14068004462E+02 -0.51231280743E+02  0.65949833102E+02  0.84701451358E+02  0.15500000000E+01 0.  1.
<mgrwt>
<rscale>  2 0.12499975E+03</rscale>
<asrwt>0</asrwt>
<pdfrwt beam="1">  1       21 0.15186899E-01 0.12499975E+03</pdfrwt>
<pdfrwt beam="2">  1       21 0.60878296E-02 0.12499975E+03</pdfrwt>
<totfact> 0.72264360E+06</totfact>
</mgrwt>
</event>
<event>
 5    0  0.1504791E+000  0.1249991E+03  0.7546771E-02  0.1235071E+00
         21   -1    0    0  503  502  0.00000000000E+00  0.00000000000E+00  0.22450129673E+03  0.22450129673E+03  0.00000000000E+00 0. -1.
         21   -1    0    0  502  503 -0.00000000000E+00 -0.00000000000E+00 -0.17399423083E+02  0.17399423083E+02  0.00000000000E+00 0. -1.
         25    2    1    2    0    0  0.00000000000E+00  0.00000000000E+00  0.20710187365E+03  0.24190071982E+03  0.12499908871E+03 0.  0.
          4    1    3    3  501    0  0.48783219585E+02 -0.31836769370E+02  0.59830034845E+02  0.83518967705E+02  0.15500000000E+01 0. -1.
         -4    1    3    3    0  501 -0.48783219585E+02  0.31836769370E+02  0.14727183881E+03  0.15838175211E+03  0.15500000000E+01 0. -1.
<mgrwt>
<rscale>  2 0.12499909E+03</rscale>
<asrwt>0</asrwt>
<pdfrwt beam="1">  1       21 0.34538659E-01 0.12499909E+03</pdfrwt>
<pdfrwt beam="2">  1       21 0.26768345E-02 0.12499909E+03</pdfrwt>
<totfact> 0.60650613E+06</totfact>
</mgrwt>
</event>
<event>
 5    0  0.1314260E+000  0.1250020E+03  0.7546771E-02  0.1235066E+00
         21   -1    0    0  503  502  0.00000000000E+00  0.00000000000E+00  0.63709629781E+03  0.63709629781E+03  0.00000000000E+00 0.  1.
         21   -1    0    0  502  503 -0.00000000000E+00 -0.00000000000E+00 -0.61315315975E+01  0.61315315975E+01  0.00000000000E+00 0.  1.
         25    2    1    2    0    0  0.00000000000E+00  0.00000000000E+00  0.63096476621E+03  0.64322782940E+03  0.12500201727E+03 0.  0.
          4    1    3    3  501    0  0.73859197975E+01  0.59339352913E+02  0.40871304090E+03  0.41306714093E+03  0.15500000000E+01 0. -1.
         -4    1    3    3    0  501 -0.73859197975E+01 -0.59339352913E+02  0.22225172531E+03  0.23016068847E+03  0.15500000000E+01 0. -1.
<mgrwt>
<rscale>  2 0.12500202E+03</rscale>
<asrwt>0</asrwt>
<pdfrwt beam="1">  1       21 0.98014763E-01 0.12500202E+03</pdfrwt>
<pdfrwt beam="2">  1       21 0.94331306E-03 0.12500202E+03</pdfrwt>
<totfact> 0.35206012E+06</totfact>
</mgrwt>
</event>
<event>
 5    0  0.1573240E+000  0.1250024E+03  0.7546771E-02  0.1235066E+00
         21   -1    0    0  503  502  0.00000000000E+00  0.00000000000E+00  0.15643779168E+03  0.15643779168E+03  0.00000000000E+00 0.  1.
         21   -1    0    0  502  503 -0.00000000000E+00 -0.00000000000E+00 -0.24970952405E+02  0.24970952405E+02  0.00000000000E+00 0.  1.
         25    2    1    2    0    0  0.00000000000E+00  0.00000000000E+00  0.13146683927E+03  0.18140874408E+03  0.12500241038E+03 0.  0.
          4    1    3    3  501    0  0.17028399007E+02 -0.47337628305E+02  0.11955539551E+02  0.51731565337E+02  0.15500000000E+01 0. -1.
         -4    1    3    3    0  501 -0.17028399007E+02  0.47337628305E+02  0.11951129972E+03  0.12967717875E+03  0.15500000000E+01 0. -1.
<mgrwt>
<rscale>  2 0.12500241E+03</rscale>
<asrwt>0</asrwt>
<pdfrwt beam="1">  1       21 0.24067352E-01 0.12500241E+03</pdfrwt>
<pdfrwt beam="2">  1       21 0.38416851E-02 0.12500241E+03</pdfrwt>
<totfact> 0.66986202E+06</totfact>
</mgrwt>
</event>
<event>
 5    0  0.1222151E+000  0.1250036E+03  0.7546771E-02  0.1235064E+00
         21   -1    0    0  503  502  0.00000000000E+00  0.00000000000E+00  0.13426465474E+04  0.13426465474E+04  0.00000000000E+00 0. -1.
         21   -1    0    0  502  503 -0.00000000000E+00 -0.00000000000E+00 -0.29095327423E+01  0.29095327423E+01  0.00000000000E+00 0. -1.
         25    2    1    2    0    0  0.00000000000E+00  0.00000000000E+00  0.13397370147E+04  0.13455560801E+04  0.12500358540E+03 0.  0.
          4    1    3    3  501    0 -0.49367054021E+01  0.62215494968E+02  0.63769702191E+03  0.64074568522E+03  0.15500000000E+01 0. -1.
         -4    1    3    3    0  501  0.49367054021E+01 -0.62215494968E+02  0.70203999275E+03  0.70481039492E+03  0.15500000000E+01 0. -1.
<mgrwt>
<rscale>  2 0.12500359E+03</rscale>
<asrwt>0</asrwt>
<pdfrwt beam="1">  1       21 0.20656051E+00 0.12500359E+03</pdfrwt>
<pdfrwt beam="2">  1       21 0.44762149E-03 0.12500359E+03</pdfrwt>
<totfact> 0.16452282E+06</totfact>
</mgrwt>
</event>
<event>
 5    0  0.1313664E+000  0.1249978E+03  0.7546771E-02  0.1235073E+00
         21   -1    0    0  503  502  0.00000000000E+00  0.00000000000E+00  0.57396410124E+01  0.57396410124E+01  0.00000000000E+00 0.  1.
         21   -1    0    0  502  503 -0.00000000000E+00 -0.00000000000E+00 -0.68055047188E+03  0.68055047188E+03  0.00000000000E+00 0.  1.
         25    2    1    2    0    0  0.00000000000E+00  0.00000000000E+00 -0.67481083087E+03  0.68629011289E+03  0.12499784637E+03 0.  0.
          4    1    3    3  501    0  0.27116039261E+01 -0.53626056637E+02 -0.16200351161E+03  0.17067702546E+03  0.15500000000E+01 0.  1.
         -4    1    3    3    0  501 -0.27116039261E+01  0.53626056637E+02 -0.51280731926E+03  0.51561308743E+03  0.15500000000E+01 0.  1.
<mgrwt>
<rscale>  2 0.12499785E+03</rscale>
<asrwt>0</asrwt>
<pdfrwt beam="1">  1       21 0.88302195E-03 0.12499785E+03</pdfrwt>
<pdfrwt beam="2">  1       21 0.10470004E+00 0.12499785E+03</pdfrwt>
<totfact> 0.33447231E+06</totfact>
</mgrwt>
</event>
<event>
 5    0  0.1543645E+000  0.1250005E+03  0.7546771E-02  0.1235069E+00
         21   -1    0    0  503  502  0.00000000000E+00  0.00000000000E+00  0.62950787751E+02  0.62950787751E+02  0.00000000000E+00 0. -1.
         21   -1    0    0  502  503 -0.00000000000E+00 -0.00000000000E+00 -0.62052891733E+02  0.62052891733E+02  0.00000000000E+00 0. -1.
         25    2    1    2    0    0  0.00000000000E+00  0.00000000000E+00  0.89789601889E+00  0.12500367948E+03  0.12500045467E+03 0.  0.
          4    1    3    3  501    0 -0.33106414836E+02  0.49104994624E+02 -0.19464895844E+02  0.62358799464E+02  0.15500000000E+01 0.  1.
         -4    1    3    3    0  501  0.33106414836E+02 -0.49104994624E+02  0.20362791863E+02  0.62644880020E+02  0.15500000000E+01 0.  1.
<mgrwt>
<rscale>  2 0.12500045E+03</rscale>
<asrwt>0</asrwt>
<pdfrwt beam="1">  1       21 0.96847365E-02 0.12500045E+03</pdfrwt>
<pdfrwt beam="2">  1       21 0.95465988E-02 0.12500045E+03</pdfrwt>
<totfact> 0.74042224E+06</totfact>
</mgrwt>
</event>
<event>
 5    0  0.1519769E+000  0.1249963E+03  0.7546771E-02  0.1235075E+00
         21   -1    0    0  503  502  0.00000000000E+00  0.00000000000E+00  0.36251908241E+02  0.36251908241E+02  0.00000000000E+00 0. -1.
         21   -1    0    0  502  503 -0.00000000000E+00 -0.00000000000E+00 -0.10774658497E+03  0.10774658497E+03  0.00000000000E+00 0. -1.
         25    2    1    2    0    0  0.00000000000E+00  0.00000000000E+00 -0.71494676731E+02  0.14399849321E+03  0.12499630893E+03 0.  0.
          4    1    3    3  501    0 -0.39053094793E+02  0.28427685967E+02 -0.81399096172E+02  0.94665162018E+02  0.15500000000E+01 0. -1.
         -4    1    3    3    0  501  0.39053094793E+02 -0.28427685967E+02  0.99044194409E+01  0.49333331195E+02  0.15500000000E+01 0. -1.
<mgrwt>
<rscale>  2 0.12499631E+03</rscale>
<asrwt>0</asrwt>
<pdfrwt beam="1">  1       21 0.55772167E-02 0.12499631E+03</pdfrwt>
<pdfrwt beam="2">  1       21 0.16576397E-01 0.12499631E+03</pdfrwt>
<totfact> 0.71528238E+06</totfact>
</mgrwt>
</event>
<event>
 5    0  0.1358357E+000  0.1250065E+03  0.7546771E-02  0.1235059E+00
         21   -1    0    0  503  502  0.00000000000E+00  0.00000000000E+00  0.88448782883E+01  0.88448782883E+01  0.00000000000E+00 0.  1.
         21   -1    0    0  502  503 -0.00000000000E+00 -0.00000000000E+00 -0.44168567009E+03  0.44168567009E+03  0.00000000000E+00 0.  1.
         25    2    1    2    0    0  0.00000000000E+00  0.00000000000E+00 -0.43284079180E+03  0.45053054838E+03  0.12500649573E+03 0.  0.
          4    1    3    3  501    0  0.28541841952E+01  0.51788931549E+02 -0.90845318098E+02  0.10462081112E+03  0.15500000000E+01 0. -1.
         -4    1    3    3    0  501 -0.28541841952E+01 -0.51788931549E+02 -0.34199547370E+03  0.34590973726E+03  0.15500000000E+01 0. -1.
<mgrwt>
<rscale>  2 0.12500650E+03</rscale>
<asrwt>0</asrwt>
<pdfrwt beam="1">  1       21 0.13607509E-02 0.12500650E+03</pdfrwt>
<pdfrwt beam="2">  1       21 0.67951624E-01 0.12500650E+03</pdfrwt>
<totfact> 0.44853279E+06</totfact>
</mgrwt>
</event>
<event>
 5    0  0.1484518E+000  0.1250048E+03  0.7546771E-02  0.1235062E+00
         21   -1    0    0  503  502  0.00000000000E+00  0.00000000000E+00  0.20635142990E+03  0.20635142990E+03  0.00000000000E+00 0. -1.
         21   -1    0    0  502  503 -0.00000000000E+00 -0.00000000000E+00 -0.18931538525E+02  0.18931538525E+02  0.00000000000E+00 0. -1.
         25    2    1    2    0    0  0.00000000000E+00  0.00000000000E+00  0.18741989138E+03  0.22528296843E+03  0.12500480062E+03 0.  0.
          4    1    3    3  501    0  0.49175500559E+02 -0.77293761103E+01  0.25650565185E+02  0.56020773867E+02  0.15500000000E+01 0.  1.
         -4    1    3    3    0  501 -0.49175500559E+02  0.77293761103E+01  0.16176932619E+03  0.16926219456E+03  0.15500000000E+01 0.  1.
<mgrwt>
<rscale>  2 0.12500480E+03</rscale>
<asrwt>0</asrwt>
<pdfrwt beam="1">  1       21 0.31746372E-01 0.12500480E+03</pdfrwt>
<pdfrwt beam="2">  1       21 0.29125445E-02 0.12500480E+03</pdfrwt>
<totfact> 0.62279011E+06</totfact>
</mgrwt>
</event>
<event>
 5    0  0.1222151E+000  0.1249989E+03  0.7546771E-02  0.1235071E+00
         21   -1    0    0  503  502  0.00000000000E+00  0.00000000000E+00  0.81188530316E+03  0.81188530316E+03  0.00000000000E+00 0.  1.
         21   -1    0    0  502  503 -0.00000000000E+00 -0.00000000000E+00 -0.48112484004E+01  0.48112484004E+01  0.00000000000E+00 0.  1.
         25    2    1    2    0    0  0.00000000000E+00  0.00000000000E+00  0.80707405476E+03  0.81669655156E+03  0.12499890985E+03 0.  0.
          4    1    3    3  501    0  0.58343431942E+02 -0.11568659555E+01  0.54941191463E+03  0.55250443331E+03  0.15500000000E+01 0. -1.
         -4    1    3    3    0  501 -0.58343431942E+02  0.11568659555E+01  0.25766214013E+03  0.26419211825E+03  0.15500000000E+01 0. -1.
<mgrwt>
<rscale>  2 0.12499891E+03</rscale>
<asrwt>0</asrwt>
<pdfrwt beam="1">  1       21 0.12490532E+00 0.12499891E+03</pdfrwt>
<pdfrwt beam="2">  1       21 0.74019271E-03 0.12499891E+03</pdfrwt>
<totfact> 0.28817839E+06</totfact>
</mgrwt>
</event>
<event>
 5    0  0.1598832E+000  0.1249974E+03  0.7546771E-02  0.1235073E+00
         21   -1    0    0  503  502  0.00000000000E+00  0.00000000000E+00  0.33945885896E+02  0.33945885896E+02  0.00000000000E+00 0. -1.
         21   -1    0    0  502  503 -0.00000000000E+00 -0.00000000000E+00 -0.11506806165E+03  0.11506806165E+03  0.00000000000E+00 0. -1.
         25    2    1    2    0    0  0.00000000000E+00  0.00000000000E+00 -0.81122175752E+02  0.14901394754E+03  0.12499739663E+03 0.  0.
          4    1    3    3  501    0  0.39376068974E+02  0.14987825504E+02 -0.95562069121E+02  0.10444913248E+03  0.15500000000E+01 0.  1.
         -4    1    3    3    0  501 -0.39376068974E+02 -0.14987825504E+02  0.14439893369E+02  0.44564815064E+02  0.15500000000E+01 0.  1.
<mgrwt>
<rscale>  2 0.12499740E+03</rscale>
<asrwt>0</asrwt>
<pdfrwt beam="1">  1       21 0.52224439E-02 0.12499740E+03</pdfrwt>
<pdfrwt beam="2">  1       21 0.17702779E-01 0.12499740E+03</pdfrwt>
<totfact> 0.70887985E+06</totfact>
</mgrwt>
</event>
<event>
 5    0  0.1747901E+000  0.1249977E+03  0.7546771E-02  0.1235073E+00
         21   -1    0    0  503  502  0.00000000000E+00  0.00000000000E+00  0.52072293235E+02  0.52072293235E+02  0.00000000000E+00 0. -1.
         21   -1    0    0  502  503 -0.00000000000E+00 -0.00000000000E+00 -0.75013082095E+02  0.75013082095E+02  0.00000000000E+00 0. -1.
         25    2    1    2    0    0  0.00000000000E+00  0.00000000000E+00 -0.22940788860E+02  0.12708537533E+03  0.12499765129E+03 0.  0.
          4    1    3    3  501    0  0.21437392851E+01  0.61434951676E+02 -0.11005963952E+00  0.61491979303E+02  0.15500000000E+01 0.  1.
         -4    1    3    3    0  501 -0.21437392851E+01 -0.61434951676E+02 -0.22830729221E+02  0.65593396026E+02  0.15500000000E+01 0.  1.
<mgrwt>
<rscale>  2 0.12499765E+03</rscale>
<asrwt>0</asrwt>
<pdfrwt beam="1">  1       21 0.80111221E-02 0.12499765E+03</pdfrwt>
<pdfrwt beam="2">  1       21 0.11540474E-01 0.12499765E+03</pdfrwt>
<totfact> 0.73761941E+06</totfact>
</mgrwt>
</event>
<event>
 5    0  0.1323564E+000  0.1249724E+03  0.7546771E-02  0.1235112E+00
         21   -1    0    0  503  502  0.00000000000E+00  0.00000000000E+00  0.69960722196E+01  0.69960722196E+01  0.00000000000E+00 0.  1.
         21   -1    0    0  502  503 -0.00000000000E+00 -0.00000000000E+00 -0.55810205769E+03  0.55810205769E+03  0.00000000000E+00 0.  1.
         25    2    1    2    0    0  0.00000000000E+00  0.00000000000E+00 -0.55110598547E+03  0.56509812991E+03  0.12497235377E+03 0.  0.
          4    1    3    3  501    0  0.10471304575E+02 -0.60498366298E+02 -0.32758678687E+03  0.33329447336E+03  0.15500000000E+01 0. -1.
         -4    1    3    3    0  501 -0.10471304575E+02  0.60498366298E+02 -0.22351919861E+03  0.23180365655E+03  0.15500000000E+01 0. -1.
<mgrwt>
<rscale>  2 0.12497235E+03</rscale>
<asrwt>0</asrwt>
<pdfrwt beam="1">  1       21 0.10763183E-02 0.12497235E+03</pdfrwt>
<pdfrwt beam="2">  1       21 0.85861899E-01 0.12497235E+03</pdfrwt>
<totfact> 0.38746750E+06</totfact>
</mgrwt>
</event>
<event>
 5    0  0.1496784E+000  0.1250043E+03  0.7546771E-02  0.1235063E+00
         21   -1    0    0  503  502  0.00000000000E+00  0.00000000000E+00  0.63489807723E+02  0.63489807723E+02  0.00000000000E+00 0.  1.
         21   -1    0    0  502  503 -0.00000000000E+00 -0.00000000000E+00 -0.61529860492E+02  0.61529860492E+02  0.00000000000E+00 0.  1.
         25    2    1    2    0    0  0.00000000000E+00  0.00000000000E+00  0.19599472315E+01  0.12501966822E+03  0.12500430412E+03 0.  0.
          4    1    3    3  501    0 -0.40321519932E+02  0.13453994752E+01 -0.46738377938E+02  0.61761748208E+02  0.15500000000E+01 0. -1.
         -4    1    3    3    0  501  0.40321519932E+02 -0.13453994752E+01  0.48698325170E+02  0.63257920008E+02  0.15500000000E+01 0. -1.
<mgrwt>
<rscale>  2 0.12500430E+03</rscale>
<asrwt>0</asrwt>
<pdfrwt beam="1">  1       21 0.97676627E-02 0.12500430E+03</pdfrwt>
<pdfrwt beam="2">  1       21 0.94661324E-02 0.12500430E+03</pdfrwt>
<totfact> 0.74032778E+06</totfact>
</mgrwt>
</event>
<event>
 5    0  0.1457196E+000  0.1250013E+03  0.7546771E-02  0.1235067E+00
         21   -1    0    0  503  502  0.00000000000E+00  0.00000000000E+00  0.28411744370E+02  0.28411744370E+02  0.00000000000E+00 0. -1.
         21   -1    0    0  502  503 -0.00000000000E+00 -0.00000000000E+00 -0.13749004638E+03  0.13749004638E+03  0.00000000000E+00 0. -1.
         25    2    1    2    0    0  0.00000000000E+00  0.00000000000E+00 -0.10907830201E+03  0.16590179075E+03  0.12500131281E+03 0.  0.
          4    1    3    3  501    0  0.24733120656E+02  0.19431336198E+02  0.17112776422E+02  0.35840671042E+02  0.15500000000E+01 0. -1.
         -4    1    3    3    0  501 -0.24733120656E+02 -0.19431336198E+02 -0.12619107843E+03  0.13006111971E+03  0.15500000000E+01 0. -1.
<mgrwt>
<rscale>  2 0.12500131E+03</rscale>
<asrwt>0</asrwt>
<pdfrwt beam="1">  1       21 0.43710376E-02 0.12500131E+03</pdfrwt>
<pdfrwt beam="2">  1       21 0.21152315E-01 0.12500131E+03</pdfrwt>
<totfact> 0.68803160E+06</totfact>
</mgrwt>
</event>
<event>
 5    0  0.1299212E+000  0.1250009E+03  0.7546771E-02  0.1235068E+00
         21   -1    0    0  503  502  0.00000000000E+00  0.00000000000E+00  0.60818556945E+01  0.60818556945E+01  0.00000000000E+00 0.  1.
         21   -1    0    0  502  503 -0.00000000000E+00 -0.00000000000E+00 -0.64228809211E+03  0.64228809211E+03  0.00000000000E+00 0.  1.
         25    2    1    2    0    0  0.00000000000E+00  0.00000000000E+00 -0.63620623641E+03  0.64836994780E+03  0.12500085585E+03 0.  0.
          4    1    3    3  501    0  0.47645369269E+00  0.61771479757E+02 -0.36674924107E+03  0.37191847366E+03  0.15500000000E+01 0.  1.
         -4    1    3    3    0  501 -0.47645369269E+00 -0.61771479757E+02 -0.26945699534E+03  0.27645147415E+03  0.15500000000E+01 0.  1.
<mgrwt>
<rscale>  2 0.12500086E+03</rscale>
<asrwt>0</asrwt>
<pdfrwt beam="1">  1       21 0.93566940E-03 0.12500086E+03</pdfrwt>
<pdfrwt beam="2">  1       21 0.98813628E-01 0.12500086E+03</pdfrwt>
<totfact> 0.34991653E+06</totfact>
</mgrwt>
</event>
<event>
 5    0  0.1222151E+000  0.1250025E+03  0.7546771E-02  0.1235065E+00
         21   -1    0    0  503  502  0.00000000000E+00  0.00000000000E+00  0.97190973609E+03  0.97190973609E+03  0.00000000000E+00 0.  1.
         21   -1    0    0  502  503 -0.00000000000E+00 -0.00000000000E+00 -0.40193067614E+01  0.40193067614E+01  0.00000000000E+00 0.  1.
         25    2    1    2    0    0  0.00000000000E+00  0.00000000000E+00  0.96789042933E+03  0.97592904285E+03  0.12500245396E+03 0.  0.
          4    1    3    3  501    0  0.47606257672E+02 -0.35174675237E+02  0.64016637692E+03  0.64289890822E+03  0.15500000000E+01 0. -1.
         -4    1    3    3    0  501 -0.47606257672E+02  0.35174675237E+02  0.32772405241E+03  0.33303013463E+03  0.15500000000E+01 0. -1.
<mgrwt>
<rscale>  2 0.12500245E+03</rscale>
<asrwt>0</asrwt>
<pdfrwt beam="1">  1       21 0.14952439E+00 0.12500245E+03</pdfrwt>
<pdfrwt beam="2">  1       21 0.61835566E-03 0.12500245E+03</pdfrwt>
<totfact> 0.24228364E+06</totfact>
</mgrwt>
</event>
<event>
 4    0  0.1874118E+000  0.1240937E+03  0.7546771E-02  0.1236493E+00
         21   -1    0    0  503  502  0.00000000000E+00  0.00000000000E+00  0.23744094984E+02  0.23744094984E+02  0.00000000000E+00 0.  1.
         21   -1    0    0  502  503 -0.00000000000E+00 -0.00000000000E+00 -0.16213761198E+03  0.16213761198E+03  0.00000000000E+00 0.  1.
          4    1    1    2  501    0  0.38460352559E+02 -0.45390684856E+02 -0.95480581734E+02  0.11250980837E+03  0.15500000000E+01 0. -1.
         -4    1    1    2    0  501 -0.38460352559E+02  0.45390684856E+02 -0.42912935261E+02  0.73371898594E+02  0.15500000000E+01 0. -1.
<mgrwt>
<rscale>  2 0.12409369E+03</rscale>
<asrwt>0</asrwt>
<pdfrwt beam="1">  1       21 0.36529377E-02 0.12409369E+03</pdfrwt>
<pdfrwt beam="2">  1       21 0.24944248E-01 0.12409369E+03</pdfrwt>
<totfact> 0.68033377E+06</totfact>
</mgrwt>
</event>
<event>
 5    0  0.1567157E+000  0.1249771E+03  0.7546771E-02  0.1235105E+00
         21   -1    0    0  503  502  0.00000000000E+00  0.00000000000E+00  0.67381474476E+02  0.67381474476E+02  0.00000000000E+00 0.  1.
         21   -1    0    0  502  503 -0.00000000000E+00 -0.00000000000E+00 -0.57950916493E+02  0.57950916493E+02  0.00000000000E+00 0.  1.
         25    2    1    2    0    0  0.00000000000E+00  0.00000000000E+00  0.94305579831E+01  0.12533239097E+03  0.12497708911E+03 0.  0.
          4    1    3    3  501    0 -0.54385178266E+02  0.15701931526E+02  0.31212306759E+02  0.64659947896E+02  0.15500000000E+01 0.  1.
         -4    1    3    3    0  501  0.54385178266E+02 -0.15701931526E+02 -0.21781748776E+02  0.60672443073E+02  0.15500000000E+01 0.  1.
<mgrwt>
<rscale>  2 0.12497709E+03</rscale>
<asrwt>0</asrwt>
<pdfrwt beam="1">  1       21 0.10366381E-01 0.12497709E+03</pdfrwt>
<pdfrwt beam="2">  1       21 0.89155256E-02 0.12497709E+03</pdfrwt>
<totfact> 0.74042057E+06</totfact>
</mgrwt>
</event>
<event>
 5    0  0.1598091E+000  0.1249997E+03  0.7546771E-02  0.1235070E+00
         21   -1    0    0  503  502  0.00000000000E+00  0.00000000000E+00  0.66190655178E+02  0.66190655178E+02  0.00000000000E+00 0. -1.
         21   -1    0    0  502  503 -0.00000000000E+00 -0.00000000000E+00 -0.59014809791E+02  0.59014809791E+02  0.00000000000E+00 0. -1.
         25    2    1    2    0    0  0.00000000000E+00  0.00000000000E+00  0.71758453871E+01  0.12520546497E+03  0.12499966280E+03 0.  0.
          4    1    3    3  501    0  0.39923113016E+02 -0.39812266153E+02 -0.23381394400E+02  0.61057051953E+02  0.15500000000E+01 0. -1.
         -4    1    3    3    0  501 -0.39923113016E+02  0.39812266153E+02  0.30557239787E+02  0.64148413016E+02  0.15500000000E+01 0. -1.
<mgrwt>
<rscale>  2 0.12499966E+03</rscale>
<asrwt>0</asrwt>
<pdfrwt beam="1">  1       21 0.10183178E-01 0.12499966E+03</pdfrwt>
<pdfrwt beam="2">  1       21 0.90792015E-02 0.12499966E+03</pdfrwt>
<totfact> 0.74016472E+06</totfact>
</mgrwt>
</event>
<event>
 5    0  0.1535021E+000  0.1249720E+03  0.7546771E-02  0.1235113E+00
         21   -1    0    0  503  502  0.00000000000E+00  0.00000000000E+00  0.20470762669E+03  0.20470762669E+03  0.00000000000E+00 0. -1.
         21   -1    0    0  502  503 -0.00000000000E+00 -0.00000000000E+00 -0.19073531921E+02  0.19073531921E+02  0.00000000000E+00 0. -1.
         25    2    1    2    0    0  0.00000000000E+00  0.00000000000E+00  0.18563409477E+03  0.22378115861E+03  0.12497195609E+03 0.  0.
          4    1    3    3  501    0 -0.35893332132E+02  0.37703977065E+02  0.15464441161E+03  0.16317848425E+03  0.15500000000E+01 0.  1.
         -4    1    3    3    0  501  0.35893332132E+02 -0.37703977065E+02  0.30989683156E+02  0.60602674365E+02  0.15500000000E+01 0.  1.
<mgrwt>
<rscale>  2 0.12497196E+03</rscale>
<asrwt>0</asrwt>
<pdfrwt beam="1">  1       21 0.31493479E-01 0.12497196E+03</pdfrwt>
<pdfrwt beam="2">  1       21 0.29343897E-02 0.12497196E+03</pdfrwt>
<totfact> 0.62482390E+06</totfact>
</mgrwt>
</event>
<event>
 5    0  0.1557623E+000  0.1249963E+03  0.7546771E-02  0.1235075E+00
         21   -1    0    0  503  502  0.00000000000E+00  0.00000000000E+00  0.14877039797E+03  0.14877039797E+03  0.00000000000E+00 0.  1.
         21   -1    0    0  502  503 -0.00000000000E+00 -0.00000000000E+00 -0.26255344417E+02  0.26255344417E+02  0.00000000000E+00 0.  1.
         25    2    1    2    0    0  0.00000000000E+00  0.00000000000E+00  0.12251505355E+03  0.17502574239E+03  0.12499628855E+03 0.  0.
          4    1    3    3  501    0 -0.57031383105E+02  0.20247261978E+02  0.82999058664E+02  0.10273157507E+03  0.15500000000E+01 0. -1.
         -4    1    3    3    0  501  0.57031383105E+02 -0.20247261978E+02  0.39515994887E+02  0.72294167319E+02  0.15500000000E+01 0. -1.
<mgrwt>
<rscale>  2 0.12499629E+03</rscale>
<asrwt>0</asrwt>
<pdfrwt beam="1">  1       21 0.22887753E-01 0.12499629E+03</pdfrwt>
<pdfrwt beam="2">  1       21 0.40392838E-02 0.12499629E+03</pdfrwt>
<totfact> 0.67733179E+06</totfact>
</mgrwt>
</event>
<event>
 5    0  0.1638428E+000  0.1250021E+03  0.7546771E-02  0.1235066E+00
         21   -1    0    0  503  502  0.00000000000E+00  0.00000000000E+00  0.57170217009E+02  0.57170217009E+02  0.00000000000E+00 0.  1.
         21   -1    0    0  502  503 -0.00000000000E+00 -0.00000000000E+00 -0.68329005518E+02  0.68329005518E+02  0.00000000000E+00 0.  1.
         25    2    1    2    0    0  0.00000000000E+00  0.00000000000E+00 -0.11158788510E+02  0.12549922253E+03  0.12500214516E+03 0.  0.
          4    1    3    3  501    0  0.39491022848E+02  0.46390913252E+02  0.83438405656E+01  0.61511624050E+02  0.15500000000E+01 0. -1.
         -4    1    3    3    0  501 -0.39491022848E+02 -0.46390913252E+02 -0.19502629075E+02  0.63987598476E+02  0.15500000000E+01 0. -1.
<mgrwt>
<rscale>  2 0.12500215E+03</rscale>
<asrwt>0</asrwt>
<pdfrwt beam="1">  1       21 0.87954180E-02 0.12500215E+03</pdfrwt>
<pdfrwt beam="2">  1       21 0.10512155E-01 0.12500215E+03</pdfrwt>
<totfact> 0.73971460E+06</totfact>
</mgrwt>
</event>
<event>
 5    0  0.1572773E+000  0.1249992E+03  0.7546771E-02  0.1235070E+00
         21   -1    0    0  503  502  0.00000000000E+00  0.00000000000E+00  0.10439089122E+03  0.10439089122E+03  0.00000000000E+00 0. -1.
         21   -1    0    0  502  503 -0.00000000000E+00 -0.00000000000E+00 -0.37418995259E+02  0.37418995259E+02  0.00000000000E+00 0. -1.
         25    2    1    2    0    0  0.00000000000E+00  0.00000000000E+00  0.66971895956E+02  0.14180988648E+03  0.12499923621E+03 0.  0.
          4    1    3    3  501    0 -0.30151067963E+02  0.49007760190E+02  0.61111376979E+02  0.83951476189E+02  0.15500000000E+01 0. -1.
         -4    1    3    3    0  501  0.30151067963E+02 -0.49007760190E+02  0.58605189778E+01  0.57858410286E+02  0.15500000000E+01 0. -1.
<mgrwt>
<rscale>  2 0.12499924E+03</rscale>
<asrwt>0</asrwt>
<pdfrwt beam="1">  1       21 0.16060137E-01 0.12499924E+03</pdfrwt>
<pdfrwt beam="2">  1       21 0.57567685E-02 0.12499924E+03</pdfrwt>
<totfact> 0.71805301E+06</totfact>
</mgrwt>
</event>
<event>
 5    0  0.1222151E+000  0.1250017E+03  0.7546771E-02  0.1235067E+00
         21   -1    0    0  503  502  0.00000000000E+00  0.00000000000E+00  0.91173535553E+03  0.91173535553E+03  0.00000000000E+00 0.  1.
         21   -1    0    0  502  503 -0.00000000000E+00 -0.00000000000E+00 -0.42845303484E+01  0.42845303484E+01  0.00000000000E+00 0.  1.
         25    2    1    2    0    0  0.00000000000E+00  0.00000000000E+00  0.90745082518E+03  0.91601988587E+03  0.12500172480E+03 0.  0.
          4    1    3    3  501    0 -0.53346729612E+02  0.19259980046E+02  0.64581768877E+03  0.64830525990E+03  0.15500000000E+01 0.  1.
         -4    1    3    3    0  501  0.53346729612E+02 -0.19259980046E+02  0.26163313641E+03  0.26771462597E+03  0.15500000000E+01 0.  1.
<mgrwt>
<rscale>  2 0.12500172E+03</rscale>
<asrwt>0</asrwt>
<pdfrwt beam="1">  1       21 0.14026682E+00 0.12500172E+03</pdfrwt>
<pdfrwt beam="2">  1       21 0.65915924E-03 0.12500172E+03</pdfrwt>
<totfact> 0.25842636E+06</totfact>
</mgrwt>
</event>
<event>
 5    0  0.1431567E+000  0.1249993E+03  0.7546771E-02  0.1235070E+00
         21   -1    0    0  503  502  0.00000000000E+00  0.00000000000E+00  0.90017529529E+01  0.90017529529E+01  0.00000000000E+00 0. -1.
         21   -1    0    0  502  503 -0.00000000000E+00 -0.00000000000E+00 -0.43393813894E+03  0.43393813894E+03  0.00000000000E+00 0. -1.
         25    2    1    2    0    0  0.00000000000E+00  0.00000000000E+00 -0.42493638599E+03  0.44293989189E+03  0.12499926278E+03 0.  0.
          4    1    3    3  501    0 -0.21773198718E+02  0.58554193785E+02 -0.21624440201E+03  0.22509266912E+03  0.15500000000E+01 0.  1.
         -4    1    3    3    0  501  0.21773198718E+02 -0.58554193785E+02 -0.20869198398E+03  0.21784722277E+03  0.15500000000E+01 0.  1.
<mgrwt>
<rscale>  2 0.12499926E+03</rscale>
<asrwt>0</asrwt>
<pdfrwt beam="1">  1       21 0.13848854E-02 0.12499926E+03</pdfrwt>
<pdfrwt beam="2">  1       21 0.66759698E-01 0.12499926E+03</pdfrwt>
<totfact> 0.45318604E+06</totfact>
</mgrwt>
</event>
<event>
 5    0  0.1477582E+000  0.1249925E+03  0.7546771E-02  0.1235081E+00
         21   -1    0    0  503  502  0.00000000000E+00  0.00000000000E+00  0.51078127703E+02  0.51078127703E+02  0.00000000000E+00 0. -1.
         21   -1    0    0  502  503 -0.00000000000E+00 -0.00000000000E+00 -0.76466818493E+02  0.76466818493E+02  0.00000000000E+00 0. -1.
         25    2    1    2    0    0  0.00000000000E+00  0.00000000000E+00 -0.25388690790E+02  0.12754494620E+03  0.12499251050E+03 0.  0.
          4    1    3    3  501    0  0.20384086263E+02 -0.17048505294E+02  0.45004259825E+02  0.52287172499E+02  0.15500000000E+01 0.  1.
         -4    1    3    3    0  501 -0.20384086263E+02  0.17048505294E+02 -0.70392950615E+02  0.75257773697E+02  0.15500000000E+01 0.  1.
<mgrwt>
<rscale>  2 0.12499251E+03</rscale>
<asrwt>0</asrwt>
<pdfrwt beam="1">  1       21 0.78581735E-02 0.12499251E+03</pdfrwt>
<pdfrwt beam="2">  1       21 0.11764126E-01 0.12499251E+03</pdfrwt>
<totfact> 0.73709218E+06</totfact>
</mgrwt>
</event>
<event>
 5    0  0.1357634E+000  0.1250021E+03  0.7546771E-02  0.1235066E+00
         21   -1    0    0  503  502  0.00000000000E+00  0.00000000000E+00  0.16985111470E+02  0.16985111470E+02  0.00000000000E+00 0. -1.
         21   -1    0    0  502  503 -0.00000000000E+00 -0.00000000000E+00 -0.22998863078E+03  0.22998863078E+03  0.00000000000E+00 0. -1.
         25    2    1    2    0    0  0.00000000000E+00  0.00000000000E+00 -0.21300351931E+03  0.24697374225E+03  0.12500212047E+03 0.  0.
          4    1    3    3  501    0  0.70062658904E+01 -0.24083247461E+02 -0.21956768072E+03  0.22100103956E+03  0.15500000000E+01 0.  1.
         -4    1    3    3    0  501 -0.70062658904E+01  0.24083247461E+02  0.65641614099E+01  0.25972702690E+02  0.15500000000E+01 0.  1.
<mgrwt>
<rscale>  2 0.12500212E+03</rscale>
<asrwt>0</asrwt>
<pdfrwt beam="1">  1       21 0.26130941E-02 0.12500212E+03</pdfrwt>
<pdfrwt beam="2">  1       21 0.35382865E-01 0.12500212E+03</pdfrwt>
<totfact> 0.60161066E+06</totfact>
</mgrwt>
</event>
<event>
 5    0  0.1478753E+000  0.1250047E+03  0.7546771E-02  0.1235062E+00
         21   -1    0    0  503  502  0.00000000000E+00  0.00000000000E+00  0.42240269195E+02  0.42240269195E+02  0.00000000000E+00 0.  1.
         21   -1    0    0  502  503 -0.00000000000E+00 -0.00000000000E+00 -0.92483860240E+02  0.92483860240E+02  0.00000000000E+00 0.  1.
         25    2    1    2    0    0  0.00000000000E+00  0.00000000000E+00 -0.50243591045E+02  0.13472412943E+03  0.12500469036E+03 0.  0.
          4    1    3    3  501    0  0.18662763258E+02 -0.37097836261E+02  0.25194276048E+02  0.48597348006E+02  0.15500000000E+01 0. -1.
         -4    1    3    3    0  501 -0.18662763258E+02  0.37097836261E+02 -0.75437867093E+02  0.86126781429E+02  0.15500000000E+01 0. -1.
<mgrwt>
<rscale>  2 0.12500469E+03</rscale>
<asrwt>0</asrwt>
<pdfrwt beam="1">  1       21 0.64985029E-02 0.12500469E+03</pdfrwt>
<pdfrwt beam="2">  1       21 0.14228286E-01 0.12500469E+03</pdfrwt>
<totfact> 0.72724319E+06</totfact>
</mgrwt>
</event>
<event>
 5    0  0.1222151E+000  0.1250039E+03  0.7546771E-02  0.1235063E+00
         21   -1    0    0  503  502  0.00000000000E+00  0.00000000000E+00  0.21816582776E+01  0.21816582776E+01  0.00000000000E+00 0. -1.
         21   -1    0    0  502  503 -0.00000000000E+00 -0.00000000000E+00 -0.17906065871E+04  0.17906065871E+04  0.00000000000E+00 0. -1.
         25    2    1    2    0    0  0.00000000000E+00  0.00000000000E+00 -0.17884249288E+04  0.17927882454E+04  0.12500386686E+03 0.  0.
          4    1    3    3  501    0 -0.45903571395E+02 -0.70257113747E+01 -0.14937624685E+04  0.14944849324E+04  0.15500000000E+01 0.  1.
         -4    1    3    3    0  501  0.45903571395E+02  0.70257113747E+01 -0.29466246033E+03  0.29830331294E+03  0.15500000000E+01 0.  1.
<mgrwt>
<rscale>  2 0.12500387E+03</rscale>
<asrwt>0</asrwt>
<pdfrwt beam="1">  1       21 0.33563909E-03 0.12500387E+03</pdfrwt>
<pdfrwt beam="2">  1       21 0.27547847E+00 0.12500387E+03</pdfrwt>
<totfact> 0.10152122E+06</totfact>
</mgrwt>
</event>
<event>
 5    0  0.1252775E+000  0.1250008E+03  0.7546771E-02  0.1235068E+00
         21   -1    0    0  503  502  0.00000000000E+00  0.00000000000E+00  0.67693179103E+01  0.67693179103E+01  0.00000000000E+00 0. -1.
         21   -1    0    0  502  503 -0.00000000000E+00 -0.00000000000E+00 -0.57705970961E+03  0.57705970961E+03  0.00000000000E+00 0. -1.
         25    2    1    2    0    0  0.00000000000E+00  0.00000000000E+00 -0.57029039170E+03  0.58382902752E+03  0.12500081004E+03 0.  0.
          4    1    3    3  501    0  0.46649928385E+02 -0.13930834392E+02 -0.10223794937E+03  0.11324877376E+03  0.15500000000E+01 0. -1.
         -4    1    3    3    0  501 -0.46649928385E+02  0.13930834392E+02 -0.46805244232E+03  0.47058025376E+03  0.15500000000E+01 0. -1.
<mgrwt>
<rscale>  2 0.12500081E+03</rscale>
<asrwt>0</asrwt>
<pdfrwt beam="1">  1       21 0.10414336E-02 0.12500081E+03</pdfrwt>
<pdfrwt beam="2">  1       21 0.88778410E-01 0.12500081E+03</pdfrwt>
<totfact> 0.37833545E+06</totfact>
</mgrwt>
</event>
<event>
 5    0  0.1222151E+000  0.1250014E+03  0.7546771E-02  0.1235067E+00
         21   -1    0    0  503  502  0.00000000000E+00  0.00000000000E+00  0.25665727163E+01  0.25665727163E+01  0.00000000000E+00 0. -1.
         21   -1    0    0  502  503 -0.00000000000E+00 -0.00000000000E+00 -0.15220043294E+04  0.15220043294E+04  0.00000000000E+00 0. -1.
         25    2    1    2    0    0  0.00000000000E+00  0.00000000000E+00 -0.15194377567E+04  0.15245709021E+04  0.12500135657E+03 0.  0.
          4    1    3    3  501    0  0.51423952913E+01 -0.55795802454E+02 -0.42253289433E+03  0.42623475350E+03  0.15500000000E+01 0.  1.
         -4    1    3    3    0  501 -0.51423952913E+01  0.55795802454E+02 -0.10969048624E+04  0.10983361486E+04  0.15500000000E+01 0.  1.
<mgrwt>
<rscale>  2 0.12500136E+03</rscale>
<asrwt>0</asrwt>
<pdfrwt beam="1">  1       21 0.39485863E-03 0.12500136E+03</pdfrwt>
<pdfrwt beam="2">  1       21 0.23415375E+00 0.12500136E+03</pdfrwt>
<totfact> 0.13631981E+06</totfact>
</mgrwt>
</event>
<event>
 5    0  0.1546733E+000  0.1250033E+03  0.7546771E-02  0.1235064E+00
         21   -1    0    0  503  502  0.00000000000E+00  0.00000000000E+00  0.22789806375E+02  0.22789806375E+02  0.00000000000E+00 0. -1.
         21   -1    0    0  502  503 -0.00000000000E+00 -0.00000000000E+00 -0.17141247961E+03  0.17141247961E+03  0.00000000000E+00 0. -1.
         25    2    1    2    0    0  0.00000000000E+00  0.00000000000E+00 -0.14862267324E+03  0.19420228599E+03  0.12500331549E+03 0.  0.
          4    1    3    3  501    0  0.40111974367E+02  0.15772668529E+02 -0.40335269163E+01  0.43317656903E+02  0.15500000000E+01 0.  1.
         -4    1    3    3    0  501 -0.40111974367E+02 -0.15772668529E+02 -0.14458914632E+03  0.15088462909E+03  0.15500000000E+01 0.  1.
<mgrwt>
<rscale>  2 0.12500332E+03</rscale>
<asrwt>0</asrwt>
<pdfrwt beam="1">  1       21 0.35061240E-02 0.12500332E+03</pdfrwt>
<pdfrwt beam="2">  1       21 0.26371151E-01 0.12500332E+03</pdfrwt>
<totfact> 0.65552929E+06</totfact>
</mgrwt>
</event>
<event>
 5    0  0.1588940E+000  0.1249896E+03  0.7546771E-02  0.1235085E+00
         21   -1    0    0  503  502  0.00000000000E+00  0.00000000000E+00  0.54400702942E+02  0.54400702942E+02  0.00000000000E+00 0. -1.
         21   -1    0    0  502  503 -0.00000000000E+00 -0.00000000000E+00 -0.71793218970E+02  0.71793218970E+02  0.00000000000E+00 0. -1.
         25    2    1    2    0    0  0.00000000000E+00  0.00000000000E+00 -0.17392516028E+02  0.12619392191E+03  0.12498962482E+03 0.  0.
          4    1    3    3  501    0  0.44830395962E+02  0.17548899971E+02 -0.48897881830E+02  0.68637698386E+02  0.15500000000E+01 0.  1.
         -4    1    3    3    0  501 -0.44830395962E+02 -0.17548899971E+02  0.31505365802E+02  0.57556223526E+02  0.15500000000E+01 0.  1.
<mgrwt>
<rscale>  2 0.12498962E+03</rscale>
<asrwt>0</asrwt>
<pdfrwt beam="1">  1       21 0.83693389E-02 0.12498962E+03</pdfrwt>
<pdfrwt beam="2">  1       21 0.11045111E-01 0.12498962E+03</pdfrwt>
<totfact> 0.73898907E+06</totfact>
</mgrwt>
</event>
<event>
 5    0  0.1488193E+000  0.1249999E+03  0.7546771E-02  0.1235069E+00
         21   -1    0    0  503  502  0.00000000000E+00  0.00000000000E+00  0.25346417815E+03  0.25346417815E+03  0.00000000000E+00 0.  1.
         21   -1    0    0  502  503 -0.00000000000E+00 -0.00000000000E+00 -0.15411427098E+02  0.15411427098E+02  0.00000000000E+00 0.  1.
         25    2    1    2    0    0  0.00000000000E+00  0.00000000000E+00  0.23805275105E+03  0.26887560525E+03  0.12499991526E+03 0.  0.
          4    1    3    3  501    0  0.60245630447E+02 -0.85318842915E+01  0.88491693936E+02  0.10740349823E+03  0.15500000000E+01 0.  1.
         -4    1    3    3    0  501 -0.60245630447E+02  0.85318842915E+01  0.14956105712E+03  0.16147210701E+03  0.15500000000E+01 0.  1.
<mgrwt>
<rscale>  2 0.12499992E+03</rscale>
<asrwt>0</asrwt>
<pdfrwt beam="1">  1       21 0.38994486E-01 0.12499992E+03</pdfrwt>
<pdfrwt beam="2">  1       21 0.23709890E-02 0.12499992E+03</pdfrwt>
<totfact> 0.58145328E+06</totfact>
</mgrwt>
</event>
<event>
 5    0  0.1629863E+000  0.1249990E+03  0.7546771E-02  0.1235071E+00
         21   -1    0    0  503  502  0.00000000000E+00  0.00000000000E+00  0.63144534257E+02  0.63144534257E+02  0.00000000000E+00 0.  1.
         21   -1    0    0  502  503 -0.00000000000E+00 -0.00000000000E+00 -0.61861027791E+02  0.61861027791E+02  0.00000000000E+00 0.  1.
         25    2    1    2    0    0  0.00000000000E+00  0.00000000000E+00  0.12835064661E+01  0.12500556205E+03  0.12499897261E+03 0.  0.
          4    1    3    3  501    0 -0.43701764050E+02  0.44509150272E+02 -0.29465620962E+01  0.62465937656E+02  0.15500000000E+01 0. -1.
         -4    1    3    3    0  501  0.43701764050E+02 -0.44509150272E+02  0.42300685624E+01  0.62539624392E+02  0.15500000000E+01 0. -1.
<mgrwt>
<rscale>  2 0.12499897E+03</rscale>
<asrwt>0</asrwt>
<pdfrwt beam="1">  1       21 0.97145437E-02 0.12499897E+03</pdfrwt>
<pdfrwt beam="2">  1       21 0.95170812E-02 0.12499897E+03</pdfrwt>
<totfact> 0.74044775E+06</totfact>
</mgrwt>
</event>
<event>
 5    0  0.1592204E+000  0.1250025E+03  0.7546771E-02  0.1235065E+00
         21   -1    0    0  503  502  0.00000000000E+00  0.00000000000E+00  0.61446918533E+02  0.61446918533E+02  0.00000000000E+00 0. -1.
         21   -1    0    0  502  503 -0.00000000000E+00 -0.00000000000E+00 -0.63573685304E+02  0.63573685304E+02  0.00000000000E+00 0. -1.
         25    2    1    2    0    0  0.00000000000E+00  0.00000000000E+00 -0.21267667711E+01  0.12502060384E+03  0.12500251296E+03 0.  0.
          4    1    3    3  501    0 -0.78883078768E+01 -0.39414635201E+02  0.46779359793E+02  0.61696433218E+02  0.15500000000E+01 0.  1.
         -4    1    3    3    0  501  0.78883078768E+01  0.39414635201E+02 -0.48906126564E+02  0.63324170619E+02  0.15500000000E+01 0.  1.
<mgrwt>
<rscale>  2 0.12500251E+03</rscale>
<asrwt>0</asrwt>
<pdfrwt beam="1">  1       21 0.94533720E-02 0.12500251E+03</pdfrwt>
<pdfrwt beam="2">  1       21 0.97805670E-02 0.12500251E+03</pdfrwt>
<totfact> 0.74036042E+06</totfact>
</mgrwt>
</event>
<event>
 5    0  0.1566210E+000  0.1250212E+03  0.7546771E-02  0.1235036E+00
         21   -1    0    0  503  502  0.00000000000E+00  0.00000000000E+00  0.25621323261E+02  0.25621323261E+02  0.00000000000E+00 0. -1.
         21   -1    0    0  502  503 -0.00000000000E+00 -0.00000000000E+00 -0.15251273019E+03  0.15251273019E+03  0.00000000000E+00 0. -1.
         25    2    1    2    0    0  0.00000000000E+00  0.00000000000E+00 -0.12689140693E+03  0.17813405345E+03  0.12502124558E+03 0.  0.
          4    1    3    3  501    0  0.46648845905E+02  0.89362360060E+01 -0.55827814467E+01  0.47849149281E+02  0.15500000000E+01 0.  1.
         -4    1    3    3    0  501 -0.46648845905E+02 -0.89362360060E+01 -0.12130862548E+03  0.13028490417E+03  0.15500000000E+01 0.  1.
<mgrwt>
<rscale>  2 0.12502125E+03</rscale>
<asrwt>0</asrwt>
<pdfrwt beam="1">  1       21 0.39417419E-02 0.12502125E+03</pdfrwt>
<pdfrwt beam="2">  1       21 0.23463498E-01 0.12502125E+03</pdfrwt>
<totfact> 0.67329943E+06</totfact>
</mgrwt>
</event>
<event>
 5    0  0.1564247E+000  0.1249996E+03  0.7546771E-02  0.1235070E+00
         21   -1    0    0  503  502  0.00000000000E+00  0.00000000000E+00  0.20981627224E+02  0.20981627224E+02  0.00000000000E+00 0. -1.
         21   -1    0    0  502  503 -0.00000000000E+00 -0.00000000000E+00 -0.18617347448E+03  0.18617347448E+03  0.00000000000E+00 0. -1.
         25    2    1    2    0    0  0.00000000000E+00  0.00000000000E+00 -0.16519184726E+03  0.20715510170E+03  0.12499955905E+03 0.  0.
          4    1    3    3  501    0 -0.46424032932E+01 -0.60376930382E+02 -0.10810322227E+03  0.12391785503E+03  0.15500000000E+01 0. -1.
         -4    1    3    3    0  501  0.46424032932E+01  0.60376930382E+02 -0.57088624990E+02  0.83237246674E+02  0.15500000000E+01 0. -1.
<mgrwt>
<rscale>  2 0.12499956E+03</rscale>
<asrwt>0</asrwt>
<pdfrwt beam="1">  1       21 0.32279427E-02 0.12499956E+03</pdfrwt>
<pdfrwt beam="2">  1       21 0.28642073E-01 0.12499956E+03</pdfrwt>
<totfact> 0.64160816E+06</totfact>
</mgrwt>
</event>
<event>
 5    0  0.1504350E+000  0.1250061E+03  0.7546771E-02  0.1235060E+00
         21   -1    0    0  503  502  0.00000000000E+00  0.00000000000E+00  0.18620188757E+02  0.18620188757E+02  0.00000000000E+00 0.  1.
         21   -1    0    0  502  503 -0.00000000000E+00 -0.00000000000E+00 -0.20980617647E+03  0.20980617647E+03  0.00000000000E+00 0.  1.
         25    2    1    2    0    0  0.00000000000E+00  0.00000000000E+00 -0.19118598771E+03  0.22842636523E+03  0.12500608958E+03 0.  0.
          4    1    3    3  501    0  0.28603077465E+02  0.42886439727E+02 -0.16011700466E+03  0.16821783626E+03  0.15500000000E+01 0.  1.
         -4    1    3    3    0  501 -0.28603077465E+02 -0.42886439727E+02 -0.31068983050E+02  0.60208528970E+02  0.15500000000E+01 0.  1.
<mgrwt>
<rscale>  2 0.12500609E+03</rscale>
<asrwt>0</asrwt>
<pdfrwt beam="1">  1       21 0.28646445E-02 0.12500609E+03</pdfrwt>
<pdfrwt beam="2">  1       21 0.32277872E-01 0.12500609E+03</pdfrwt>
<totfact> 0.61961407E+06</totfact>
</mgrwt>
</event>
<event>
 5    0  0.1479549E+000  0.1249970E+03  0.7546771E-02  0.1235074E+00
         21   -1    0    0  503  502  0.00000000000E+00  0.00000000000E+00  0.12042184836E+03  0.12042184836E+03  0.00000000000E+00 0.  1.
         21   -1    0    0  502  503 -0.00000000000E+00 -0.00000000000E+00 -0.32436502739E+02  0.32436502739E+02  0.00000000000E+00 0.  1.
         25    2    1    2    0    0  0.00000000000E+00  0.00000000000E+00  0.87985345623E+02  0.15285835110E+03  0.12499701779E+03 0.  0.
          4    1    3    3  501    0  0.21711184299E+02  0.16841640392E+02  0.11261277333E+03  0.11592694075E+03  0.15500000000E+01 0.  1.
         -4    1    3    3    0  501 -0.21711184299E+02 -0.16841640392E+02 -0.24627427709E+02  0.36931410349E+02  0.15500000000E+01 0.  1.
<mgrwt>
<rscale>  2 0.12499702E+03</rscale>
<asrwt>0</asrwt>
<pdfrwt beam="1">  1       21 0.18526438E-01 0.12499702E+03</pdfrwt>
<pdfrwt beam="2">  1       21 0.49902313E-02 0.12499702E+03</pdfrwt>
<totfact> 0.70407303E+06</totfact>
</mgrwt>
</event>
<event>
 5    0  0.1601212E+000  0.1250038E+03  0.7546771E-02  0.1235063E+00
         21   -1    0    0  503  502  0.00000000000E+00  0.00000000000E+00  0.10398078499E+03  0.10398078499E+03  0.00000000000E+00 0.  1.
         21   -1    0    0  502  503 -0.00000000000E+00 -0.00000000000E+00 -0.37569292458E+02  0.37569292458E+02  0.00000000000E+00 0.  1.
         25    2    1    2    0    0  0.00000000000E+00  0.00000000000E+00  0.66411492532E+02  0.14155007745E+03  0.12500375229E+03 0.  0.
          4    1    3    3  501    0 -0.18494590389E+01  0.59961817595E+02  0.13421970827E+02  0.61493022928E+02  0.15500000000E+01 0.  1.
         -4    1    3    3    0  501  0.18494590389E+01 -0.59961817595E+02  0.52989521705E+02  0.80057054521E+02  0.15500000000E+01 0.  1.
<mgrwt>
<rscale>  2 0.12500375E+03</rscale>
<asrwt>0</asrwt>
<pdfrwt beam="1">  1       21 0.15997044E-01 0.12500375E+03</pdfrwt>
<pdfrwt beam="2">  1       21 0.57798912E-02 0.12500375E+03</pdfrwt>
<totfact> 0.71830724E+06</totfact>
</mgrwt>
</event>
<event>
 5    0  0.1624119E+000  0.1250029E+03  0.7546771E-02  0.1235065E+00
         21   -1    0    0  503  502  0.00000000000E+00  0.00000000000E+00  0.48446046077E+02  0.48446046077E+02  0.00000000000E+00 0. -1.
         21   -1    0    0  502  503 -0.00000000000E+00 -0.00000000000E+00 -0.80634696626E+02  0.80634696626E+02  0.00000000000E+00 0. -1.
         25    2    1    2    0    0  0.00000000000E+00  0.00000000000E+00 -0.32188650549E+02  0.12908074270E+03  0.12500291562E+03 0.  0.
          4    1    3    3  501    0 -0.19369415507E+02 -0.53211259687E+02  0.11175834040E+02  0.57740056988E+02  0.15500000000E+01 0.  1.
         -4    1    3    3    0  501  0.19369415507E+02  0.53211259687E+02 -0.43364484589E+02  0.71340685714E+02  0.15500000000E+01 0.  1.
<mgrwt>
<rscale>  2 0.12500292E+03</rscale>
<asrwt>0</asrwt>
<pdfrwt beam="1">  1       21 0.74532379E-02 0.12500292E+03</pdfrwt>
<pdfrwt beam="2">  1       21 0.12405338E-01 0.12500292E+03</pdfrwt>
<totfact> 0.73482569E+06</totfact>
</mgrwt>
</event>
<event>
 5    0  0.1467200E+000  0.1250007E+03  0.7546771E-02  0.1235068E+00
         21   -1    0    0  503  502  0.00000000000E+00  0.00000000000E+00  0.22037961699E+03  0.22037961699E+03  0.00000000000E+00 0.  1.
         21   -1    0    0  502  503 -0.00000000000E+00 -0.00000000000E+00 -0.17725283582E+02  0.17725283582E+02  0.00000000000E+00 0.  1.
         25    2    1    2    0    0  0.00000000000E+00  0.00000000000E+00  0.20265433341E+03  0.23810490057E+03  0.12500065931E+03 0.  0.
          4    1    3    3  501    0  0.28201681518E+02 -0.12251041980E+02 -0.22798836179E+01  0.30871074476E+02  0.15500000000E+01 0. -1.
         -4    1    3    3    0  501 -0.28201681518E+02  0.12251041980E+02  0.20493421703E+03  0.20723382610E+03  0.15500000000E+01 0. -1.
<mgrwt>
<rscale>  2 0.12500066E+03</rscale>
<asrwt>0</asrwt>
<pdfrwt beam="1">  1       21 0.33904555E-01 0.12500066E+03</pdfrwt>
<pdfrwt beam="2">  1       21 0.27269669E-02 0.12500066E+03</pdfrwt>
<totfact> 0.61015517E+06</totfact>
</mgrwt>
</event>
<event>
 5    0  0.1565627E+000  0.1250039E+03  0.7546771E-02  0.1235063E+00
         21   -1    0    0  503  502  0.00000000000E+00  0.00000000000E+00  0.84267489678E+02  0.84267489678E+02  0.00000000000E+00 0.  1.
         21   -1    0    0  502  503 -0.00000000000E+00 -0.00000000000E+00 -0.46358285354E+02  0.46358285354E+02  0.00000000000E+00 0.  1.
         25    2    1    2    0    0  0.00000000000E+00  0.00000000000E+00  0.37909204323E+02  0.13062577503E+03  0.12500394126E+03 0.  0.
          4    1    3    3  501    0  0.38677961725E+02 -0.36810463080E+02  0.52865536601E+02  0.75154257201E+02  0.15500000000E+01 0.  1.
         -4    1    3    3    0  501 -0.38677961725E+02  0.36810463080E+02 -0.14956332277E+02  0.55471517831E+02  0.15500000000E+01 0.  1.
<mgrwt>
<rscale>  2 0.12500394E+03</rscale>
<asrwt>0</asrwt>
<pdfrwt beam="1">  1       21 0.12964229E-01 0.12500394E+03</pdfrwt>
<pdfrwt beam="2">  1       21 0.71320439E-02 0.12500394E+03</pdfrwt>
<totfact> 0.73273779E+06</totfact>
</mgrwt>
</event>
<event>
 5    0  0.1471633E+000  0.1249941E+03  0.7546771E-02  0.1235079E+00
         21   -1    0    0  503  502  0.00000000000E+00  0.00000000000E+00  0.17642836845E+02  0.17642836845E+02  0.00000000000E+00 0.  1.
         21   -1    0    0  502  503 -0.00000000000E+00 -0.00000000000E+00 -0.22138610660E+03  0.22138610660E+03  0.00000000000E+00 0.  1.
         25    2    1    2    0    0  0.00000000000E+00  0.00000000000E+00 -0.20374326976E+03  0.23902894345E+03  0.12499406320E+03 0.  0.
          4    1    3    3  501    0  0.37816058254E+02 -0.46290035403E+02 -0.67098124544E+02  0.89874259144E+02  0.15500000000E+01 0.  1.
         -4    1    3    3    0  501 -0.37816058254E+02  0.46290035403E+02 -0.13664514521E+03  0.14915468430E+03  0.15500000000E+01 0.  1.
<mgrwt>
<rscale>  2 0.12499406E+03</rscale>
<asrwt>0</asrwt>
<pdfrwt beam="1">  1       21 0.27142826E-02 0.12499406E+03</pdfrwt>
<pdfrwt beam="2">  1       21 0.34059401E-01 0.12499406E+03</pdfrwt>
<totfact> 0.60935882E+06</totfact>
</mgrwt>
</event>
<event>
 5    0  0.1527726E+000  0.1249956E+03  0.7546771E-02  0.1235076E+00
         21   -1    0    0  503  502  0.00000000000E+00  0.00000000000E+00  0.28033191907E+02  0.28033191907E+02  0.00000000000E+00 0.  1.
         21   -1    0    0  502  503 -0.00000000000E+00 -0.00000000000E+00 -0.13933393955E+03  0.13933393955E+03  0.00000000000E+00 0.  1.
         25    2    1    2    0    0  0.00000000000E+00  0.00000000000E+00 -0.11130074765E+03  0.16736713146E+03  0.12499560099E+03 0.  0.
          4    1    3    3  501    0 -0.40335485728E+02  0.26975219776E+02 -0.29522250171E+01  0.48638791344E+02  0.15500000000E+01 0.  1.
         -4    1    3    3    0  501  0.40335485728E+02 -0.26975219776E+02 -0.10834852263E+03  0.11872834012E+03  0.15500000000E+01 0.  1.
<mgrwt>
<rscale>  2 0.12499560E+03</rscale>
<asrwt>0</asrwt>
<pdfrwt beam="1">  1       21 0.43127987E-02 0.12499560E+03</pdfrwt>
<pdfrwt beam="2">  1       21 0.21435991E-01 0.12499560E+03</pdfrwt>
<totfact> 0.68637999E+06</totfact>
</mgrwt>
</event>
<event>
 5    0  0.1463834E+000  0.1250109E+03  0.7546771E-02  0.1235052E+00
         21   -1    0    0  503  502  0.00000000000E+00  0.00000000000E+00  0.30504585839E+03  0.30504585839E+03  0.00000000000E+00 0.  1.
         21   -1    0    0  502  503 -0.00000000000E+00 -0.00000000000E+00 -0.12807675044E+02  0.12807675044E+02  0.00000000000E+00 0.  1.
         25    2    1    2    0    0  0.00000000000E+00  0.00000000000E+00  0.29223818334E+03  0.31785353343E+03  0.12501085117E+03 0.  0.
          4    1    3    3  501    0  0.26649676084E+02  0.47356536461E+02  0.67681443715E+02  0.86810293769E+02  0.15500000000E+01 0.  1.
         -4    1    3    3    0  501 -0.26649676084E+02 -0.47356536461E+02  0.22455673963E+03  0.23104323966E+03  0.15500000000E+01 0.  1.
<mgrwt>
<rscale>  2 0.12501085E+03</rscale>
<asrwt>0</asrwt>
<pdfrwt beam="1">  1       21 0.46930127E-01 0.12501085E+03</pdfrwt>
<pdfrwt beam="2">  1       21 0.19704118E-02 0.12501085E+03</pdfrwt>
<totfact> 0.53989179E+06</totfact>
</mgrwt>
</event>
<event>
 5    0  0.1543696E+000  0.1250029E+03  0.7546771E-02  0.1235065E+00
         21   -1    0    0  503  502  0.00000000000E+00  0.00000000000E+00  0.74269457019E+02  0.74269457019E+02  0.00000000000E+00 0. -1.
         21   -1    0    0  502  503 -0.00000000000E+00 -0.00000000000E+00 -0.52598094282E+02  0.52598094282E+02  0.00000000000E+00 0. -1.
         25    2    1    2    0    0  0.00000000000E+00  0.00000000000E+00  0.21671362738E+02  0.12686755130E+03  0.12500291041E+03 0.  0.
          4    1    3    3  501    0  0.49656762815E+02 -0.13023835925E+02 -0.25313241001E+02  0.57258860148E+02  0.15500000000E+01 0. -1.
         -4    1    3    3    0  501 -0.49656762815E+02  0.13023835925E+02  0.46984603739E+02  0.69608691153E+02  0.15500000000E+01 0. -1.
<mgrwt>
<rscale>  2 0.12500291E+03</rscale>
<asrwt>0</asrwt>
<pdfrwt beam="1">  1       21 0.11426070E-01 0.12500291E+03</pdfrwt>
<pdfrwt beam="2">  1       21 0.80920144E-02 0.12500291E+03</pdfrwt>
<totfact> 0.73781696E+06</totfact>
</mgrwt>
</event>
<event>
 5    0  0.1473030E+000  0.1249987E+03  0.7546771E-02  0.1235071E+00
         21   -1    0    0  503  502  0.00000000000E+00  0.00000000000E+00  0.17601848937E+03  0.17601848937E+03  0.00000000000E+00 0.  1.
         21   -1    0    0  502  503 -0.00000000000E+00 -0.00000000000E+00 -0.22191808628E+02  0.22191808628E+02  0.00000000000E+00 0.  1.
         25    2    1    2    0    0  0.00000000000E+00  0.00000000000E+00  0.15382668075E+03  0.19821029800E+03  0.12499869809E+03 0.  0.
          4    1    3    3  501    0  0.39765741092E+02 -0.11722691145E+02  0.15103574064E+03  0.15662992404E+03  0.15500000000E+01 0. -1.
         -4    1    3    3    0  501 -0.39765741092E+02  0.11722691145E+02  0.27909401021E+01  0.41580373963E+02  0.15500000000E+01 0. -1.
<mgrwt>
<rscale>  2 0.12499870E+03</rscale>
<asrwt>0</asrwt>
<pdfrwt beam="1">  1       21 0.27079767E-01 0.12499870E+03</pdfrwt>
<pdfrwt beam="2">  1       21 0.34141245E-02 0.12499870E+03</pdfrwt>
<totfact> 0.65123514E+06</totfact>
</mgrwt>
</event>
<event>
 5    0  0.1659739E+000  0.1249995E+03  0.7546771E-02  0.1235070E+00
         21   -1    0    0  503  502  0.00000000000E+00  0.00000000000E+00  0.60937166113E+02  0.60937166113E+02  0.00000000000E+00 0. -1.
         21   -1    0    0  502  503 -0.00000000000E+00 -0.00000000000E+00 -0.64102397239E+02  0.64102397239E+02  0.00000000000E+00 0. -1.
         25    2    1    2    0    0  0.00000000000E+00  0.00000000000E+00 -0.31652311262E+01  0.12503956335E+03  0.12499949486E+03 0.  0.
          4    1    3    3  501    0 -0.49053434712E+02 -0.35262332906E+02 -0.17529631193E+02  0.62923461831E+02  0.15500000000E+01 0. -1.
         -4    1    3    3    0  501  0.49053434712E+02  0.35262332906E+02  0.14364400066E+02  0.62116101522E+02  0.15500000000E+01 0. -1.
<mgrwt>
<rscale>  2 0.12499949E+03</rscale>
<asrwt>0</asrwt>
<pdfrwt beam="1">  1       21 0.93749486E-02 0.12499949E+03</pdfrwt>
<pdfrwt beam="2">  1       21 0.98619073E-02 0.12499949E+03</pdfrwt>
<totfact> 0.74039194E+06</totfact>
</mgrwt>
</event>
<event>
 5    0  0.1276838E+000  0.1250016E+03  0.7546771E-02  0.1235067E+00
         21   -1    0    0  503  502  0.00000000000E+00  0.00000000000E+00  0.12036360574E+02  0.12036360574E+02  0.00000000000E+00 0. -1.
         21   -1    0    0  502  503 -0.00000000000E+00 -0.00000000000E+00 -0.32454589104E+03  0.32454589104E+03  0.00000000000E+00 0. -1.
         25    2    1    2    0    0  0.00000000000E+00  0.00000000000E+00 -0.31250953046E+03  0.33658225161E+03  0.12500162187E+03 0.  0.
          4    1    3    3  501    0 -0.24404060073E+02 -0.81359802373E+01 -0.29360283075E+01  0.25937908255E+02  0.15500000000E+01 0. -1.
         -4    1    3    3    0  501  0.24404060073E+02  0.81359802373E+01 -0.30957350215E+03  0.31064434336E+03  0.15500000000E+01 0. -1.
<mgrwt>
<rscale>  2 0.12500162E+03</rscale>
<asrwt>0</asrwt>
<pdfrwt beam="1">  1       21 0.18517476E-02 0.12500162E+03</pdfrwt>
<pdfrwt beam="2">  1       21 0.49930142E-01 0.12500162E+03</pdfrwt>
<totfact> 0.52542761E+06</totfact>
</mgrwt>
</event>
<event>
 5    0  0.1251300E+000  0.1249966E+03  0.7546771E-02  0.1235075E+00
         21   -1    0    0  503  502  0.00000000000E+00  0.00000000000E+00  0.47492123595E+01  0.47492123595E+01  0.00000000000E+00 0. -1.
         21   -1    0    0  502  503 -0.00000000000E+00 -0.00000000000E+00 -0.82245957360E+03  0.82245957360E+03  0.00000000000E+00 0. -1.
         25    2    1    2    0    0  0.00000000000E+00  0.00000000000E+00 -0.81771036124E+03  0.82720878596E+03  0.12499656271E+03 0.  0.
          4    1    3    3  501    0 -0.29864877025E+02 -0.20406514077E+02 -0.74599536089E+03  0.74687336119E+03  0.15500000000E+01 0.  1.
         -4    1    3    3    0  501  0.29864877025E+02  0.20406514077E+02 -0.71715000350E+02  0.80335424762E+02  0.15500000000E+01 0.  1.
<mgrwt>
<rscale>  2 0.12499656E+03</rscale>
<asrwt>0</asrwt>
<pdfrwt beam="1">  1       21 0.73064814E-03 0.12499656E+03</pdfrwt>
<pdfrwt beam="2">  1       21 0.12653223E+00 0.12499656E+03</pdfrwt>
<totfact> 0.28483378E+06</totfact>
</mgrwt>
</event>
<event>
 5    0  0.1510969E+000  0.1249987E+03  0.7546771E-02  0.1235071E+00
         21   -1    0    0  503  502  0.00000000000E+00  0.00000000000E+00  0.13531238417E+03  0.13531238417E+03  0.00000000000E+00 0.  1.
         21   -1    0    0  502  503 -0.00000000000E+00 -0.00000000000E+00 -0.28867771848E+02  0.28867771848E+02  0.00000000000E+00 0.  1.
         25    2    1    2    0    0  0.00000000000E+00  0.00000000000E+00  0.10644461232E+03  0.16418015601E+03  0.12499867254E+03 0.  0.
          4    1    3    3  501    0 -0.32547311349E+02 -0.48933344499E+02  0.81083810375E+02  0.10015381413E+03  0.15500000000E+01 0. -1.
         -4    1    3    3    0  501  0.32547311349E+02  0.48933344499E+02  0.25360801942E+02  0.64026341884E+02  0.15500000000E+01 0. -1.
<mgrwt>
<rscale>  2 0.12499867E+03</rscale>
<asrwt>0</asrwt>
<pdfrwt beam="1">  1       21 0.20817290E-01 0.12499867E+03</pdfrwt>
<pdfrwt beam="2">  1       21 0.44411957E-02 0.12499867E+03</pdfrwt>
<totfact> 0.69014628E+06</totfact>
</mgrwt>
</event>
<event>
 5    0  0.1222151E+000  0.1250009E+03  0.7546771E-02  0.1235068E+00
         21   -1    0    0  503  502  0.00000000000E+00  0.00000000000E+00  0.57856822056E+01  0.57856822056E+01  0.00000000000E+00 0.  1.
         21   -1    0    0  502  503 -0.00000000000E+00 -0.00000000000E+00 -0.67516801928E+03  0.67516801928E+03  0.00000000000E+00 0.  1.
         25    2    1    2    0    0  0.00000000000E+00  0.00000000000E+00 -0.66938233707E+03  0.68095370148E+03  0.12500092152E+03 0.  0.
          4    1    3    3  501    0  0.30575034863E+02 -0.74640583374E+01 -0.62872781411E+03  0.62951696693E+03  0.15500000000E+01 0.  1.
         -4    1    3    3    0  501 -0.30575034863E+02  0.74640583374E+01 -0.40654522964E+02  0.51436734550E+02  0.15500000000E+01 0.  1.
<mgrwt>
<rscale>  2 0.12500092E+03</rscale>
<asrwt>0</asrwt>
<pdfrwt beam="1">  1       21 0.89010498E-03 0.12500092E+03</pdfrwt>
<pdfrwt beam="2">  1       21 0.10387200E+00 0.12500092E+03</pdfrwt>
<totfact> 0.33656690E+06</totfact>
</mgrwt>
</event>
<event>
 5    0  0.1471573E+000  0.1249967E+03  0.7546771E-02  0.1235074E+00
         21   -1    0    0  503  502  0.00000000000E+00  0.00000000000E+00  0.16482362790E+02  0.16482362790E+02  0.00000000000E+00 0.  1.
         21   -1    0    0  502  503 -0.00000000000E+00 -0.00000000000E+00 -0.23698331150E+03  0.23698331150E+03  0.00000000000E+00 0.  1.
         25    2    1    2    0    0  0.00000000000E+00  0.00000000000E+00 -0.22050094871E+03  0.25346567429E+03  0.12499671860E+03 0.  0.
          4    1    3    3  501    0 -0.16235066608E+02 -0.50573466712E+02 -0.17696375915E+03  0.18476966059E+03  0.15500000000E+01 0.  1.
         -4    1    3    3    0  501  0.16235066608E+02  0.50573466712E+02 -0.43537189557E+02  0.68696013695E+02  0.15500000000E+01 0.  1.
<mgrwt>
<rscale>  2 0.12499672E+03</rscale>
<asrwt>0</asrwt>
<pdfrwt beam="1">  1       21 0.25357485E-02 0.12499672E+03</pdfrwt>
<pdfrwt beam="2">  1       21 0.36458966E-01 0.12499672E+03</pdfrwt>
<totfact> 0.59558355E+06</totfact>
</mgrwt>
</event>
<event>
 5    0  0.1368287E+000  0.1250083E+03  0.7546771E-02  0.1235056E+00
         21   -1    0    0  503  502  0.00000000000E+00  0.00000000000E+00  0.79283819991E+01  0.79283819991E+01  0.00000000000E+00 0. -1.
         21   -1    0    0  502  503 -0.00000000000E+00 -0.00000000000E+00 -0.49275754262E+03  0.49275754262E+03  0.00000000000E+00 0. -1.
         25    2    1    2    0    0  0.00000000000E+00  0.00000000000E+00 -0.48482916062E+03  0.50068592462E+03  0.12500832022E+03 0.  0.
          4    1    3    3  501    0  0.78587076159E+01 -0.61093656364E+02 -0.20037437441E+03  0.20963417316E+03  0.15500000000E+01 0. -1.
         -4    1    3    3    0  501 -0.78587076159E+01  0.61093656364E+02 -0.28445478621E+03  0.29105175146E+03  0.15500000000E+01 0. -1.
<mgrwt>
<rscale>  2 0.12500832E+03</rscale>
<asrwt>0</asrwt>
<pdfrwt beam="1">  1       21 0.12197512E-02 0.12500832E+03</pdfrwt>
<pdfrwt beam="2">  1       21 0.75808846E-01 0.12500832E+03</pdfrwt>
<totfact> 0.41998197E+06</totfact>
</mgrwt>
</event>
<event>
 5    0  0.1222151E+000  0.1249999E+03  0.7546771E-02  0.1235070E+00
         21   -1    0    0  503  502  0.00000000000E+00  0.00000000000E+00  0.11726480481E+04  0.11726480481E+04  0.00000000000E+00 0. -1.
         21   -1    0    0  502  503 -0.00000000000E+00 -0.00000000000E+00 -0.33311281628E+01  0.33311281628E+01  0.00000000000E+00 0. -1.
         25    2    1    2    0    0  0.00000000000E+00  0.00000000000E+00  0.11693169199E+04  0.11759791762E+04  0.12499985501E+03 0.  0.
          4    1    3    3  501    0  0.44890690033E+02  0.38685907491E+02  0.39837721555E+03  0.40276367992E+03  0.15500000000E+01 0.  1.
         -4    1    3    3    0  501 -0.44890690033E+02 -0.38685907491E+02  0.77093970433E+03  0.77321549629E+03  0.15500000000E+01 0.  1.
<mgrwt>
<rscale>  2 0.12499986E+03</rscale>
<asrwt>0</asrwt>
<pdfrwt beam="1">  1       21 0.18040706E+00 0.12499986E+03</pdfrwt>
<pdfrwt beam="2">  1       21 0.51248219E-03 0.12499986E+03</pdfrwt>
<totfact> 0.19628862E+06</totfact>
</mgrwt>
</event>
<event>
 5    0  0.1601725E+000  0.1249882E+03  0.7546771E-02  0.1235088E+00
         21   -1    0    0  503  502  0.00000000000E+00  0.00000000000E+00  0.32691257920E+02  0.32691257920E+02  0.00000000000E+00 0. -1.
         21   -1    0    0  502  503 -0.00000000000E+00 -0.00000000000E+00 -0.11946649983E+03  0.11946649983E+03  0.00000000000E+00 0. -1.
         25    2    1    2    0    0  0.00000000000E+00  0.00000000000E+00 -0.86775241911E+02  0.15215775775E+03  0.12498816198E+03 0.  0.
          4    1    3    3  501    0 -0.53358554983E+01  0.62018129777E+02 -0.49873841730E+02  0.79777956629E+02  0.15500000000E+01 0. -1.
         -4    1    3    3    0  501  0.53358554983E+01 -0.62018129777E+02 -0.36901400181E+02  0.72379801121E+02  0.15500000000E+01 0. -1.
<mgrwt>
<rscale>  2 0.12498816E+03</rscale>
<asrwt>0</asrwt>
<pdfrwt beam="1">  1       21 0.50294243E-02 0.12498816E+03</pdfrwt>
<pdfrwt beam="2">  1       21 0.18379462E-01 0.12498816E+03</pdfrwt>
<totfact> 0.70510429E+06</totfact>
</mgrwt>
</event>
<event>
 5    0  0.1592800E+000  0.1249987E+03  0.7546771E-02  0.1235071E+00
         21   -1    0    0  503  502  0.00000000000E+00  0.00000000000E+00  0.33324610424E+02  0.33324610424E+02  0.00000000000E+00 0.  1.
         21   -1    0    0  502  503 -0.00000000000E+00 -0.00000000000E+00 -0.11721565849E+03  0.11721565849E+03  0.00000000000E+00 0.  1.
         25    2    1    2    0    0  0.00000000000E+00  0.00000000000E+00 -0.83891048062E+02  0.15054026891E+03  0.12499865847E+03 0.  0.
          4    1    3    3  501    0 -0.56536647837E+02  0.21934121887E+02 -0.23829770132E+02  0.65174831769E+02  0.15500000000E+01 0. -1.
         -4    1    3    3    0  501  0.56536647837E+02 -0.21934121887E+02 -0.60061277930E+02  0.85365437140E+02  0.15500000000E+01 0. -1.
<mgrwt>
<rscale>  2 0.12499866E+03</rscale>
<asrwt>0</asrwt>
<pdfrwt beam="1">  1       21 0.51268629E-02 0.12499866E+03</pdfrwt>
<pdfrwt beam="2">  1       21 0.18033179E-01 0.12499866E+03</pdfrwt>
<totfact> 0.70693813E+06</totfact>
</mgrwt>
</event>
<event>
 5    0  0.1494593E+000  0.1250052E+03  0.7546771E-02  0.1235061E+00
         21   -1    0    0  503  502  0.00000000000E+00  0.00000000000E+00  0.14366771455E+03  0.14366771455E+03  0.00000000000E+00 0.  1.
         21   -1    0    0  502  503 -0.00000000000E+00 -0.00000000000E+00 -0.27191737228E+02  0.27191737228E+02  0.00000000000E+00 0.  1.
         25    2    1    2    0    0  0.00000000000E+00  0.00000000000E+00  0.11647597732E+03  0.17085945177E+03  0.12500519577E+03 0.  0.
          4    1    3    3  501    0  0.91404463573E+01 -0.46768416790E+02  0.11347742005E+03  0.12308679836E+03  0.15500000000E+01 0. -1.
         -4    1    3    3    0  501 -0.91404463573E+01  0.46768416790E+02  0.29985572667E+01  0.47772653415E+02  0.15500000000E+01 0. -1.
<mgrwt>
<rscale>  2 0.12500520E+03</rscale>
<asrwt>0</asrwt>
<pdfrwt beam="1">  1       21 0.22102725E-01 0.12500520E+03</pdfrwt>
<pdfrwt beam="2">  1       21 0.41833443E-02 0.12500520E+03</pdfrwt>
<totfact> 0.68206902E+06</totfact>
</mgrwt>
</event>
<event>
 5    0  0.1397260E+000  0.1250047E+03  0.7546771E-02  0.1235062E+00
         21   -1    0    0  503  502  0.00000000000E+00  0.00000000000E+00  0.28762560476E+02  0.28762560476E+02  0.00000000000E+00 0.  1.
         21   -1    0    0  502  503 -0.00000000000E+00 -0.00000000000E+00 -0.13582049895E+03  0.13582049895E+03  0.00000000000E+00 0.  1.
         25    2    1    2    0    0  0.00000000000E+00  0.00000000000E+00 -0.10705793847E+03  0.16458305942E+03  0.12500472495E+03 0.  0.
          4    1    3    3  501    0 -0.51562267906E+02 -0.39065217171E+01 -0.99708456963E+02  0.11233034885E+03  0.15500000000E+01 0. -1.
         -4    1    3    3    0  501  0.51562267906E+02  0.39065217171E+01 -0.73494815097E+01  0.52252710571E+02  0.15500000000E+01 0. -1.
<mgrwt>
<rscale>  2 0.12500472E+03</rscale>
<asrwt>0</asrwt>
<pdfrwt beam="1">  1       21 0.44250093E-02 0.12500472E+03</pdfrwt>
<pdfrwt beam="2">  1       21 0.20895461E-01 0.12500472E+03</pdfrwt>
<totfact> 0.68955507E+06</totfact>
</mgrwt>
</event>
<event>
 5    0  0.1436356E+000  0.1250001E+03  0.7546771E-02  0.1235069E+00
         21   -1    0    0  503  502  0.00000000000E+00  0.00000000000E+00  0.15211341570E+02  0.15211341570E+02  0.00000000000E+00 0.  1.
         21   -1    0    0  502  503 -0.00000000000E+00 -0.00000000000E+00 -0.25679885736E+03  0.25679885736E+03  0.00000000000E+00 0.  1.
         25    2    1    2    0    0  0.00000000000E+00  0.00000000000E+00 -0.24158751579E+03  0.27201019893E+03  0.12500008215E+03 0.  0.
          4    1    3    3  501    0 -0.56237575792E+02 -0.16039295577E+02 -0.16866399510E+03  0.17852134236E+03  0.15500000000E+01 0.  1.
         -4    1    3    3    0  501  0.56237575792E+02  0.16039295577E+02 -0.72923520684E+02  0.93488856569E+02  0.15500000000E+01 0.  1.
<mgrwt>
<rscale>  2 0.12500008E+03</rscale>
<asrwt>0</asrwt>
<pdfrwt beam="1">  1       21 0.23402067E-02 0.12500008E+03</pdfrwt>
<pdfrwt beam="2">  1       21 0.39507512E-01 0.12500008E+03</pdfrwt>
<totfact> 0.57865394E+06</totfact>
</mgrwt>
</event>
<event>
 5    0  0.1511346E+000  0.1250480E+03  0.7546771E-02  0.1234994E+00
         21   -1    0    0  503  502  0.00000000000E+00  0.00000000000E+00  0.11391717048E+03  0.11391717048E+03  0.00000000000E+00 0.  1.
         21   -1    0    0  502  503 -0.00000000000E+00 -0.00000000000E+00 -0.34316613419E+02  0.34316613419E+02  0.00000000000E+00 0.  1.
         25    2    1    2    0    0  0.00000000000E+00  0.00000000000E+00  0.79600557063E+02  0.14823378390E+03  0.12504801480E+03 0.  0.
          4    1    3    3  501    0 -0.46810642302E+02  0.14212086280E+02  0.85919308770E+02  0.98882504765E+02  0.15500000000E+01 0.  1.
         -4    1    3    3    0  501  0.46810642302E+02 -0.14212086280E+02 -0.63187517071E+01  0.49351279135E+02  0.15500000000E+01 0.  1.
<mgrwt>
<rscale>  2 0.12504801E+03</rscale>
<asrwt>0</asrwt>
<pdfrwt beam="1">  1       21 0.17525718E-01 0.12504801E+03</pdfrwt>
<pdfrwt beam="2">  1       21 0.52794790E-02 0.12504801E+03</pdfrwt>
<totfact> 0.70895078E+06</totfact>
</mgrwt>
</event>
<event>
 5    0  0.1395765E+000  0.1249927E+03  0.7546771E-02  0.1235081E+00
         21   -1    0    0  503  502  0.00000000000E+00  0.00000000000E+00  0.77798381499E+01  0.77798381499E+01  0.00000000000E+00 0. -1.
         21   -1    0    0  502  503 -0.00000000000E+00 -0.00000000000E+00 -0.50204072566E+03  0.50204072566E+03  0.00000000000E+00 0. -1.
         25    2    1    2    0    0  0.00000000000E+00  0.00000000000E+00 -0.49426088751E+03  0.50982056381E+03  0.12499272923E+03 0.  0.
          4    1    3    3  501    0  0.29310611348E+01 -0.61748713362E+02 -0.21021821876E+03  0.21912461459E+03  0.15500000000E+01 0.  1.
         -4    1    3    3    0  501 -0.29310611348E+01  0.61748713362E+02 -0.28404266875E+03  0.29069594922E+03  0.15500000000E+01 0.  1.
<mgrwt>
<rscale>  2 0.12499273E+03</rscale>
<asrwt>0</asrwt>
<pdfrwt beam="1">  1       21 0.11968978E-02 0.12499273E+03</pdfrwt>
<pdfrwt beam="2">  1       21 0.77237060E-01 0.12499273E+03</pdfrwt>
<totfact> 0.41523945E+06</totfact>
</mgrwt>
</event>
<event>
 5    0  0.1647688E+000  0.1249966E+03  0.7546771E-02  0.1235075E+00
         21   -1    0    0  503  502  0.00000000000E+00  0.00000000000E+00  0.37552568426E+02  0.37552568426E+02  0.00000000000E+00 0. -1.
         21   -1    0    0  502  503 -0.00000000000E+00 -0.00000000000E+00 -0.10401514624E+03  0.10401514624E+03  0.00000000000E+00 0. -1.
         25    2    1    2    0    0  0.00000000000E+00  0.00000000000E+00 -0.66462577817E+02  0.14156771467E+03  0.12499657430E+03 0.  0.
          4    1    3    3  501    0 -0.21187240948E+02 -0.58284634494E+02 -0.24633010210E+02  0.66747175889E+02  0.15500000000E+01 0.  1.
         -4    1    3    3    0  501  0.21187240948E+02  0.58284634494E+02 -0.41829567607E+02  0.74820538780E+02  0.15500000000E+01 0.  1.
<mgrwt>
<rscale>  2 0.12499657E+03</rscale>
<asrwt>0</asrwt>
<pdfrwt beam="1">  1       21 0.57773182E-02 0.12499657E+03</pdfrwt>
<pdfrwt beam="2">  1       21 0.16002330E-01 0.12499657E+03</pdfrwt>
<totfact> 0.71841571E+06</totfact>
</mgrwt>
</event>
<event>
 5    0  0.1429483E+000  0.1250024E+03  0.7546771E-02  0.1235065E+00
         21   -1    0    0  503  502  0.00000000000E+00  0.00000000000E+00  0.23325073561E+03  0.23325073561E+03  0.00000000000E+00 0. -1.
         21   -1    0    0  502  503 -0.00000000000E+00 -0.00000000000E+00 -0.16747649618E+02  0.16747649618E+02  0.00000000000E+00 0. -1.
         25    2    1    2    0    0  0.00000000000E+00  0.00000000000E+00  0.21650308599E+03  0.24999838523E+03  0.12500242547E+03 0.  0.
          4    1    3    3  501    0  0.19286169781E+02  0.42293538046E+02  0.24748028877E+02  0.52683651530E+02  0.15500000000E+01 0. -1.
         -4    1    3    3    0  501 -0.19286169781E+02 -0.42293538046E+02  0.19175505711E+03  0.19731473370E+03  0.15500000000E+01 0. -1.
<mgrwt>
<rscale>  2 0.12500243E+03</rscale>
<asrwt>0</asrwt>
<pdfrwt beam="1">  1       21 0.35884726E-01 0.12500243E+03</pdfrwt>
<pdfrwt beam="2">  1       21 0.25765616E-02 0.12500243E+03</pdfrwt>
<totfact> 0.59874681E+06</totfact>
</mgrwt>
</event>
<event>
 5    0  0.1563262E+000  0.1250007E+03  0.7546771E-02  0.1235068E+00
         21   -1    0    0  503  502  0.00000000000E+00  0.00000000000E+00  0.24495834609E+02  0.24495834609E+02  0.00000000000E+00 0. -1.
         21   -1    0    0  502  503 -0.00000000000E+00 -0.00000000000E+00 -0.15946777748E+03  0.15946777748E+03  0.00000000000E+00 0. -1.
         25    2    1    2    0    0  0.00000000000E+00  0.00000000000E+00 -0.13497194287E+03  0.18396361209E+03  0.12500074084E+03 0.  0.
          4    1    3    3  501    0  0.21652027218E+01 -0.49707442145E+02 -0.12310720259E+03  0.13279045048E+03  0.15500000000E+01 0.  1.
         -4    1    3    3    0  501 -0.21652027218E+01  0.49707442145E+02 -0.11864740275E+02  0.51173161610E+02  0.15500000000E+01 0.  1.
<mgrwt>
<rscale>  2 0.12500074E+03</rscale>
<asrwt>0</asrwt>
<pdfrwt beam="1">  1       21 0.37685899E-02 0.12500074E+03</pdfrwt>
<pdfrwt beam="2">  1       21 0.24533505E-01 0.12500074E+03</pdfrwt>
<totfact> 0.66698474E+06</totfact>
</mgrwt>
</event>
<event>
 5    0  0.1497227E+000  0.1250025E+03  0.7546771E-02  0.1235065E+00
         21   -1    0    0  503  502  0.00000000000E+00  0.00000000000E+00  0.13199105010E+02  0.13199105010E+02  0.00000000000E+00 0. -1.
         21   -1    0    0  502  503 -0.00000000000E+00 -0.00000000000E+00 -0.29595996376E+03  0.29595996376E+03  0.00000000000E+00 0. -1.
         25    2    1    2    0    0  0.00000000000E+00  0.00000000000E+00 -0.28276085875E+03  0.30915906877E+03  0.12500250622E+03 0.  0.
          4    1    3    3  501    0 -0.51050720508E+02 -0.28383770081E+02 -0.86511116931E+02  0.10439535584E+03  0.15500000000E+01 0.  1.
         -4    1    3    3    0  501  0.51050720508E+02  0.28383770081E+02 -0.19624974182E+03  0.20476371293E+03  0.15500000000E+01 0.  1.
<mgrwt>
<rscale>  2 0.12500251E+03</rscale>
<asrwt>0</asrwt>
<pdfrwt beam="1">  1       21 0.20306316E-02 0.12500251E+03</pdfrwt>
<pdfrwt beam="2">  1       21 0.45532300E-01 0.12500251E+03</pdfrwt>
<totfact> 0.54700064E+06</totfact>
</mgrwt>
</event>
<event>
 5    0  0.1222151E+000  0.1250048E+03  0.7546771E-02  0.1235062E+00
         21   -1    0    0  503  502  0.00000000000E+00  0.00000000000E+00  0.94132912610E+03  0.94132912610E+03  0.00000000000E+00 0. -1.
         21   -1    0    0  502  503 -0.00000000000E+00 -0.00000000000E+00 -0.41500331526E+01  0.41500331526E+01  0.00000000000E+00 0. -1.
         25    2    1    2    0    0  0.00000000000E+00  0.00000000000E+00  0.93717909295E+03  0.94547915925E+03  0.12500475320E+03 0.  0.
          4    1    3    3  501    0 -0.38511980539E+02 -0.39536794606E+02  0.24706495226E+03  0.25315968065E+03  0.15500000000E+01 0.  1.
         -4    1    3    3    0  501  0.38511980539E+02  0.39536794606E+02  0.69011414069E+03  0.69231947860E+03  0.15500000000E+01 0.  1.
<mgrwt>
<rscale>  2 0.12500475E+03</rscale>
<asrwt>0</asrwt>
<pdfrwt beam="1">  1       21 0.14481970E+00 0.12500475E+03</pdfrwt>
<pdfrwt beam="2">  1       21 0.63846739E-03 0.12500475E+03</pdfrwt>
<totfact> 0.25029922E+06</totfact>
</mgrwt>
</event>
<event>
 5    0  0.1265774E+000  0.1250083E+03  0.7546771E-02  0.1235056E+00
         21   -1    0    0  503  502  0.00000000000E+00  0.00000000000E+00  0.42070770185E+03  0.42070770185E+03  0.00000000000E+00 0.  1.
         21   -1    0    0  502  503 -0.00000000000E+00 -0.00000000000E+00 -0.92861767456E+01  0.92861767456E+01  0.00000000000E+00 0.  1.
         25    2    1    2    0    0  0.00000000000E+00  0.00000000000E+00  0.41142152511E+03  0.42999387860E+03  0.12500825697E+03 0.  0.
          4    1    3    3  501    0 -0.87005089657E+01 -0.31588564109E+02  0.38872305617E+03  0.39010454129E+03  0.15500000000E+01 0.  1.
         -4    1    3    3    0  501  0.87005089657E+01  0.31588564109E+02  0.22698468941E+02  0.39889337310E+02  0.15500000000E+01 0.  1.
<mgrwt>
<rscale>  2 0.12500826E+03</rscale>
<asrwt>0</asrwt>
<pdfrwt beam="1">  1       21 0.64724247E-01 0.12500826E+03</pdfrwt>
<pdfrwt beam="2">  1       21 0.14286429E-02 0.12500826E+03</pdfrwt>
<totfact> 0.46104006E+06</totfact>
</mgrwt>
</event>
<event>
 5    0  0.1440557E+000  0.1249999E+03  0.7546771E-02  0.1235070E+00
         21   -1    0    0  503  502  0.00000000000E+00  0.00000000000E+00  0.29707247660E+03  0.29707247660E+03  0.00000000000E+00 0.  1.
         21   -1    0    0  502  503 -0.00000000000E+00 -0.00000000000E+00 -0.13149117825E+02  0.13149117825E+02  0.00000000000E+00 0.  1.
         25    2    1    2    0    0  0.00000000000E+00  0.00000000000E+00  0.28392335878E+03  0.31022159443E+03  0.12499985596E+03 0.  0.
          4    1    3    3  501    0 -0.32864598516E+02 -0.46801439817E+02  0.79502635064E+02  0.97946557298E+02  0.15500000000E+01 0.  1.
         -4    1    3    3    0  501  0.32864598516E+02  0.46801439817E+02  0.20442072371E+03  0.21227503713E+03  0.15500000000E+01 0.  1.
<mgrwt>
<rscale>  2 0.12499986E+03</rscale>
<asrwt>0</asrwt>
<pdfrwt beam="1">  1       21 0.45703453E-01 0.12499986E+03</pdfrwt>
<pdfrwt beam="2">  1       21 0.20229414E-02 0.12499986E+03</pdfrwt>
<totfact> 0.54617474E+06</totfact>
</mgrwt>
</event>
<event>
 5    0  0.1407767E+000  0.1249930E+03  0.7546771E-02  0.1235080E+00
         21   -1    0    0  503  502  0.00000000000E+00  0.00000000000E+00  0.20229689890E+02  0.20229689890E+02  0.00000000000E+00 0.  1.
         21   -1    0    0  502  503 -0.00000000000E+00 -0.00000000000E+00 -0.19307312516E+03  0.19307312516E+03  0.00000000000E+00 0.  1.
         25    2    1    2    0    0  0.00000000000E+00  0.00000000000E+00 -0.17284343527E+03  0.21330281505E+03  0.12499295097E+03 0.  0.
          4    1    3    3  501    0 -0.17424579771E+02  0.21297785403E+02 -0.18214198541E+03  0.18421540921E+03  0.15500000000E+01 0.  1.
         -4    1    3    3    0  501  0.17424579771E+02 -0.21297785403E+02  0.92985501428E+01  0.29087405831E+02  0.15500000000E+01 0.  1.
<mgrwt>
<rscale>  2 0.12499295E+03</rscale>
<asrwt>0</asrwt>
<pdfrwt beam="1">  1       21 0.31122600E-02 0.12499295E+03</pdfrwt>
<pdfrwt beam="2">  1       21 0.29703558E-01 0.12499295E+03</pdfrwt>
<totfact> 0.63525031E+06</totfact>
</mgrwt>
</event>
<event>
 5    0  0.1554158E+000  0.1250049E+03  0.7546771E-02  0.1235062E+00
         21   -1    0    0  503  502  0.00000000000E+00  0.00000000000E+00  0.61205380524E+02  0.61205380524E+02  0.00000000000E+00 0. -1.
         21   -1    0    0  502  503 -0.00000000000E+00 -0.00000000000E+00 -0.63827023453E+02  0.63827023453E+02  0.00000000000E+00 0. -1.
         25    2    1    2    0    0  0.00000000000E+00  0.00000000000E+00 -0.26216429289E+01  0.12503240398E+03  0.12500491603E+03 0.  0.
          4    1    3    3  501    0  0.18429566948E+02  0.56702193349E+02  0.17384652712E+02  0.62124200747E+02  0.15500000000E+01 0. -1.
         -4    1    3    3    0  501 -0.18429566948E+02 -0.56702193349E+02 -0.20006295641E+02  0.62908203231E+02  0.15500000000E+01 0. -1.
<mgrwt>
<rscale>  2 0.12500492E+03</rscale>
<asrwt>0</asrwt>
<pdfrwt beam="1">  1       21 0.94162124E-02 0.12500492E+03</pdfrwt>
<pdfrwt beam="2">  1       21 0.98195421E-02 0.12500492E+03</pdfrwt>
<totfact> 0.74029900E+06</totfact>
</mgrwt>
</event>
<event>
 5    0  0.1442351E+000  0.1250079E+03  0.7546771E-02  0.1235057E+00
         21   -1    0    0  503  502  0.00000000000E+00  0.00000000000E+00  0.45148908282E+02  0.45148908282E+02  0.00000000000E+00 0. -1.
         21   -1    0    0  502  503 -0.00000000000E+00 -0.00000000000E+00 -0.86530171077E+02  0.86530171077E+02  0.00000000000E+00 0. -1.
         25    2    1    2    0    0  0.00000000000E+00  0.00000000000E+00 -0.41381262794E+02  0.13167907936E+03  0.12500788387E+03 0.  0.
          4    1    3    3  501    0  0.45308698537E+02 -0.14956237768E+01 -0.65988136227E+02  0.80074663136E+02  0.15500000000E+01 0. -1.
         -4    1    3    3    0  501 -0.45308698537E+02  0.14956237768E+01  0.24606873432E+02  0.51604416223E+02  0.15500000000E+01 0. -1.
<mgrwt>
<rscale>  2 0.12500788E+03</rscale>
<asrwt>0</asrwt>
<pdfrwt beam="1">  1       21 0.69459860E-02 0.12500788E+03</pdfrwt>
<pdfrwt beam="2">  1       21 0.13312334E-01 0.12500788E+03</pdfrwt>
<totfact> 0.73124598E+06</totfact>
</mgrwt>
</event>
<event>
 5    0  0.1378049E+000  0.1249993E+03  0.7546771E-02  0.1235070E+00
         21   -1    0    0  503  502  0.00000000000E+00  0.00000000000E+00  0.89508108047E+01  0.89508108047E+01  0.00000000000E+00 0.  1.
         21   -1    0    0  502  503 -0.00000000000E+00 -0.00000000000E+00 -0.43640820571E+03  0.43640820571E+03  0.00000000000E+00 0.  1.
         25    2    1    2    0    0  0.00000000000E+00  0.00000000000E+00 -0.42745739491E+03  0.44535901652E+03  0.12499931653E+03 0.  0.
          4    1    3    3  501    0  0.26897026053E+02  0.41378521568E+02 -0.77210298367E+02  0.91648593723E+02  0.15500000000E+01 0.  1.
         -4    1    3    3    0  501 -0.26897026053E+02 -0.41378521568E+02 -0.35024709654E+03  0.35371042280E+03  0.15500000000E+01 0.  1.
<mgrwt>
<rscale>  2 0.12499932E+03</rscale>
<asrwt>0</asrwt>
<pdfrwt beam="1">  1       21 0.13770478E-02 0.12499932E+03</pdfrwt>
<pdfrwt beam="2">  1       21 0.67139726E-01 0.12499932E+03</pdfrwt>
<totfact> 0.45172052E+06</totfact>
</mgrwt>
</event>
<event>
 5    0  0.1507885E+000  0.1250078E+03  0.7546771E-02  0.1235057E+00
         21   -1    0    0  503  502  0.00000000000E+00  0.00000000000E+00  0.21893410307E+02  0.21893410307E+02  0.00000000000E+00 0.  1.
         21   -1    0    0  502  503 -0.00000000000E+00 -0.00000000000E+00 -0.17844364938E+03  0.17844364938E+03  0.00000000000E+00 0.  1.
         25    2    1    2    0    0  0.00000000000E+00  0.00000000000E+00 -0.15655023907E+03  0.20033705968E+03  0.12500784027E+03 0.  0.
          4    1    3    3  501    0 -0.56174934171E+02  0.12140582127E+02 -0.38976520060E+02  0.69459258414E+02  0.15500000000E+01 0. -1.
         -4    1    3    3    0  501  0.56174934171E+02 -0.12140582127E+02 -0.11757371901E+03  0.13087780127E+03  0.15500000000E+01 0. -1.
<mgrwt>
<rscale>  2 0.12500784E+03</rscale>
<asrwt>0</asrwt>
<pdfrwt beam="1">  1       21 0.33682169E-02 0.12500784E+03</pdfrwt>
<pdfrwt beam="2">  1       21 0.27452870E-01 0.12500784E+03</pdfrwt>
<totfact> 0.64877870E+06</totfact>
</mgrwt>
</event>
<event>
 5    0  0.1571791E+000  0.1249953E+03  0.7546771E-02  0.1235077E+00
         21   -1    0    0  503  502  0.00000000000E+00  0.00000000000E+00  0.21356551090E+02  0.21356551090E+02  0.00000000000E+00 0.  1.
         21   -1    0    0  502  503 -0.00000000000E+00 -0.00000000000E+00 -0.18289279303E+03  0.18289279303E+03  0.00000000000E+00 0.  1.
         25    2    1    2    0    0  0.00000000000E+00  0.00000000000E+00 -0.16153624194E+03  0.20424934412E+03  0.12499534836E+03 0.  0.
          4    1    3    3  501    0 -0.60942080826E+02  0.10426253306E+02 -0.66069538699E+02  0.90499891808E+02  0.15500000000E+01 0.  1.
         -4    1    3    3    0  501  0.60942080826E+02 -0.10426253306E+02 -0.95466703237E+02  0.11374945231E+03  0.15500000000E+01 0.  1.
<mgrwt>
<rscale>  2 0.12499535E+03</rscale>
<asrwt>0</asrwt>
<pdfrwt beam="1">  1       21 0.32856233E-02 0.12499535E+03</pdfrwt>
<pdfrwt beam="2">  1       21 0.28137352E-01 0.12499535E+03</pdfrwt>
<totfact> 0.64477286E+06</totfact>
</mgrwt>
</event>
<event>
 5    0  0.1255665E+000  0.1250002E+03  0.7546771E-02  0.1235069E+00
         21   -1    0    0  503  502  0.00000000000E+00  0.00000000000E+00  0.64509348115E+03  0.64509348115E+03  0.00000000000E+00 0. -1.
         21   -1    0    0  502  503 -0.00000000000E+00 -0.00000000000E+00 -0.60553435358E+01  0.60553435358E+01  0.00000000000E+00 0. -1.
         25    2    1    2    0    0  0.00000000000E+00  0.00000000000E+00  0.63903813762E+03  0.65114882469E+03  0.12500020226E+03 0.  0.
          4    1    3    3  501    0  0.59442894174E+02  0.95725870350E+00  0.21938805466E+03  0.22730573032E+03  0.15500000000E+01 0.  1.
         -4    1    3    3    0  501 -0.59442894174E+02 -0.95725870350E+00  0.41965008296E+03  0.42384309436E+03  0.15500000000E+01 0.  1.
<mgrwt>
<rscale>  2 0.12500020E+03</rscale>
<asrwt>0</asrwt>
<pdfrwt beam="1">  1       21 0.99245097E-01 0.12500020E+03</pdfrwt>
<pdfrwt beam="2">  1       21 0.93159182E-03 0.12500020E+03</pdfrwt>
<totfact> 0.34876638E+06</totfact>
</mgrwt>
</event>
<event>
 5    0  0.1483148E+000  0.1249998E+03  0.7546771E-02  0.1235070E+00
         21   -1    0    0  503  502  0.00000000000E+00  0.00000000000E+00  0.21850540585E+02  0.21850540585E+02  0.00000000000E+00 0.  1.
         21   -1    0    0  502  503 -0.00000000000E+00 -0.00000000000E+00 -0.17877066708E+03  0.17877066708E+03  0.00000000000E+00 0.  1.
         25    2    1    2    0    0  0.00000000000E+00  0.00000000000E+00 -0.15692012649E+03  0.20062120767E+03  0.12499977146E+03 0.  0.
          4    1    3    3  501    0  0.34954281898E+02 -0.10271970936E+01 -0.16156256641E+03  0.16531098669E+03  0.15500000000E+01 0. -1.
         -4    1    3    3    0  501 -0.34954281898E+02  0.10271970936E+01  0.46424399123E+01  0.35310220973E+02  0.15500000000E+01 0. -1.
<mgrwt>
<rscale>  2 0.12499977E+03</rscale>
<asrwt>0</asrwt>
<pdfrwt beam="1">  1       21 0.33616215E-02 0.12499977E+03</pdfrwt>
<pdfrwt beam="2">  1       21 0.27503180E-01 0.12499977E+03</pdfrwt>
<totfact> 0.64860377E+06</totfact>
</mgrwt>
</event>
<event>
 5    0  0.1450960E+000  0.1250019E+03  0.7546771E-02  0.1235066E+00
         21   -1    0    0  503  502  0.00000000000E+00  0.00000000000E+00  0.21287381441E+03  0.21287381441E+03  0.00000000000E+00 0. -1.
         21   -1    0    0  502  503 -0.00000000000E+00 -0.00000000000E+00 -0.18350634330E+02  0.18350634330E+02  0.00000000000E+00 0. -1.
         25    2    1    2    0    0  0.00000000000E+00  0.00000000000E+00  0.19452318008E+03  0.23122444874E+03  0.12500191241E+03 0.  0.
          4    1    3    3  501    0 -0.58891058164E+01  0.26248164602E+02 -0.70547781982E+01  0.27853547489E+02  0.15500000000E+01 0. -1.
         -4    1    3    3    0  501  0.58891058164E+01 -0.26248164602E+02  0.20157795828E+03  0.20337090125E+03  0.15500000000E+01 0. -1.
<mgrwt>
<rscale>  2 0.12500191E+03</rscale>
<asrwt>0</asrwt>
<pdfrwt beam="1">  1       21 0.32749816E-01 0.12500191E+03</pdfrwt>
<pdfrwt beam="2">  1       21 0.28231747E-02 0.12500191E+03</pdfrwt>
<totfact> 0.61689359E+06</totfact>
</mgrwt>
</event>
<event>
 5    0  0.1549034E+000  0.1249981E+03  0.7546771E-02  0.1235072E+00
         21   -1    0    0  503  502  0.00000000000E+00  0.00000000000E+00  0.96293607829E+02  0.96293607829E+02  0.00000000000E+00 0. -1.
         21   -1    0    0  502  503 -0.00000000000E+00 -0.00000000000E+00 -0.40564785105E+02  0.40564785105E+02  0.00000000000E+00 0. -1.
         25    2    1    2    0    0  0.00000000000E+00  0.00000000000E+00  0.55728822723E+02  0.13685839293E+03  0.12499807212E+03 0.  0.
          4    1    3    3  501    0 -0.30699934583E+02 -0.27928994102E+02 -0.23270451026E+02  0.47607048699E+02  0.15500000000E+01 0.  1.
         -4    1    3    3    0  501  0.30699934583E+02  0.27928994102E+02  0.78999273749E+02  0.89251344235E+02  0.15500000000E+01 0.  1.
<mgrwt>
<rscale>  2 0.12499807E+03</rscale>
<asrwt>0</asrwt>
<pdfrwt beam="1">  1       21 0.14814401E-01 0.12499807E+03</pdfrwt>
<pdfrwt beam="2">  1       21 0.62407362E-02 0.12499807E+03</pdfrwt>
<totfact> 0.72454894E+06</totfact>
</mgrwt>
</event>
<event>
 5    0  0.1552701E+000  0.1249975E+03  0.7546771E-02  0.1235073E+00
         21   -1    0    0  503  502  0.00000000000E+00  0.00000000000E+00  0.20417823806E+02  0.20417823806E+02  0.00000000000E+00 0. -1.
         21   -1    0    0  502  503 -0.00000000000E+00 -0.00000000000E+00 -0.19130818135E+03  0.19130818135E+03  0.00000000000E+00 0. -1.
         25    2    1    2    0    0  0.00000000000E+00  0.00000000000E+00 -0.17089035754E+03  0.21172600515E+03  0.12499754781E+03 0.  0.
          4    1    3    3  501    0  0.61408274033E+02  0.42257979684E+01 -0.10359860214E+03  0.12051517064E+03  0.15500000000E+01 0.  1.
         -4    1    3    3    0  501 -0.61408274033E+02 -0.42257979684E+01 -0.67291755401E+02  0.91210834516E+02  0.15500000000E+01 0.  1.
<mgrwt>
<rscale>  2 0.12499755E+03</rscale>
<asrwt>0</asrwt>
<pdfrwt beam="1">  1       21 0.31412039E-02 0.12499755E+03</pdfrwt>
<pdfrwt beam="2">  1       21 0.29432026E-01 0.12499755E+03</pdfrwt>
<totfact> 0.63682347E+06</totfact>
</mgrwt>
</event>
<event>
 5    0  0.1537083E+000  0.1250355E+03  0.7546771E-02  0.1235014E+00
         21   -1    0    0  503  502  0.00000000000E+00  0.00000000000E+00  0.31015260575E+02  0.31015260575E+02  0.00000000000E+00 0.  1.
         21   -1    0    0  502  503 -0.00000000000E+00 -0.00000000000E+00 -0.12601759160E+03  0.12601759160E+03  0.00000000000E+00 0.  1.
         25    2    1    2    0    0  0.00000000000E+00  0.00000000000E+00 -0.95002331025E+02  0.15703285217E+03  0.12503549001E+03 0.  0.
          4    1    3    3  501    0  0.62383338447E+02 -0.69201404362E+00 -0.42817773225E+02  0.75683049643E+02  0.15500000000E+01 0.  1.
         -4    1    3    3    0  501 -0.62383338447E+02  0.69201404362E+00 -0.52184557799E+02  0.81349802532E+02  0.15500000000E+01 0.  1.
<mgrwt>
<rscale>  2 0.12503549E+03</rscale>
<asrwt>0</asrwt>
<pdfrwt beam="1">  1       21 0.47715785E-02 0.12503549E+03</pdfrwt>
<pdfrwt beam="2">  1       21 0.19387322E-01 0.12503549E+03</pdfrwt>
<totfact> 0.69820840E+06</totfact>
</mgrwt>
</event>
<event>
 5    0  0.1259308E+000  0.1250046E+03  0.7546771E-02  0.1235062E+00
         21   -1    0    0  503  502  0.00000000000E+00  0.00000000000E+00  0.68134555440E+03  0.68134555440E+03  0.00000000000E+00 0.  1.
         21   -1    0    0  502  503 -0.00000000000E+00 -0.00000000000E+00 -0.57335583185E+01  0.57335583185E+01  0.00000000000E+00 0.  1.
         25    2    1    2    0    0  0.00000000000E+00  0.00000000000E+00  0.67561199608E+03  0.68707911272E+03  0.12500455146E+03 0.  0.
          4    1    3    3  501    0  0.58362482451E+02  0.14155944767E+02  0.43261935832E+03  0.43677051391E+03  0.15500000000E+01 0.  1.
         -4    1    3    3    0  501 -0.58362482451E+02 -0.14155944767E+02  0.24299263776E+03  0.25030859881E+03  0.15500000000E+01 0.  1.
<mgrwt>
<rscale>  2 0.12500455E+03</rscale>
<asrwt>0</asrwt>
<pdfrwt beam="1">  1       21 0.10482233E+00 0.12500455E+03</pdfrwt>
<pdfrwt beam="2">  1       21 0.88208643E-03 0.12500455E+03</pdfrwt>
<totfact> 0.33410510E+06</totfact>
</mgrwt>
</event>
<event>
 5    0  0.1662845E+000  0.1250105E+03  0.7546771E-02  0.1235053E+00
         21   -1    0    0  503  502  0.00000000000E+00  0.00000000000E+00  0.45353824205E+02  0.45353824205E+02  0.00000000000E+00 0. -1.
         21   -1    0    0  502  503 -0.00000000000E+00 -0.00000000000E+00 -0.86142841311E+02  0.86142841311E+02  0.00000000000E+00 0. -1.
         25    2    1    2    0    0  0.00000000000E+00  0.00000000000E+00 -0.40789017106E+02  0.13149666552E+03  0.12501051606E+03 0.  0.
          4    1    3    3  501    0  0.20273598437E+02  0.31139976668E+02 -0.73238378370E+02  0.82139999432E+02  0.15500000000E+01 0.  1.
         -4    1    3    3    0  501 -0.20273598437E+02 -0.31139976668E+02  0.32449361264E+02  0.49356666084E+02  0.15500000000E+01 0.  1.
<mgrwt>
<rscale>  2 0.12501052E+03</rscale>
<asrwt>0</asrwt>
<pdfrwt beam="1">  1       21 0.69775114E-02 0.12501052E+03</pdfrwt>
<pdfrwt beam="2">  1       21 0.13252745E-01 0.12501052E+03</pdfrwt>
<totfact> 0.73144195E+06</totfact>
</mgrwt>
</event>
<event>
 5    0  0.1635238E+000  0.1250021E+03  0.7546771E-02  0.1235066E+00
         21   -1    0    0  503  502  0.00000000000E+00  0.00000000000E+00  0.82979276242E+02  0.82979276242E+02  0.00000000000E+00 0. -1.
         21   -1    0    0  502  503 -0.00000000000E+00 -0.00000000000E+00 -0.47076595156E+02  0.47076595156E+02  0.00000000000E+00 0. -1.
         25    2    1    2    0    0  0.00000000000E+00  0.00000000000E+00  0.35902681086E+02  0.13005587140E+03  0.12500210869E+03 0.  0.
          4    1    3    3  501    0 -0.53802944577E+02  0.28253200865E+02  0.28389791328E+01  0.60856080278E+02  0.15500000000E+01 0.  1.
         -4    1    3    3    0  501  0.53802944577E+02 -0.28253200865E+02  0.33063701953E+02  0.69199791121E+02  0.15500000000E+01 0.  1.
<mgrwt>
<rscale>  2 0.12500211E+03</rscale>
<asrwt>0</asrwt>
<pdfrwt beam="1">  1       21 0.12766042E-01 0.12500211E+03</pdfrwt>
<pdfrwt beam="2">  1       21 0.72425531E-02 0.12500211E+03</pdfrwt>
<totfact> 0.73353500E+06</totfact>
</mgrwt>
</event>
<event>
 5    0  0.1479985E+000  0.1249988E+03  0.7546771E-02  0.1235071E+00
         21   -1    0    0  503  502  0.00000000000E+00  0.00000000000E+00  0.23336969177E+03  0.23336969177E+03  0.00000000000E+00 0. -1.
         21   -1    0    0  502  503 -0.00000000000E+00 -0.00000000000E+00 -0.16738133767E+02  0.16738133767E+02  0.00000000000E+00 0. -1.
         25    2    1    2    0    0  0.00000000000E+00  0.00000000000E+00  0.21663155800E+03  0.25010782554E+03  0.12499876988E+03 0.  0.
          4    1    3    3  501    0 -0.21644434153E+02 -0.55675307101E+02  0.71663609290E+02  0.93307538533E+02  0.15500000000E+01 0. -1.
         -4    1    3    3    0  501  0.21644434153E+02  0.55675307101E+02  0.14496794871E+03  0.15680028700E+03  0.15500000000E+01 0. -1.
<mgrwt>
<rscale>  2 0.12499877E+03</rscale>
<asrwt>0</asrwt>
<pdfrwt beam="1">  1       21 0.35903027E-01 0.12499877E+03</pdfrwt>
<pdfrwt beam="2">  1       21 0.25750977E-02 0.12499877E+03</pdfrwt>
<totfact> 0.59869897E+06</totfact>
</mgrwt>
</event>
<event>
 5    0  0.1617009E+000  0.1250014E+03  0.7546771E-02  0.1235067E+00
         21   -1    0    0  503  502  0.00000000000E+00  0.00000000000E+00  0.48404349655E+02  0.48404349655E+02  0.00000000000E+00 0.  1.
         21   -1    0    0  502  503 -0.00000000000E+00 -0.00000000000E+00 -0.80702239992E+02  0.80702239992E+02  0.00000000000E+00 0.  1.
         25    2    1    2    0    0  0.00000000000E+00  0.00000000000E+00 -0.32297890338E+02  0.12910658965E+03  0.12500143107E+03 0.  0.
          4    1    3    3  501    0  0.51517072553E+02 -0.20325795410E+02  0.13728380564E+02  0.57079047438E+02  0.15500000000E+01 0. -1.
         -4    1    3    3    0  501 -0.51517072553E+02  0.20325795410E+02 -0.46026270902E+02  0.72027542209E+02  0.15500000000E+01 0. -1.
<mgrwt>
<rscale>  2 0.12500143E+03</rscale>
<asrwt>0</asrwt>
<pdfrwt beam="1">  1       21 0.74468230E-02 0.12500143E+03</pdfrwt>
<pdfrwt beam="2">  1       21 0.12415729E-01 0.12500143E+03</pdfrwt>
<totfact> 0.73481885E+06</totfact>
</mgrwt>
</event>
<event>
 5    0  0.1222151E+000  0.1250017E+03  0.7546771E-02  0.1235067E+00
         21   -1    0    0  503  502  0.00000000000E+00  0.00000000000E+00  0.11370352480E+04  0.11370352480E+04  0.00000000000E+00 0. -1.
         21   -1    0    0  502  503 -0.00000000000E+00 -0.00000000000E+00 -0.34355633662E+01  0.34355633662E+01  0.00000000000E+00 0. -1.
         25    2    1    2    0    0  0.00000000000E+00  0.00000000000E+00  0.11335996846E+04  0.11404708113E+04  0.12500170629E+03 0.  0.
          4    1    3    3  501    0 -0.30535368240E+02  0.54511270739E+02  0.56444190053E+03  0.56789167007E+03  0.15500000000E+01 0. -1.
         -4    1    3    3    0  501  0.30535368240E+02 -0.54511270739E+02  0.56915778406E+03  0.57257914126E+03  0.15500000000E+01 0. -1.
<mgrwt>
<rscale>  2 0.12500171E+03</rscale>
<asrwt>0</asrwt>
<pdfrwt beam="1">  1       21 0.17492820E+00 0.12500171E+03</pdfrwt>
<pdfrwt beam="2">  1       21 0.52854912E-03 0.12500171E+03</pdfrwt>
<totfact> 0.20370677E+06</totfact>
</mgrwt>
</event>
<event>
 5    0  0.1412187E+000  0.1249994E+03  0.7546771E-02  0.1235070E+00
         21   -1    0    0  503  502  0.00000000000E+00  0.00000000000E+00  0.73431809315E+01  0.73431809315E+01  0.00000000000E+00 0. -1.
         21   -1    0    0  502  503 -0.00000000000E+00 -0.00000000000E+00 -0.53195138806E+03  0.53195138806E+03  0.00000000000E+00 0. -1.
         25    2    1    2    0    0  0.00000000000E+00  0.00000000000E+00 -0.52460820713E+03  0.53929456899E+03  0.12499944463E+03 0.  0.
          4    1    3    3  501    0 -0.45750883520E+02 -0.42104458151E+02 -0.28885909499E+03  0.29547911601E+03  0.15500000000E+01 0.  1.
         -4    1    3    3    0  501  0.45750883520E+02  0.42104458151E+02 -0.23574911214E+03  0.24381545299E+03  0.15500000000E+01 0.  1.
<mgrwt>
<rscale>  2 0.12499944E+03</rscale>
<asrwt>0</asrwt>
<pdfrwt beam="1">  1       21 0.11297194E-02 0.12499944E+03</pdfrwt>
<pdfrwt beam="2">  1       21 0.81838725E-01 0.12499944E+03</pdfrwt>
<totfact> 0.39990724E+06</totfact>
</mgrwt>
</event>
<event>
 5    0  0.1444850E+000  0.1250134E+03  0.7546771E-02  0.1235048E+00
         21   -1    0    0  503  502  0.00000000000E+00  0.00000000000E+00  0.10851857286E+02  0.10851857286E+02  0.00000000000E+00 0. -1.
         21   -1    0    0  502  503 -0.00000000000E+00 -0.00000000000E+00 -0.36003889006E+03  0.36003889006E+03  0.00000000000E+00 0. -1.
         25    2    1    2    0    0  0.00000000000E+00  0.00000000000E+00 -0.34918703277E+03  0.37089074735E+03  0.12501344972E+03 0.  0.
          4    1    3    3  501    0 -0.19770972032E+02  0.52274459511E+02 -0.25751444902E+03  0.26351395486E+03  0.15500000000E+01 0. -1.
         -4    1    3    3    0  501  0.19770972032E+02 -0.52274459511E+02 -0.91672583750E+02  0.10737679248E+03  0.15500000000E+01 0. -1.
<mgrwt>
<rscale>  2 0.12501345E+03</rscale>
<asrwt>0</asrwt>
<pdfrwt beam="1">  1       21 0.16695167E-02 0.12501345E+03</pdfrwt>
<pdfrwt beam="2">  1       21 0.55390592E-01 0.12501345E+03</pdfrwt>
<totfact> 0.50014802E+06</totfact>
</mgrwt>
</event>
<event>
 5    0  0.1596187E+000  0.1250021E+03  0.7546771E-02  0.1235066E+00
         21   -1    0    0  503  502  0.00000000000E+00  0.00000000000E+00  0.26841174034E+02  0.26841174034E+02  0.00000000000E+00 0. -1.
         21   -1    0    0  502  503 -0.00000000000E+00 -0.00000000000E+00 -0.14553686366E+03  0.14553686366E+03  0.00000000000E+00 0. -1.
         25    2    1    2    0    0  0.00000000000E+00  0.00000000000E+00 -0.11869568963E+03  0.17237803770E+03  0.12500208456E+03 0.  0.
          4    1    3    3  501    0 -0.44515529059E+02  0.27731227599E+02 -0.10617959961E+03  0.11843632544E+03  0.15500000000E+01 0.  1.
         -4    1    3    3    0  501  0.44515529059E+02 -0.27731227599E+02 -0.12516090022E+02  0.53941712255E+02  0.15500000000E+01 0.  1.
<mgrwt>
<rscale>  2 0.12500208E+03</rscale>
<asrwt>0</asrwt>
<pdfrwt beam="1">  1       21 0.41294113E-02 0.12500208E+03</pdfrwt>
<pdfrwt beam="2">  1       21 0.22390287E-01 0.12500208E+03</pdfrwt>
<totfact> 0.68033245E+06</totfact>
</mgrwt>
</event>
<event>
 5    0  0.1520835E+000  0.1250018E+03  0.7546771E-02  0.1235066E+00
         21   -1    0    0  503  502  0.00000000000E+00  0.00000000000E+00  0.81132141470E+02  0.81132141470E+02  0.00000000000E+00 0. -1.
         21   -1    0    0  502  503 -0.00000000000E+00 -0.00000000000E+00 -0.48148184778E+02  0.48148184778E+02  0.00000000000E+00 0. -1.
         25    2    1    2    0    0  0.00000000000E+00  0.00000000000E+00  0.32983956692E+02  0.12928032625E+03  0.12500184541E+03 0.  0.
          4    1    3    3  501    0 -0.37296858995E+02  0.50113393630E+02  0.17781625827E+02  0.64969197540E+02  0.15500000000E+01 0. -1.
         -4    1    3    3    0  501  0.37296858995E+02 -0.50113393630E+02  0.15202330865E+02  0.64311128708E+02  0.15500000000E+01 0. -1.
<mgrwt>
<rscale>  2 0.12500185E+03</rscale>
<asrwt>0</asrwt>
<pdfrwt beam="1">  1       21 0.12481868E-01 0.12500185E+03</pdfrwt>
<pdfrwt beam="2">  1       21 0.74074130E-02 0.12500185E+03</pdfrwt>
<totfact> 0.73457799E+06</totfact>
</mgrwt>
</event>
<event>
 5    0  0.1635454E+000  0.1249819E+03  0.7546771E-02  0.1235098E+00
         21   -1    0    0  503  502  0.00000000000E+00  0.00000000000E+00  0.35953047096E+02  0.35953047096E+02  0.00000000000E+00 0. -1.
         21   -1    0    0  502  503 -0.00000000000E+00 -0.00000000000E+00 -0.10861715229E+03  0.10861715229E+03  0.00000000000E+00 0. -1.
         25    2    1    2    0    0  0.00000000000E+00  0.00000000000E+00 -0.72664105191E+02  0.14457019938E+03  0.12498188015E+03 0.  0.
          4    1    3    3  501    0  0.46686699803E+02  0.35966181184E+02 -0.12359526621E+02  0.60235990286E+02  0.15500000000E+01 0.  1.
         -4    1    3    3    0  501 -0.46686699803E+02 -0.35966181184E+02 -0.60304578570E+02  0.84334209096E+02  0.15500000000E+01 0.  1.
<mgrwt>
<rscale>  2 0.12498188E+03</rscale>
<asrwt>0</asrwt>
<pdfrwt beam="1">  1       21 0.55312380E-02 0.12498188E+03</pdfrwt>
<pdfrwt beam="2">  1       21 0.16710331E-01 0.12498188E+03</pdfrwt>
<totfact> 0.71481129E+06</totfact>
</mgrwt>
</event>
<event>
 5    0  0.1503470E+000  0.1249820E+03  0.7546771E-02  0.1235097E+00
         21   -1    0    0  503  502  0.00000000000E+00  0.00000000000E+00  0.13380820654E+02  0.13380820654E+02  0.00000000000E+00 0. -1.
         21   -1    0    0  502  503 -0.00000000000E+00 -0.00000000000E+00 -0.29184511048E+03  0.29184511048E+03  0.00000000000E+00 0. -1.
         25    2    1    2    0    0  0.00000000000E+00  0.00000000000E+00 -0.27846428982E+03  0.30522593113E+03  0.12498203202E+03 0.  0.
          4    1    3    3  501    0  0.48356648211E+02 -0.29599145990E+02 -0.20330098555E+03  0.21106436956E+03  0.15500000000E+01 0. -1.
         -4    1    3    3    0  501 -0.48356648211E+02  0.29599145990E+02 -0.75163304272E+02  0.94161561577E+02  0.15500000000E+01 0. -1.
<mgrwt>
<rscale>  2 0.12498203E+03</rscale>
<asrwt>0</asrwt>
<pdfrwt beam="1">  1       21 0.20585880E-02 0.12498203E+03</pdfrwt>
<pdfrwt beam="2">  1       21 0.44899243E-01 0.12498203E+03</pdfrwt>
<totfact> 0.55049498E+06</totfact>
</mgrwt>
</event>
<event>
 5    0  0.1624477E+000  0.1250038E+03  0.7546771E-02  0.1235063E+00
         21   -1    0    0  503  502  0.00000000000E+00  0.00000000000E+00  0.43144599078E+02  0.43144599078E+02  0.00000000000E+00 0. -1.
         21   -1    0    0  502  503 -0.00000000000E+00 -0.00000000000E+00 -0.90544118454E+02  0.90544118454E+02  0.00000000000E+00 0. -1.
         25    2    1    2    0    0  0.00000000000E+00  0.00000000000E+00 -0.47399519376E+02  0.13368871753E+03  0.12500383497E+03 0.  0.
          4    1    3    3  501    0 -0.61774573732E+02  0.93796237227E+01 -0.23583149396E+02  0.66803014426E+02  0.15500000000E+01 0. -1.
         -4    1    3    3    0  501  0.61774573732E+02 -0.93796237227E+01 -0.23816369980E+02  0.66885703106E+02  0.15500000000E+01 0. -1.
<mgrwt>
<rscale>  2 0.12500383E+03</rscale>
<asrwt>0</asrwt>
<pdfrwt beam="1">  1       21 0.66376307E-02 0.12500383E+03</pdfrwt>
<pdfrwt beam="2">  1       21 0.13929864E-01 0.12500383E+03</pdfrwt>
<totfact> 0.72863441E+06</totfact>
</mgrwt>
</event>
<event>
 4    0  0.1593642E+000  0.1254181E+03  0.7546771E-02  0.1234417E+00
         21   -1    0    0  503  502  0.00000000000E+00  0.00000000000E+00  0.37715234095E+02  0.37715234095E+02  0.00000000000E+00 0.  1.
         21   -1    0    0  502  503 -0.00000000000E+00 -0.00000000000E+00 -0.10426619407E+03  0.10426619407E+03  0.00000000000E+00 0.  1.
          4    1    1    2  501    0 -0.66805453025E+01 -0.61584316435E+02 -0.22372118403E+02  0.65879981012E+02  0.15500000000E+01 0. -1.
         -4    1    1    2    0  501  0.66805453025E+01  0.61584316435E+02 -0.44178841574E+02  0.76101447155E+02  0.15500000000E+01 0. -1.
<mgrwt>
<rscale>  2 0.12541808E+03</rscale>
<asrwt>0</asrwt>
<pdfrwt beam="1">  1       21 0.58023439E-02 0.12541808E+03</pdfrwt>
<pdfrwt beam="2">  1       21 0.16040952E-01 0.12541808E+03</pdfrwt>
<totfact> 0.71022403E+06</totfact>
</mgrwt>
</event>
<event>
 4    0  0.1895884E+000  0.1248976E+03  0.7546771E-02  0.1235229E+00
         21   -1    0    0  503  502  0.00000000000E+00  0.00000000000E+00  0.79388438443E+02  0.79388438443E+02  0.00000000000E+00 0. -1.
         21   -1    0    0  502  503 -0.00000000000E+00 -0.00000000000E+00 -0.49123649755E+02  0.49123649755E+02  0.00000000000E+00 0. -1.
          4    1    1    2  501    0  0.28909770932E+02 -0.10874283848E+02 -0.40691012851E+02  0.51109548339E+02  0.15500000000E+01 0.  1.
         -4    1    1    2    0  501 -0.28909770932E+02  0.10874283848E+02  0.70955801539E+02  0.77402539859E+02  0.15500000000E+01 0.  1.
<mgrwt>
<rscale>  2 0.12489756E+03</rscale>
<asrwt>0</asrwt>
<pdfrwt beam="1">  1       21 0.12213606E-01 0.12489756E+03</pdfrwt>
<pdfrwt beam="2">  1       21 0.75574846E-02 0.12489756E+03</pdfrwt>
<totfact> 0.73757225E+06</totfact>
</mgrwt>
</event>
<event>
 5    0  0.1410618E+000  0.1250095E+03  0.7546771E-02  0.1235054E+00
         21   -1    0    0  503  502  0.00000000000E+00  0.00000000000E+00  0.74492656837E+02  0.74492656837E+02  0.00000000000E+00 0.  1.
         21   -1    0    0  502  503 -0.00000000000E+00 -0.00000000000E+00 -0.52446007666E+02  0.52446007666E+02  0.00000000000E+00 0.  1.
         25    2    1    2    0    0  0.00000000000E+00  0.00000000000E+00  0.22046649170E+02  0.12693866450E+03  0.12500947887E+03 0.  0.
          4    1    3    3  501    0 -0.26123441580E+01  0.23258431709E+02 -0.47807470682E+02  0.53251626647E+02  0.15500000000E+01 0.  1.
         -4    1    3    3    0  501  0.26123441580E+01 -0.23258431709E+02  0.69854119852E+02  0.73687037855E+02  0.15500000000E+01 0.  1.
<mgrwt>
<rscale>  2 0.12500948E+03</rscale>
<asrwt>0</asrwt>
<pdfrwt beam="1">  1       21 0.11460409E-01 0.12500948E+03</pdfrwt>
<pdfrwt beam="2">  1       21 0.80686165E-02 0.12500948E+03</pdfrwt>
<totfact> 0.73759640E+06</totfact>
</mgrwt>
</event>
<event>
 5    0  0.1526379E+000  0.1250055E+03  0.7546771E-02  0.1235061E+00
         21   -1    0    0  503  502  0.00000000000E+00  0.00000000000E+00  0.12042694759E+03  0.12042694759E+03  0.00000000000E+00 0.  1.
         21   -1    0    0  502  503 -0.00000000000E+00 -0.00000000000E+00 -0.32439545979E+02  0.32439545979E+02  0.00000000000E+00 0.  1.
         25    2    1    2    0    0  0.00000000000E+00  0.00000000000E+00  0.87987401616E+02  0.15286649357E+03  0.12500552793E+03 0.  0.
          4    1    3    3  501    0 -0.51903468574E+02  0.21572491769E+02  0.10618978765E+02  0.57223313965E+02  0.15500000000E+01 0. -1.
         -4    1    3    3    0  501  0.51903468574E+02 -0.21572491769E+02  0.77368422851E+02  0.95643179608E+02  0.15500000000E+01 0. -1.
<mgrwt>
<rscale>  2 0.12500553E+03</rscale>
<asrwt>0</asrwt>
<pdfrwt beam="1">  1       21 0.18527222E-01 0.12500553E+03</pdfrwt>
<pdfrwt beam="2">  1       21 0.49906994E-02 0.12500553E+03</pdfrwt>
<totfact> 0.70391044E+06</totfact>
</mgrwt>
</event>
<event>
 5    0  0.1514944E+000  0.1249993E+03  0.7546771E-02  0.1235070E+00
         21   -1    0    0  503  502  0.00000000000E+00  0.00000000000E+00  0.20416801982E+02  0.20416801982E+02  0.00000000000E+00 0.  1.
         21   -1    0    0  502  503 -0.00000000000E+00 -0.00000000000E+00 -0.19132310536E+03  0.19132310536E+03  0.00000000000E+00 0.  1.
         25    2    1    2    0    0  0.00000000000E+00  0.00000000000E+00 -0.17090630338E+03  0.21173990734E+03  0.12499929531E+03 0.  0.
          4    1    3    3  501    0  0.20274653634E+02  0.35977923472E+02 -0.60309931420E+01  0.41764194421E+02  0.15500000000E+01 0. -1.
         -4    1    3    3    0  501 -0.20274653634E+02 -0.35977923472E+02 -0.16487531024E+03  0.16997571292E+03  0.15500000000E+01 0. -1.
<mgrwt>
<rscale>  2 0.12499930E+03</rscale>
<asrwt>0</asrwt>
<pdfrwt beam="1">  1       21 0.31410465E-02 0.12499930E+03</pdfrwt>
<pdfrwt beam="2">  1       21 0.29434323E-01 0.12499930E+03</pdfrwt>
<totfact> 0.63678076E+06</totfact>
</mgrwt>
</event>
<event>
 5    0  0.1222151E+000  0.1249990E+03  0.7546771E-02  0.1235071E+00
         21   -1    0    0  503  502  0.00000000000E+00  0.00000000000E+00  0.45438286514E+03  0.45438286514E+03  0.00000000000E+00 0.  1.
         21   -1    0    0  502  503 -0.00000000000E+00 -0.00000000000E+00 -0.85966883732E+01  0.85966883732E+01  0.00000000000E+00 0.  1.
         25    2    1    2    0    0  0.00000000000E+00  0.00000000000E+00  0.44578617676E+03  0.46297955351E+03  0.12499900630E+03 0.  0.
          4    1    3    3  501    0  0.21316922372E+01 -0.19985638395E+02  0.37752026093E+01  0.20509132322E+02  0.15500000000E+01 0. -1.
         -4    1    3    3    0  501 -0.21316922372E+01  0.19985638395E+02  0.44201097416E+03  0.44247042119E+03  0.15500000000E+01 0. -1.
<mgrwt>
<rscale>  2 0.12499901E+03</rscale>
<asrwt>0</asrwt>
<pdfrwt beam="1">  1       21 0.69905038E-01 0.12499901E+03</pdfrwt>
<pdfrwt beam="2">  1       21 0.13225678E-02 0.12499901E+03</pdfrwt>
<totfact> 0.44126751E+06</totfact>
</mgrwt>
</event>
<event>
 5    0  0.1222151E+000  0.1250007E+03  0.7546771E-02  0.1235068E+00
         21   -1    0    0  503  502  0.00000000000E+00  0.00000000000E+00  0.38327593367E+01  0.38327593367E+01  0.00000000000E+00 0. -1.
         21   -1    0    0  502  503 -0.00000000000E+00 -0.00000000000E+00 -0.10191864194E+04  0.10191864194E+04  0.00000000000E+00 0. -1.
         25    2    1    2    0    0  0.00000000000E+00  0.00000000000E+00 -0.10153536601E+04  0.10230191788E+04  0.12500074024E+03 0.  0.
          4    1    3    3  501    0 -0.41067050259E+02  0.19239064301E+02 -0.85942672453E+03  0.86062380954E+03  0.15500000000E+01 0.  1.
         -4    1    3    3    0  501  0.41067050259E+02 -0.19239064301E+02 -0.15592693558E+03  0.16239536925E+03  0.15500000000E+01 0.  1.
<mgrwt>
<rscale>  2 0.12500074E+03</rscale>
<asrwt>0</asrwt>
<pdfrwt beam="1">  1       21 0.58965582E-03 0.12500074E+03</pdfrwt>
<pdfrwt beam="2">  1       21 0.15679777E+00 0.12500074E+03</pdfrwt>
<totfact> 0.23048881E+06</totfact>
</mgrwt>
</event>
<event>
 5    0  0.1325043E+000  0.1249992E+03  0.7546771E-02  0.1235070E+00
         21   -1    0    0  503  502  0.00000000000E+00  0.00000000000E+00  0.10426281488E+02  0.10426281488E+02  0.00000000000E+00 0. -1.
         21   -1    0    0  502  503 -0.00000000000E+00 -0.00000000000E+00 -0.37464953743E+03  0.37464953743E+03  0.00000000000E+00 0. -1.
         25    2    1    2    0    0  0.00000000000E+00  0.00000000000E+00 -0.36422325594E+03  0.38507581891E+03  0.12499922458E+03 0.  0.
          4    1    3    3  501    0  0.20648916925E+02 -0.79229882081E+01 -0.20953122728E+01  0.22269807944E+02  0.15500000000E+01 0. -1.
         -4    1    3    3    0  501 -0.20648916925E+02  0.79229882081E+01 -0.36212794367E+03  0.36280601097E+03  0.15500000000E+01 0. -1.
<mgrwt>
<rscale>  2 0.12499922E+03</rscale>
<asrwt>0</asrwt>
<pdfrwt beam="1">  1       21 0.16040435E-02 0.12499922E+03</pdfrwt>
<pdfrwt beam="2">  1       21 0.57638384E-01 0.12499922E+03</pdfrwt>
<totfact> 0.49048222E+06</totfact>
</mgrwt>
</event>
<event>
 5    0  0.1599015E+000  0.1249986E+03  0.7546771E-02  0.1235071E+00
         21   -1    0    0  503  502  0.00000000000E+00  0.00000000000E+00  0.16968357300E+03  0.16968357300E+03  0.00000000000E+00 0. -1.
         21   -1    0    0  502  503 -0.00000000000E+00 -0.00000000000E+00 -0.23020282128E+02  0.23020282128E+02  0.00000000000E+00 0. -1.
         25    2    1    2    0    0  0.00000000000E+00  0.00000000000E+00  0.14666329087E+03  0.19270385513E+03  0.12499861956E+03 0.  0.
          4    1    3    3  501    0  0.49292252335E+01  0.60993747685E+02  0.92784938972E+02  0.11115746452E+03  0.15500000000E+01 0. -1.
         -4    1    3    3    0  501 -0.49292252335E+01 -0.60993747685E+02  0.53878351901E+02  0.81546390611E+02  0.15500000000E+01 0. -1.
<mgrwt>
<rscale>  2 0.12499862E+03</rscale>
<asrwt>0</asrwt>
<pdfrwt beam="1">  1       21 0.26105164E-01 0.12499862E+03</pdfrwt>
<pdfrwt beam="2">  1       21 0.35415820E-02 0.12499862E+03</pdfrwt>
<totfact> 0.65725508E+06</totfact>
</mgrwt>
</event>
<event>
 5    0  0.1577647E+000  0.1249879E+03  0.7546771E-02  0.1235088E+00
         21   -1    0    0  503  502  0.00000000000E+00  0.00000000000E+00  0.33212814694E+02  0.33212814694E+02  0.00000000000E+00 0.  1.
         21   -1    0    0  502  503 -0.00000000000E+00 -0.00000000000E+00 -0.11758987517E+03  0.11758987517E+03  0.00000000000E+00 0.  1.
         25    2    1    2    0    0  0.00000000000E+00  0.00000000000E+00 -0.84377060475E+02  0.15080268986E+03  0.12498785115E+03 0.  0.
          4    1    3    3  501    0  0.23953725000E+02 -0.52265195796E+02 -0.71684803415E+02  0.91905087855E+02  0.15500000000E+01 0.  1.
         -4    1    3    3    0  501 -0.23953725000E+02  0.52265195796E+02 -0.12692257059E+02  0.58897602007E+02  0.15500000000E+01 0.  1.
<mgrwt>
<rscale>  2 0.12498785E+03</rscale>
<asrwt>0</asrwt>
<pdfrwt beam="1">  1       21 0.51096637E-02 0.12498785E+03</pdfrwt>
<pdfrwt beam="2">  1       21 0.18090750E-01 0.12498785E+03</pdfrwt>
<totfact> 0.70680368E+06</totfact>
</mgrwt>
</event>
<event>
 5    0  0.1429876E+000  0.1250107E+03  0.7546771E-02  0.1235052E+00
         21   -1    0    0  503  502  0.00000000000E+00  0.00000000000E+00  0.31010160853E+03  0.31010160853E+03  0.00000000000E+00 0.  1.
         21   -1    0    0  502  503 -0.00000000000E+00 -0.00000000000E+00 -0.12598843422E+02  0.12598843422E+02  0.00000000000E+00 0.  1.
         25    2    1    2    0    0  0.00000000000E+00  0.00000000000E+00  0.29750276511E+03  0.32270045195E+03  0.12501074531E+03 0.  0.
          4    1    3    3  501    0  0.29586881764E+02  0.14909481406E+02  0.28551207223E+03  0.28743211737E+03  0.15500000000E+01 0. -1.
         -4    1    3    3    0  501 -0.29586881764E+02 -0.14909481406E+02  0.11990692878E+02  0.35268334580E+02  0.15500000000E+01 0. -1.
<mgrwt>
<rscale>  2 0.12501075E+03</rscale>
<asrwt>0</asrwt>
<pdfrwt beam="1">  1       21 0.47707934E-01 0.12501075E+03</pdfrwt>
<pdfrwt beam="2">  1       21 0.19382838E-02 0.12501075E+03</pdfrwt>
<totfact> 0.53605589E+06</totfact>
</mgrwt>
</event>
<event>
 5    0  0.1612263E+000  0.1249982E+03  0.7546771E-02  0.1235072E+00
         21   -1    0    0  503  502  0.00000000000E+00  0.00000000000E+00  0.40834292374E+02  0.40834292374E+02  0.00000000000E+00 0.  1.
         21   -1    0    0  502  503 -0.00000000000E+00 -0.00000000000E+00 -0.95658211288E+02  0.95658211288E+02  0.00000000000E+00 0.  1.
         25    2    1    2    0    0  0.00000000000E+00  0.00000000000E+00 -0.54823918914E+02  0.13649250366E+03  0.12499816587E+03 0.  0.
          4    1    3    3  501    0 -0.48559003490E+02  0.32549888734E+02 -0.51491033695E+02  0.77917912751E+02  0.15500000000E+01 0. -1.
         -4    1    3    3    0  501  0.48559003490E+02 -0.32549888734E+02 -0.33328852188E+01  0.58574590911E+02  0.15500000000E+01 0. -1.
<mgrwt>
<rscale>  2 0.12499817E+03</rscale>
<asrwt>0</asrwt>
<pdfrwt beam="1">  1       21 0.62821989E-02 0.12499817E+03</pdfrwt>
<pdfrwt beam="2">  1       21 0.14716648E-01 0.12499817E+03</pdfrwt>
<totfact> 0.72502844E+06</totfact>
</mgrwt>
</event>
<event>
 5    0  0.1483089E+000  0.1249919E+03  0.7546771E-02  0.1235082E+00
         21   -1    0    0  503  502  0.00000000000E+00  0.00000000000E+00  0.15239825209E+02  0.15239825209E+02  0.00000000000E+00 0. -1.
         21   -1    0    0  502  503 -0.00000000000E+00 -0.00000000000E+00 -0.25628537963E+03  0.25628537963E+03  0.00000000000E+00 0. -1.
         25    2    1    2    0    0  0.00000000000E+00  0.00000000000E+00 -0.24104555442E+03  0.27152520484E+03  0.12499190996E+03 0.  0.
          4    1    3    3  501    0 -0.38639972512E+02  0.29949876314E+01 -0.14070815741E+02  0.41260244574E+02  0.15500000000E+01 0.  1.
         -4    1    3    3    0  501  0.38639972512E+02 -0.29949876314E+01 -0.22697473868E+03  0.23026496027E+03  0.15500000000E+01 0.  1.
<mgrwt>
<rscale>  2 0.12499191E+03</rscale>
<asrwt>0</asrwt>
<pdfrwt beam="1">  1       21 0.23445886E-02 0.12499191E+03</pdfrwt>
<pdfrwt beam="2">  1       21 0.39428519E-01 0.12499191E+03</pdfrwt>
<totfact> 0.57920548E+06</totfact>
</mgrwt>
</event>
<event>
 5    0  0.1804991E+000  0.1249982E+03  0.7546771E-02  0.1235072E+00
         21   -1    0    0  503  502  0.00000000000E+00  0.00000000000E+00  0.47199405751E+02  0.47199405751E+02  0.00000000000E+00 0. -1.
         21   -1    0    0  502  503 -0.00000000000E+00 -0.00000000000E+00 -0.82758256518E+02  0.82758256518E+02  0.00000000000E+00 0. -1.
         25    2    1    2    0    0  0.00000000000E+00  0.00000000000E+00 -0.35558850767E+02  0.12995766227E+03  0.12499824845E+03 0.  0.
          4    1    3    3  501    0 -0.55663361753E+02 -0.21831448381E+01  0.11637377252E+02  0.56929842897E+02  0.15500000000E+01 0. -1.
         -4    1    3    3    0  501  0.55663361753E+02  0.21831448381E+01 -0.47196228019E+02  0.73027819372E+02  0.15500000000E+01 0. -1.
<mgrwt>
<rscale>  2 0.12499825E+03</rscale>
<asrwt>0</asrwt>
<pdfrwt beam="1">  1       21 0.72614471E-02 0.12499825E+03</pdfrwt>
<pdfrwt beam="2">  1       21 0.12732039E-01 0.12499825E+03</pdfrwt>
<totfact> 0.73373855E+06</totfact>
</mgrwt>
</event>
<event>
 5    0  0.1651062E+000  0.1249983E+03  0.7546771E-02  0.1235072E+00
         21   -1    0    0  503  502  0.00000000000E+00  0.00000000000E+00  0.10366639753E+03  0.10366639753E+03  0.00000000000E+00 0. -1.
         21   -1    0    0  502  503 -0.00000000000E+00 -0.00000000000E+00 -0.37679940562E+02  0.37679940562E+02  0.00000000000E+00 0. -1.
         25    2    1    2    0    0  0.00000000000E+00  0.00000000000E+00  0.65986456966E+02  0.14134633809E+03  0.12499829914E+03 0.  0.
          4    1    3    3  501    0 -0.55266451158E+02  0.66723518877E+01  0.65073298939E+02  0.85649504599E+02  0.15500000000E+01 0.  1.
         -4    1    3    3    0  501  0.55266451158E+02 -0.66723518877E+01  0.91315802757E+00  0.55696833491E+02  0.15500000000E+01 0.  1.
<mgrwt>
<rscale>  2 0.12499830E+03</rscale>
<asrwt>0</asrwt>
<pdfrwt beam="1">  1       21 0.15948676E-01 0.12499830E+03</pdfrwt>
<pdfrwt beam="2">  1       21 0.57969140E-02 0.12499830E+03</pdfrwt>
<totfact> 0.71867145E+06</totfact>
</mgrwt>
</event>
<event>
 5    0  0.1388897E+000  0.1249969E+03  0.7546771E-02  0.1235074E+00
         21   -1    0    0  503  502  0.00000000000E+00  0.00000000000E+00  0.19286378638E+02  0.19286378638E+02  0.00000000000E+00 0. -1.
         21   -1    0    0  502  503 -0.00000000000E+00 -0.00000000000E+00 -0.20252939437E+03  0.20252939437E+03  0.00000000000E+00 0. -1.
         25    2    1    2    0    0  0.00000000000E+00  0.00000000000E+00 -0.18324301573E+03  0.22181577301E+03  0.12499693732E+03 0.  0.
          4    1    3    3  501    0  0.46403402239E+01 -0.22355944183E+02 -0.19482665762E+03  0.19616612862E+03  0.15500000000E+01 0.  1.
         -4    1    3    3    0  501 -0.46403402239E+01  0.22355944183E+02  0.11583641892E+02  0.25649644387E+02  0.15500000000E+01 0.  1.
<mgrwt>
<rscale>  2 0.12499694E+03</rscale>
<asrwt>0</asrwt>
<pdfrwt beam="1">  1       21 0.29671353E-02 0.12499694E+03</pdfrwt>
<pdfrwt beam="2">  1       21 0.31158367E-01 0.12499694E+03</pdfrwt>
<totfact> 0.62642268E+06</totfact>
</mgrwt>
</event>
<event>
 5    0  0.1504306E+000  0.1250001E+03  0.7546771E-02  0.1235069E+00
         21   -1    0    0  503  502  0.00000000000E+00  0.00000000000E+00  0.77459837359E+02  0.77459837359E+02  0.00000000000E+00 0.  1.
         21   -1    0    0  502  503 -0.00000000000E+00 -0.00000000000E+00 -0.50429419935E+02  0.50429419935E+02  0.00000000000E+00 0.  1.
         25    2    1    2    0    0  0.00000000000E+00  0.00000000000E+00  0.27030417424E+02  0.12788925729E+03  0.12500007466E+03 0.  0.
          4    1    3    3  501    0  0.38905385798E+02 -0.20346429516E+02 -0.31967286964E+02  0.54331539404E+02  0.15500000000E+01 0.  1.
         -4    1    3    3    0  501 -0.38905385798E+02  0.20346429516E+02  0.58997704388E+02  0.73557717890E+02  0.15500000000E+01 0.  1.
<mgrwt>
<rscale>  2 0.12500007E+03</rscale>
<asrwt>0</asrwt>
<pdfrwt beam="1">  1       21 0.11916898E-01 0.12500007E+03</pdfrwt>
<pdfrwt beam="2">  1       21 0.77583723E-02 0.12500007E+03</pdfrwt>
<totfact> 0.73648384E+06</totfact>
</mgrwt>
</event>
<event>
 5    0  0.1222151E+000  0.1249963E+03  0.7546771E-02  0.1235075E+00
         21   -1    0    0  503  502  0.00000000000E+00  0.00000000000E+00  0.10618246292E+04  0.10618246292E+04  0.00000000000E+00 0.  1.
         21   -1    0    0  502  503 -0.00000000000E+00 -0.00000000000E+00 -0.36785940291E+01  0.36785940291E+01  0.00000000000E+00 0.  1.
         25    2    1    2    0    0  0.00000000000E+00  0.00000000000E+00  0.10581460352E+04  0.10655032233E+04  0.12499634780E+03 0.  0.
          4    1    3    3  501    0  0.32906783804E+02  0.12150968263E+02  0.96979672328E+03  0.97043216633E+03  0.15500000000E+01 0.  1.
         -4    1    3    3    0  501 -0.32906783804E+02 -0.12150968263E+02  0.88349311920E+02  0.95071056935E+02  0.15500000000E+01 0.  1.
<mgrwt>
<rscale>  2 0.12499635E+03</rscale>
<asrwt>0</asrwt>
<pdfrwt beam="1">  1       21 0.16335739E+00 0.12499635E+03</pdfrwt>
<pdfrwt beam="2">  1       21 0.56593839E-03 0.12499635E+03</pdfrwt>
<totfact> 0.22037408E+06</totfact>
</mgrwt>
</event>
<event>
 5    0  0.1492664E+000  0.1249991E+03  0.7546771E-02  0.1235071E+00
         21   -1    0    0  503  502  0.00000000000E+00  0.00000000000E+00  0.25606360280E+02  0.25606360280E+02  0.00000000000E+00 0. -1.
         21   -1    0    0  502  503 -0.00000000000E+00 -0.00000000000E+00 -0.15254787770E+03  0.15254787770E+03  0.00000000000E+00 0. -1.
         25    2    1    2    0    0  0.00000000000E+00  0.00000000000E+00 -0.12694151742E+03  0.17815423798E+03  0.12499913466E+03 0.  0.
          4    1    3    3  501    0 -0.48289138261E+02  0.96692769625E+01 -0.86691140692E+01  0.50028909939E+02  0.15500000000E+01 0. -1.
         -4    1    3    3    0  501  0.48289138261E+02 -0.96692769625E+01 -0.11827240335E+03  0.12812532804E+03  0.15500000000E+01 0. -1.
<mgrwt>
<rscale>  2 0.12499913E+03</rscale>
<asrwt>0</asrwt>
<pdfrwt beam="1">  1       21 0.39394401E-02 0.12499913E+03</pdfrwt>
<pdfrwt beam="2">  1       21 0.23468904E-01 0.12499913E+03</pdfrwt>
<totfact> 0.67365388E+06</totfact>
</mgrwt>
</event>
<event>
 5    0  0.1520991E+000  0.1249973E+03  0.7546771E-02  0.1235073E+00
         21   -1    0    0  503  502  0.00000000000E+00  0.00000000000E+00  0.27922078295E+02  0.27922078295E+02  0.00000000000E+00 0.  1.
         21   -1    0    0  502  503 -0.00000000000E+00 -0.00000000000E+00 -0.13989224514E+03  0.13989224514E+03  0.00000000000E+00 0.  1.
         25    2    1    2    0    0  0.00000000000E+00  0.00000000000E+00 -0.11197016684E+03  0.16781432343E+03  0.12499731552E+03 0.  0.
          4    1    3    3  501    0 -0.21884548775E+02  0.35317040284E+02 -0.11863243650E+03  0.12570713703E+03  0.15500000000E+01 0. -1.
         -4    1    3    3    0  501  0.21884548775E+02 -0.35317040284E+02  0.66622696631E+01  0.42107186401E+02  0.15500000000E+01 0. -1.
<mgrwt>
<rscale>  2 0.12499732E+03</rscale>
<asrwt>0</asrwt>
<pdfrwt beam="1">  1       21 0.42957044E-02 0.12499732E+03</pdfrwt>
<pdfrwt beam="2">  1       21 0.21521883E-01 0.12499732E+03</pdfrwt>
<totfact> 0.68581729E+06</totfact>
</mgrwt>
</event>
<event>
 5    0  0.1429290E+000  0.1250002E+03  0.7546771E-02  0.1235069E+00
         21   -1    0    0  503  502  0.00000000000E+00  0.00000000000E+00  0.13663916983E+02  0.13663916983E+02  0.00000000000E+00 0.  1.
         21   -1    0    0  502  503 -0.00000000000E+00 -0.00000000000E+00 -0.28588139668E+03  0.28588139668E+03  0.00000000000E+00 0.  1.
         25    2    1    2    0    0  0.00000000000E+00  0.00000000000E+00 -0.27221747970E+03  0.29954531366E+03  0.12500015474E+03 0.  0.
          4    1    3    3  501    0  0.76479425913E+01 -0.56807926209E+02 -0.19569216900E+03  0.20392022708E+03  0.15500000000E+01 0. -1.
         -4    1    3    3    0  501 -0.76479425913E+01  0.56807926209E+02 -0.76525310698E+02  0.95625086580E+02  0.15500000000E+01 0. -1.
<mgrwt>
<rscale>  2 0.12500015E+03</rscale>
<asrwt>0</asrwt>
<pdfrwt beam="1">  1       21 0.21021411E-02 0.12500015E+03</pdfrwt>
<pdfrwt beam="2">  1       21 0.43981752E-01 0.12500015E+03</pdfrwt>
<totfact> 0.55493765E+06</totfact>
</mgrwt>
</event>
<event>
 4    0  0.1222151E+000  0.1253315E+03  0.7546771E-02  0.1234552E+00
         21   -1    0    0  503  502  0.00000000000E+00  0.00000000000E+00  0.98395240508E+03  0.98395240508E+03  0.00000000000E+00 0.  1.
         21   -1    0    0  502  503 -0.00000000000E+00 -0.00000000000E+00 -0.39910454794E+01  0.39910454794E+01  0.00000000000E+00 0.  1.
          4    1    1    2  501    0 -0.20245115445E+02  0.23120535630E+02  0.92030154360E+03  0.92081581085E+03  0.15500000000E+01 0. -1.
         -4    1    1    2    0  501  0.20245115445E+02 -0.23120535630E+02  0.59659816006E+02  0.67127639710E+02  0.15500000000E+01 0. -1.
<mgrwt>
<rscale>  2 0.12533154E+03</rscale>
<asrwt>0</asrwt>
<pdfrwt beam="1">  1       21 0.15137710E+00 0.12533154E+03</pdfrwt>
<pdfrwt beam="2">  1       21 0.61400778E-03 0.12533154E+03</pdfrwt>
<totfact> 0.23727065E+06</totfact>
</mgrwt>
</event>
<event>
 5    0  0.1557645E+000  0.1249980E+03  0.7546771E-02  0.1235072E+00
         21   -1    0    0  503  502  0.00000000000E+00  0.00000000000E+00  0.22316344359E+02  0.22316344359E+02  0.00000000000E+00 0.  1.
         21   -1    0    0  502  503 -0.00000000000E+00 -0.00000000000E+00 -0.17503420133E+03  0.17503420133E+03  0.00000000000E+00 0.  1.
         25    2    1    2    0    0  0.00000000000E+00  0.00000000000E+00 -0.15271785697E+03  0.19735054569E+03  0.12499797617E+03 0.  0.
          4    1    3    3  501    0  0.80971066912E+01  0.52691157957E+02 -0.12780552620E+03  0.13848673687E+03  0.15500000000E+01 0.  1.
         -4    1    3    3    0  501 -0.80971066912E+01 -0.52691157957E+02 -0.24912330776E+02  0.58863808816E+02  0.15500000000E+01 0.  1.
<mgrwt>
<rscale>  2 0.12499798E+03</rscale>
<asrwt>0</asrwt>
<pdfrwt beam="1">  1       21 0.34332839E-02 0.12499798E+03</pdfrwt>
<pdfrwt beam="2">  1       21 0.26928338E-01 0.12499798E+03</pdfrwt>
<totfact> 0.65218020E+06</totfact>
</mgrwt>
</event>
<event>
 5    0  0.1222151E+000  0.1250021E+03  0.7546771E-02  0.1235066E+00
         21   -1    0    0  503  502  0.00000000000E+00  0.00000000000E+00  0.81346227811E+03  0.81346227811E+03  0.00000000000E+00 0. -1.
         21   -1    0    0  502  503 -0.00000000000E+00 -0.00000000000E+00 -0.48021636876E+01  0.48021636876E+01  0.00000000000E+00 0. -1.
         25    2    1    2    0    0  0.00000000000E+00  0.00000000000E+00  0.80866011442E+03  0.81826444180E+03  0.12500206419E+03 0.  0.
          4    1    3    3  501    0 -0.41306376661E+02  0.46349577892E+01  0.70970512272E+03  0.71092296580E+03  0.15500000000E+01 0.  1.
         -4    1    3    3    0  501  0.41306376661E+02 -0.46349577892E+01  0.98954991702E+02  0.10734147600E+03  0.15500000000E+01 0.  1.
<mgrwt>
<rscale>  2 0.12500206E+03</rscale>
<asrwt>0</asrwt>
<pdfrwt beam="1">  1       21 0.12514793E+00 0.12500206E+03</pdfrwt>
<pdfrwt beam="2">  1       21 0.73879506E-03 0.12500206E+03</pdfrwt>
<totfact> 0.28765097E+06</totfact>
</mgrwt>
</event>
<event>
 5    0  0.1591848E+000  0.1250097E+03  0.7546771E-02  0.1235054E+00
         21   -1    0    0  503  502  0.00000000000E+00  0.00000000000E+00  0.14603581889E+03  0.14603581889E+03  0.00000000000E+00 0.  1.
         21   -1    0    0  502  503 -0.00000000000E+00 -0.00000000000E+00 -0.26752711794E+02  0.26752711794E+02  0.00000000000E+00 0.  1.
         25    2    1    2    0    0  0.00000000000E+00  0.00000000000E+00  0.11928310710E+03  0.17278853068E+03  0.12500966642E+03 0.  0.
          4    1    3    3  501    0 -0.48778136274E+02  0.39020004195E+02  0.57419530583E+02  0.84860310500E+02  0.15500000000E+01 0.  1.
         -4    1    3    3    0  501  0.48778136274E+02 -0.39020004195E+02  0.61863576515E+02  0.87928220185E+02  0.15500000000E+01 0.  1.
<mgrwt>
<rscale>  2 0.12500967E+03</rscale>
<asrwt>0</asrwt>
<pdfrwt beam="1">  1       21 0.22467049E-01 0.12500967E+03</pdfrwt>
<pdfrwt beam="2">  1       21 0.41158019E-02 0.12500967E+03</pdfrwt>
<totfact> 0.67971922E+06</totfact>
</mgrwt>
</event>
<event>
 5    0  0.1471471E+000  0.1249948E+03  0.7546771E-02  0.1235077E+00
         21   -1    0    0  503  502  0.00000000000E+00  0.00000000000E+00  0.12752359659E+02  0.12752359659E+02  0.00000000000E+00 0.  1.
         21   -1    0    0  502  503 -0.00000000000E+00 -0.00000000000E+00 -0.30629046365E+03  0.30629046365E+03  0.00000000000E+00 0.  1.
         25    2    1    2    0    0  0.00000000000E+00  0.00000000000E+00 -0.29353810399E+03  0.31904282331E+03  0.12499481834E+03 0.  0.
          4    1    3    3  501    0 -0.30422535068E+02 -0.54524222545E+02 -0.14100358657E+03  0.15421684542E+03  0.15500000000E+01 0. -1.
         -4    1    3    3    0  501  0.30422535068E+02  0.54524222545E+02 -0.15253451742E+03  0.16482597789E+03  0.15500000000E+01 0. -1.
<mgrwt>
<rscale>  2 0.12499482E+03</rscale>
<asrwt>0</asrwt>
<pdfrwt beam="1">  1       21 0.19619015E-02 0.12499482E+03</pdfrwt>
<pdfrwt beam="2">  1       21 0.47121608E-01 0.12499482E+03</pdfrwt>
<totfact> 0.53916291E+06</totfact>
</mgrwt>
</event>
<event>
 5    0  0.1222151E+000  0.1250105E+03  0.7546771E-02  0.1235053E+00
         21   -1    0    0  503  502  0.00000000000E+00  0.00000000000E+00  0.23990087028E+01  0.23990087028E+01  0.00000000000E+00 0.  1.
         21   -1    0    0  502  503 -0.00000000000E+00 -0.00000000000E+00 -0.16285511653E+04  0.16285511653E+04  0.00000000000E+00 0.  1.
         25    2    1    2    0    0  0.00000000000E+00  0.00000000000E+00 -0.16261521566E+04  0.16309501740E+04  0.12501053425E+03 0.  0.
          4    1    3    3  501    0 -0.23945655168E+02 -0.34399840618E+02 -0.14177026205E+04  0.14183229062E+04  0.15500000000E+01 0.  1.
         -4    1    3    3    0  501  0.23945655168E+02  0.34399840618E+02 -0.20844953614E+03  0.21262726790E+03  0.15500000000E+01 0.  1.
<mgrwt>
<rscale>  2 0.12501053E+03</rscale>
<asrwt>0</asrwt>
<pdfrwt beam="1">  1       21 0.36907912E-03 0.12501053E+03</pdfrwt>
<pdfrwt beam="2">  1       21 0.25054575E+00 0.12501053E+03</pdfrwt>
<totfact> 0.12155167E+06</totfact>
</mgrwt>
</event>
<event>
 5    0  0.1478531E+000  0.1249903E+03  0.7546771E-02  0.1235085E+00
         21   -1    0    0  503  502  0.00000000000E+00  0.00000000000E+00  0.31195368715E+02  0.31195368715E+02  0.00000000000E+00 0.  1.
         21   -1    0    0  502  503 -0.00000000000E+00 -0.00000000000E+00 -0.12519938599E+03  0.12519938599E+03  0.00000000000E+00 0.  1.
         25    2    1    2    0    0  0.00000000000E+00  0.00000000000E+00 -0.94004017272E+02  0.15639475470E+03  0.12499025576E+03 0.  0.
          4    1    3    3  501    0 -0.18726934919E+02  0.41088790845E+02 -0.10102744689E+03  0.11067038606E+03  0.15500000000E+01 0. -1.
         -4    1    3    3    0  501  0.18726934919E+02 -0.41088790845E+02  0.70234296175E+01  0.45724368647E+02  0.15500000000E+01 0. -1.
<mgrwt>
<rscale>  2 0.12499026E+03</rscale>
<asrwt>0</asrwt>
<pdfrwt beam="1">  1       21 0.47992875E-02 0.12499026E+03</pdfrwt>
<pdfrwt beam="2">  1       21 0.19261444E-01 0.12499026E+03</pdfrwt>
<totfact> 0.69980064E+06</totfact>
</mgrwt>
</event>
<event>
 5    0  0.1493979E+000  0.1250017E+03  0.7546771E-02  0.1235067E+00
         21   -1    0    0  503  502  0.00000000000E+00  0.00000000000E+00  0.13405762968E+02  0.13405762968E+02  0.00000000000E+00 0. -1.
         21   -1    0    0  502  503 -0.00000000000E+00 -0.00000000000E+00 -0.29139359303E+03  0.29139359303E+03  0.00000000000E+00 0. -1.
         25    2    1    2    0    0  0.00000000000E+00  0.00000000000E+00 -0.27798783006E+03  0.30479935599E+03  0.12500165501E+03 0.  0.
          4    1    3    3  501    0  0.89263438441E+01  0.60559422374E+02 -0.10845809066E+03  0.12454992245E+03  0.15500000000E+01 0. -1.
         -4    1    3    3    0  501 -0.89263438441E+01 -0.60559422374E+02 -0.16952973940E+03  0.18024943355E+03  0.15500000000E+01 0. -1.
<mgrwt>
<rscale>  2 0.12500166E+03</rscale>
<asrwt>0</asrwt>
<pdfrwt beam="1">  1       21 0.20624251E-02 0.12500166E+03</pdfrwt>
<pdfrwt beam="2">  1       21 0.44829784E-01 0.12500166E+03</pdfrwt>
<totfact> 0.55057383E+06</totfact>
</mgrwt>
</event>
<event>
 5    0  0.1541400E+000  0.1250013E+03  0.7546771E-02  0.1235067E+00
         21   -1    0    0  503  502  0.00000000000E+00  0.00000000000E+00  0.23722031648E+03  0.23722031648E+03  0.00000000000E+00 0. -1.
         21   -1    0    0  502  503 -0.00000000000E+00 -0.00000000000E+00 -0.16467094257E+02  0.16467094257E+02  0.00000000000E+00 0. -1.
         25    2    1    2    0    0  0.00000000000E+00  0.00000000000E+00  0.22075322222E+03  0.25368741073E+03  0.12500126897E+03 0.  0.
          4    1    3    3  501    0 -0.18787417741E+02  0.53325514684E+02  0.16435270298E+03  0.17381251698E+03  0.15500000000E+01 0.  1.
         -4    1    3    3    0  501  0.18787417741E+02 -0.53325514684E+02  0.56400519235E+02  0.79874893751E+02  0.15500000000E+01 0.  1.
<mgrwt>
<rscale>  2 0.12500127E+03</rscale>
<asrwt>0</asrwt>
<pdfrwt beam="1">  1       21 0.36495431E-01 0.12500127E+03</pdfrwt>
<pdfrwt beam="2">  1       21 0.25333993E-02 0.12500127E+03</pdfrwt>
<totfact> 0.59530849E+06</totfact>
</mgrwt>
</event>
<event>
 5    0  0.1222151E+000  0.1249952E+03  0.7546771E-02  0.1235077E+00
         21   -1    0    0  503  502  0.00000000000E+00  0.00000000000E+00  0.32191939737E+04  0.32191939737E+04  0.00000000000E+00 0. -1.
         21   -1    0    0  502  503 -0.00000000000E+00 -0.00000000000E+00 -0.12133319011E+01  0.12133319011E+01  0.00000000000E+00 0. -1.
         25    2    1    2    0    0  0.00000000000E+00  0.00000000000E+00  0.32179806418E+04  0.32204073056E+04  0.12499521182E+03 0.  0.
          4    1    3    3  501    0 -0.15645317376E+02  0.53811815940E+02  0.89729028959E+03  0.89903990667E+03  0.15500000000E+01 0. -1.
         -4    1    3    3    0  501  0.15645317376E+02 -0.53811815940E+02  0.23206903522E+04  0.23213673989E+04  0.15500000000E+01 0. -1.
<mgrwt>
<rscale>  2 0.12499521E+03</rscale>
<asrwt>0</asrwt>
<pdfrwt beam="1">  1       21 0.49525377E+00 0.12499521E+03</pdfrwt>
<pdfrwt beam="2">  1       21 0.18666902E-03 0.12499521E+03</pdfrwt>
<totfact> 0.11369951E+05</totfact>
</mgrwt>
</event>
<event>
 5    0  0.1556396E+000  0.1249932E+03  0.7546771E-02  0.1235080E+00
         21   -1    0    0  503  502  0.00000000000E+00  0.00000000000E+00  0.46156433950E+02  0.46156433950E+02  0.00000000000E+00 0.  1.
         21   -1    0    0  502  503 -0.00000000000E+00 -0.00000000000E+00 -0.84621510098E+02  0.84621510098E+02  0.00000000000E+00 0.  1.
         25    2    1    2    0    0  0.00000000000E+00  0.00000000000E+00 -0.38465076149E+02  0.13077794405E+03  0.12499323408E+03 0.  0.
          4    1    3    3  501    0 -0.58156462417E+02  0.49961723555E+01 -0.42541086602E+02  0.72244601240E+02  0.15500000000E+01 0. -1.
         -4    1    3    3    0  501  0.58156462417E+02 -0.49961723555E+01  0.40760104531E+01  0.58533342808E+02  0.15500000000E+01 0. -1.
<mgrwt>
<rscale>  2 0.12499323E+03</rscale>
<asrwt>0</asrwt>
<pdfrwt beam="1">  1       21 0.71009900E-02 0.12499323E+03</pdfrwt>
<pdfrwt beam="2">  1       21 0.13018694E-01 0.12499323E+03</pdfrwt>
<totfact> 0.73273258E+06</totfact>
</mgrwt>
</event>
<event>
 5    0  0.1222151E+000  0.1250032E+03  0.7546771E-02  0.1235064E+00
         21   -1    0    0  503  502  0.00000000000E+00  0.00000000000E+00  0.45574651391E+01  0.45574651391E+01  0.00000000000E+00 0. -1.
         21   -1    0    0  502  503 -0.00000000000E+00 -0.00000000000E+00 -0.85715476170E+03  0.85715476170E+03  0.00000000000E+00 0. -1.
         25    2    1    2    0    0  0.00000000000E+00  0.00000000000E+00 -0.85259729656E+03  0.86171222684E+03  0.12500324708E+03 0.  0.
          4    1    3    3  501    0  0.61723192052E+02 -0.21502219107E+01 -0.36101933556E+03  0.36626730544E+03  0.15500000000E+01 0. -1.
         -4    1    3    3    0  501 -0.61723192052E+02  0.21502219107E+01 -0.49157796100E+03  0.49544492139E+03  0.15500000000E+01 0. -1.
<mgrwt>
<rscale>  2 0.12500325E+03</rscale>
<asrwt>0</asrwt>
<pdfrwt beam="1">  1       21 0.70114862E-03 0.12500325E+03</pdfrwt>
<pdfrwt beam="2">  1       21 0.13186994E+00 0.12500325E+03</pdfrwt>
<totfact> 0.27415038E+06</totfact>
</mgrwt>
</event>
<event>
 5    0  0.1222151E+000  0.1249991E+03  0.7546771E-02  0.1235071E+00
         21   -1    0    0  503  502  0.00000000000E+00  0.00000000000E+00  0.34046465238E+01  0.34046465238E+01  0.00000000000E+00 0. -1.
         21   -1    0    0  502  503 -0.00000000000E+00 -0.00000000000E+00 -0.11473124962E+04  0.11473124962E+04  0.00000000000E+00 0. -1.
         25    2    1    2    0    0  0.00000000000E+00  0.00000000000E+00 -0.11439078497E+04  0.11507171427E+04  0.12499909603E+03 0.  0.
          4    1    3    3  501    0 -0.25531255393E+02 -0.36304678767E+01 -0.10958576381E+04  0.10961621188E+04  0.15500000000E+01 0.  1.
         -4    1    3    3    0  501  0.25531255393E+02  0.36304678767E+01 -0.48050211618E+02  0.54555023925E+02  0.15500000000E+01 0.  1.
<mgrwt>
<rscale>  2 0.12499910E+03</rscale>
<asrwt>0</asrwt>
<pdfrwt beam="1">  1       21 0.52379161E-03 0.12499910E+03</pdfrwt>
<pdfrwt beam="2">  1       21 0.17650967E+00 0.12499910E+03</pdfrwt>
<totfact> 0.20154458E+06</totfact>
</mgrwt>
</event>
<event>
 5    0  0.1222151E+000  0.1250010E+03  0.7546771E-02  0.1235068E+00
         21   -1    0    0  503  502  0.00000000000E+00  0.00000000000E+00  0.30715786637E+04  0.30715786637E+04  0.00000000000E+00 0. -1.
         21   -1    0    0  502  503 -0.00000000000E+00 -0.00000000000E+00 -0.12717602600E+01  0.12717602600E+01  0.00000000000E+00 0. -1.
         25    2    1    2    0    0  0.00000000000E+00  0.00000000000E+00  0.30703069035E+04  0.30728504240E+04  0.12500098687E+03 0.  0.
          4    1    3    3  501    0 -0.51004225471E+02  0.35638144716E+02  0.13952250479E+04  0.13966126325E+04  0.15500000000E+01 0.  1.
         -4    1    3    3    0  501  0.51004225471E+02 -0.35638144716E+02  0.16750818555E+04  0.16762377915E+04  0.15500000000E+01 0.  1.
<mgrwt>
<rscale>  2 0.12500099E+03</rscale>
<asrwt>0</asrwt>
<pdfrwt beam="1">  1       21 0.47254462E+00 0.12500099E+03</pdfrwt>
<pdfrwt beam="2">  1       21 0.19565788E-03 0.12500099E+03</pdfrwt>
<totfact> 0.15149465E+05</totfact>
</mgrwt>
</event>
<event>
 5    0  0.1625623E+000  0.1249842E+03  0.7546771E-02  0.1235094E+00
         21   -1    0    0  503  502  0.00000000000E+00  0.00000000000E+00  0.80736546403E+02  0.80736546403E+02  0.00000000000E+00 0. -1.
         21   -1    0    0  502  503 -0.00000000000E+00 -0.00000000000E+00 -0.48370465078E+02  0.48370465078E+02  0.00000000000E+00 0. -1.
         25    2    1    2    0    0  0.00000000000E+00  0.00000000000E+00  0.32366081324E+02  0.12910701148E+03  0.12498422778E+03 0.  0.
          4    1    3    3  501    0 -0.56368306964E+02  0.23029792745E+02  0.30611772604E+02  0.68170671889E+02  0.15500000000E+01 0.  1.
         -4    1    3    3    0  501  0.56368306964E+02 -0.23029792745E+02  0.17543087207E+01  0.60936339592E+02  0.15500000000E+01 0.  1.
<mgrwt>
<rscale>  2 0.12498423E+03</rscale>
<asrwt>0</asrwt>
<pdfrwt beam="1">  1       21 0.12421007E-01 0.12498423E+03</pdfrwt>
<pdfrwt beam="2">  1       21 0.74416100E-02 0.12498423E+03</pdfrwt>
<totfact> 0.73514111E+06</totfact>
</mgrwt>
</event>
<event>
 5    0  0.1361886E+000  0.1250019E+03  0.7546771E-02  0.1235066E+00
         21   -1    0    0  503  502  0.00000000000E+00  0.00000000000E+00  0.17200126653E+02  0.17200126653E+02  0.00000000000E+00 0. -1.
         21   -1    0    0  502  503 -0.00000000000E+00 -0.00000000000E+00 -0.22711291818E+03  0.22711291818E+03  0.00000000000E+00 0. -1.
         25    2    1    2    0    0  0.00000000000E+00  0.00000000000E+00 -0.20991279152E+03  0.24431304483E+03  0.12500193530E+03 0.  0.
          4    1    3    3  501    0  0.16331679741E+02  0.14051830764E+02  0.96729810367E+01  0.23667420078E+02  0.15500000000E+01 0. -1.
         -4    1    3    3    0  501 -0.16331679741E+02 -0.14051830764E+02 -0.21958577256E+03  0.22064562475E+03  0.15500000000E+01 0. -1.
<mgrwt>
<rscale>  2 0.12500194E+03</rscale>
<asrwt>0</asrwt>
<pdfrwt beam="1">  1       21 0.26461732E-02 0.12500194E+03</pdfrwt>
<pdfrwt beam="2">  1       21 0.34940450E-01 0.12500194E+03</pdfrwt>
<totfact> 0.60414829E+06</totfact>
</mgrwt>
</event>
<event>
 5    0  0.1415099E+000  0.1250029E+03  0.7546771E-02  0.1235065E+00
         21   -1    0    0  503  502  0.00000000000E+00  0.00000000000E+00  0.22014291501E+02  0.22014291501E+02  0.00000000000E+00 0. -1.
         21   -1    0    0  502  503 -0.00000000000E+00 -0.00000000000E+00 -0.17744967984E+03  0.17744967984E+03  0.00000000000E+00 0. -1.
         25    2    1    2    0    0  0.00000000000E+00  0.00000000000E+00 -0.15543538834E+03  0.19946397135E+03  0.12500286363E+03 0.  0.
          4    1    3    3  501    0  0.19725302771E+02 -0.23679592408E+02  0.90115594006E+01  0.32146871836E+02  0.15500000000E+01 0. -1.
         -4    1    3    3    0  501 -0.19725302771E+02  0.23679592408E+02 -0.16444694774E+03  0.16731709951E+03  0.15500000000E+01 0. -1.
<mgrwt>
<rscale>  2 0.12500286E+03</rscale>
<asrwt>0</asrwt>
<pdfrwt beam="1">  1       21 0.33868141E-02 0.12500286E+03</pdfrwt>
<pdfrwt beam="2">  1       21 0.27299951E-01 0.12500286E+03</pdfrwt>
<totfact> 0.64980669E+06</totfact>
</mgrwt>
</event>
<event>
 5    0  0.1362823E+000  0.1249926E+03  0.7546771E-02  0.1235081E+00
         21   -1    0    0  503  502  0.00000000000E+00  0.00000000000E+00  0.30215441858E+02  0.30215441858E+02  0.00000000000E+00 0. -1.
         21   -1    0    0  502  503 -0.00000000000E+00 -0.00000000000E+00 -0.12926470837E+03  0.12926470837E+03  0.00000000000E+00 0. -1.
         25    2    1    2    0    0  0.00000000000E+00  0.00000000000E+00 -0.99049266509E+02  0.15948015023E+03  0.12499264426E+03 0.  0.
          4    1    3    3  501    0 -0.22599203030E+02  0.82555152010E+01 -0.12309213696E+03  0.12543107346E+03  0.15500000000E+01 0.  1.
         -4    1    3    3    0  501  0.22599203030E+02 -0.82555152010E+01  0.24042870451E+02  0.34049076762E+02  0.15500000000E+01 0.  1.
<mgrwt>
<rscale>  2 0.12499264E+03</rscale>
<asrwt>0</asrwt>
<pdfrwt beam="1">  1       21 0.46485296E-02 0.12499264E+03</pdfrwt>
<pdfrwt beam="2">  1       21 0.19886878E-01 0.12499264E+03</pdfrwt>
<totfact> 0.69596087E+06</totfact>
</mgrwt>
</event>
<event>
 5    0  0.1679586E+000  0.1249976E+03  0.7546771E-02  0.1235073E+00
         21   -1    0    0  503  502  0.00000000000E+00  0.00000000000E+00  0.12984648908E+03  0.12984648908E+03  0.00000000000E+00 0.  1.
         21   -1    0    0  502  503 -0.00000000000E+00 -0.00000000000E+00 -0.30082436255E+02  0.30082436255E+02  0.00000000000E+00 0.  1.
         25    2    1    2    0    0  0.00000000000E+00  0.00000000000E+00  0.99764052822E+02  0.15992892533E+03  0.12499757967E+03 0.  0.
          4    1    3    3  501    0 -0.25778746978E+01  0.61843576502E+02  0.60770404304E+02  0.86756659294E+02  0.15500000000E+01 0. -1.
         -4    1    3    3    0  501  0.25778746978E+01 -0.61843576502E+02  0.38993648518E+02  0.73172266039E+02  0.15500000000E+01 0. -1.
<mgrwt>
<rscale>  2 0.12499758E+03</rscale>
<asrwt>0</asrwt>
<pdfrwt beam="1">  1       21 0.19976383E-01 0.12499758E+03</pdfrwt>
<pdfrwt beam="2">  1       21 0.46280672E-02 0.12499758E+03</pdfrwt>
<totfact> 0.69532460E+06</totfact>
</mgrwt>
</event>
<event>
 5    0  0.1740464E+000  0.1249996E+03  0.7546771E-02  0.1235070E+00
         21   -1    0    0  503  502  0.00000000000E+00  0.00000000000E+00  0.11583508728E+02  0.11583508728E+02  0.00000000000E+00 0. -1.
         21   -1    0    0  502  503 -0.00000000000E+00 -0.00000000000E+00 -0.33722319451E+03  0.33722319451E+03  0.00000000000E+00 0. -1.
         25    2    1    2    0    0  0.00000000000E+00  0.00000000000E+00 -0.32563968578E+03  0.34880670323E+03  0.12499964507E+03 0.  0.
          4    1    3    3  501    0 -0.62144419641E+02 -0.28562038671E+01 -0.14661148260E+03  0.15927151698E+03  0.15500000000E+01 0.  1.
         -4    1    3    3    0  501  0.62144419641E+02  0.28562038671E+01 -0.17902820318E+03  0.18953518625E+03  0.15500000000E+01 0.  1.
<mgrwt>
<rscale>  2 0.12499965E+03</rscale>
<asrwt>0</asrwt>
<pdfrwt beam="1">  1       21 0.17820784E-02 0.12499965E+03</pdfrwt>
<pdfrwt beam="2">  1       21 0.51880487E-01 0.12499965E+03</pdfrwt>
<totfact> 0.51627142E+06</totfact>
</mgrwt>
</event>
<event>
 5    0  0.1505390E+000  0.1249986E+03  0.7546771E-02  0.1235072E+00
         21   -1    0    0  503  502  0.00000000000E+00  0.00000000000E+00  0.16565321460E+03  0.16565321460E+03  0.00000000000E+00 0.  1.
         21   -1    0    0  502  503 -0.00000000000E+00 -0.00000000000E+00 -0.23580344248E+02  0.23580344248E+02  0.00000000000E+00 0.  1.
         25    2    1    2    0    0  0.00000000000E+00  0.00000000000E+00  0.14207287035E+03  0.18923355885E+03  0.12499855721E+03 0.  0.
          4    1    3    3  501    0 -0.30767788854E+02 -0.51814296239E+02  0.46051390688E+02  0.75858494647E+02  0.15500000000E+01 0. -1.
         -4    1    3    3    0  501  0.30767788854E+02  0.51814296239E+02  0.96021479665E+02  0.11337506420E+03  0.15500000000E+01 0. -1.
<mgrwt>
<rscale>  2 0.12499856E+03</rscale>
<asrwt>0</asrwt>
<pdfrwt beam="1">  1       21 0.25485109E-01 0.12499856E+03</pdfrwt>
<pdfrwt beam="2">  1       21 0.36277454E-02 0.12499856E+03</pdfrwt>
<totfact> 0.66110165E+06</totfact>
</mgrwt>
</event>
<event>
 5    0  0.1470137E+000  0.1249986E+03  0.7546771E-02  0.1235071E+00
         21   -1    0    0  503  502  0.00000000000E+00  0.00000000000E+00  0.16317202248E+03  0.16317202248E+03  0.00000000000E+00 0.  1.
         21   -1    0    0  502  503 -0.00000000000E+00 -0.00000000000E+00 -0.23938936685E+02  0.23938936685E+02  0.00000000000E+00 0.  1.
         25    2    1    2    0    0  0.00000000000E+00  0.00000000000E+00  0.13923308580E+03  0.18711095916E+03  0.12499863543E+03 0.  0.
          4    1    3    3  501    0  0.37206888228E+02 -0.38740965431E+02  0.21843319003E+02  0.58006448083E+02  0.15500000000E+01 0. -1.
         -4    1    3    3    0  501 -0.37206888228E+02  0.38740965431E+02  0.11738976679E+03  0.12910451108E+03  0.15500000000E+01 0. -1.
<mgrwt>
<rscale>  2 0.12499864E+03</rscale>
<asrwt>0</asrwt>
<pdfrwt beam="1">  1       21 0.25103387E-01 0.12499864E+03</pdfrwt>
<pdfrwt beam="2">  1       21 0.36829134E-02 0.12499864E+03</pdfrwt>
<totfact> 0.66347298E+06</totfact>
</mgrwt>
</event>
<event>
 5    0  0.1408607E+000  0.1249949E+03  0.7546771E-02  0.1235077E+00
         21   -1    0    0  503  502  0.00000000000E+00  0.00000000000E+00  0.10484123269E+02  0.10484123269E+02  0.00000000000E+00 0.  1.
         21   -1    0    0  502  503 -0.00000000000E+00 -0.00000000000E+00 -0.37255653826E+03  0.37255653826E+03  0.00000000000E+00 0.  1.
         25    2    1    2    0    0  0.00000000000E+00  0.00000000000E+00 -0.36207241499E+03  0.38304066153E+03  0.12499485864E+03 0.  0.
          4    1    3    3  501    0  0.22343760494E+02 -0.50810927609E+02 -0.26892412550E+03  0.27459712630E+03  0.15500000000E+01 0. -1.
         -4    1    3    3    0  501 -0.22343760494E+02  0.50810927609E+02 -0.93148289498E+02  0.10844353523E+03  0.15500000000E+01 0. -1.
<mgrwt>
<rscale>  2 0.12499486E+03</rscale>
<asrwt>0</asrwt>
<pdfrwt beam="1">  1       21 0.16129420E-02 0.12499486E+03</pdfrwt>
<pdfrwt beam="2">  1       21 0.57316390E-01 0.12499486E+03</pdfrwt>
<totfact> 0.49193295E+06</totfact>
</mgrwt>
</event>
<event>
 5    0  0.1496287E+000  0.1249960E+03  0.7546771E-02  0.1235075E+00
         21   -1    0    0  503  502  0.00000000000E+00  0.00000000000E+00  0.18161969319E+02  0.18161969319E+02  0.00000000000E+00 0. -1.
         21   -1    0    0  502  503 -0.00000000000E+00 -0.00000000000E+00 -0.21506493073E+03  0.21506493073E+03  0.00000000000E+00 0. -1.
         25    2    1    2    0    0  0.00000000000E+00  0.00000000000E+00 -0.19690296141E+03  0.23322690005E+03  0.12499604271E+03 0.  0.
          4    1    3    3  501    0 -0.40973174949E+02  0.30981744777E+02 -0.16481290907E+03  0.17263941344E+03  0.15500000000E+01 0. -1.
         -4    1    3    3    0  501  0.40973174949E+02 -0.30981744777E+02 -0.32090052337E+02  0.60587486611E+02  0.15500000000E+01 0. -1.
<mgrwt>
<rscale>  2 0.12499604E+03</rscale>
<asrwt>0</asrwt>
<pdfrwt beam="1">  1       21 0.27941490E-02 0.12499604E+03</pdfrwt>
<pdfrwt beam="2">  1       21 0.33086913E-01 0.12499604E+03</pdfrwt>
<totfact> 0.61500446E+06</totfact>
</mgrwt>
</event>
<event>
 5    0  0.1621208E+000  0.1250005E+03  0.7546771E-02  0.1235068E+00
         21   -1    0    0  503  502  0.00000000000E+00  0.00000000000E+00  0.95165601841E+02  0.95165601841E+02  0.00000000000E+00 0.  1.
         21   -1    0    0  502  503 -0.00000000000E+00 -0.00000000000E+00 -0.41047229565E+02  0.41047229565E+02  0.00000000000E+00 0.  1.
         25    2    1    2    0    0  0.00000000000E+00  0.00000000000E+00  0.54118372276E+02  0.13621283141E+03  0.12500054889E+03 0.  0.
          4    1    3    3  501    0  0.27948523769E+02  0.55384561740E+02  0.35163501877E+02  0.71326320698E+02  0.15500000000E+01 0. -1.
         -4    1    3    3    0  501 -0.27948523769E+02 -0.55384561740E+02  0.18954870399E+02  0.64886510708E+02  0.15500000000E+01 0. -1.
<mgrwt>
<rscale>  2 0.12500055E+03</rscale>
<asrwt>0</asrwt>
<pdfrwt beam="1">  1       21 0.14640862E-01 0.12500055E+03</pdfrwt>
<pdfrwt beam="2">  1       21 0.63149584E-02 0.12500055E+03</pdfrwt>
<totfact> 0.72535266E+06</totfact>
</mgrwt>
</event>
<event>
 5    0  0.1600472E+000  0.1250178E+03  0.7546771E-02  0.1235042E+00
         21   -1    0    0  503  502  0.00000000000E+00  0.00000000000E+00  0.45516500037E+02  0.45516500037E+02  0.00000000000E+00 0.  1.
         21   -1    0    0  502  503 -0.00000000000E+00 -0.00000000000E+00 -0.85844913948E+02  0.85844913948E+02  0.00000000000E+00 0.  1.
         25    2    1    2    0    0  0.00000000000E+00  0.00000000000E+00 -0.40328413910E+02  0.13136141398E+03  0.12501775920E+03 0.  0.
          4    1    3    3  501    0 -0.17576991609E+02 -0.59931505622E+02 -0.18005314644E+02  0.65017919496E+02  0.15500000000E+01 0. -1.
         -4    1    3    3    0  501  0.17576991609E+02  0.59931505622E+02 -0.22323099266E+02  0.66343494489E+02  0.15500000000E+01 0. -1.
<mgrwt>
<rscale>  2 0.12501776E+03</rscale>
<asrwt>0</asrwt>
<pdfrwt beam="1">  1       21 0.70025385E-02 0.12501776E+03</pdfrwt>
<pdfrwt beam="2">  1       21 0.13206910E-01 0.12501776E+03</pdfrwt>
<totfact> 0.73148863E+06</totfact>
</mgrwt>
</event>
<event>
 5    0  0.1542495E+000  0.1249963E+03  0.7546771E-02  0.1235075E+00
         21   -1    0    0  503  502  0.00000000000E+00  0.00000000000E+00  0.23877858372E+02  0.23877858372E+02  0.00000000000E+00 0.  1.
         21   -1    0    0  502  503 -0.00000000000E+00 -0.00000000000E+00 -0.16358334386E+03  0.16358334386E+03  0.00000000000E+00 0.  1.
         25    2    1    2    0    0  0.00000000000E+00  0.00000000000E+00 -0.13970548549E+03  0.18746120223E+03  0.12499631861E+03 0.  0.
          4    1    3    3  501    0 -0.58543951496E+02 -0.13007008645E+02 -0.96131951258E+02  0.11331518470E+03  0.15500000000E+01 0. -1.
         -4    1    3    3    0  501  0.58543951496E+02  0.13007008645E+02 -0.43573534229E+02  0.74146017532E+02  0.15500000000E+01 0. -1.
<mgrwt>
<rscale>  2 0.12499632E+03</rscale>
<asrwt>0</asrwt>
<pdfrwt beam="1">  1       21 0.36735166E-02 0.12499632E+03</pdfrwt>
<pdfrwt beam="2">  1       21 0.25166669E-01 0.12499632E+03</pdfrwt>
<totfact> 0.66311932E+06</totfact>
</mgrwt>
</event>
<event>
 5    0  0.1355055E+000  0.1250079E+03  0.7546771E-02  0.1235057E+00
         21   -1    0    0  503  502  0.00000000000E+00  0.00000000000E+00  0.93337087392E+01  0.93337087392E+01  0.00000000000E+00 0.  1.
         21   -1    0    0  502  503 -0.00000000000E+00 -0.00000000000E+00 -0.41856263872E+03  0.41856263872E+03  0.00000000000E+00 0.  1.
         25    2    1    2    0    0  0.00000000000E+00  0.00000000000E+00 -0.40922892998E+03  0.42789634746E+03  0.12500786790E+03 0.  0.
          4    1    3    3  501    0  0.40703294123E+02  0.41562373213E+02 -0.12654779892E+03  0.13928724612E+03  0.15500000000E+01 0.  1.
         -4    1    3    3    0  501 -0.40703294123E+02 -0.41562373213E+02 -0.28268113106E+03  0.28860910134E+03  0.15500000000E+01 0.  1.
<mgrwt>
<rscale>  2 0.12500787E+03</rscale>
<asrwt>0</asrwt>
<pdfrwt beam="1">  1       21 0.14359558E-02 0.12500787E+03</pdfrwt>
<pdfrwt beam="2">  1       21 0.64394224E-01 0.12500787E+03</pdfrwt>
<totfact> 0.46235362E+06</totfact>
</mgrwt>
</event>
<event>
 5    0  0.1222151E+000  0.1250002E+03  0.7546771E-02  0.1235069E+00
         21   -1    0    0  503  502  0.00000000000E+00  0.00000000000E+00  0.39225732310E+01  0.39225732310E+01  0.00000000000E+00 0. -1.
         21   -1    0    0  502  503 -0.00000000000E+00 -0.00000000000E+00 -0.99584188497E+03  0.99584188497E+03  0.00000000000E+00 0. -1.
         25    2    1    2    0    0  0.00000000000E+00  0.00000000000E+00 -0.99191931173E+03  0.99976445820E+03  0.12500020352E+03 0.  0.
          4    1    3    3  501    0  0.17381045979E+02  0.44271840439E+02 -0.82003223486E+03  0.82141181226E+03  0.15500000000E+01 0.  1.
         -4    1    3    3    0  501 -0.17381045979E+02 -0.44271840439E+02 -0.17188707688E+03  0.17835264594E+03  0.15500000000E+01 0.  1.
<mgrwt>
<rscale>  2 0.12500020E+03</rscale>
<asrwt>0</asrwt>
<pdfrwt beam="1">  1       21 0.60347218E-03 0.12500020E+03</pdfrwt>
<pdfrwt beam="2">  1       21 0.15320660E+00 0.12500020E+03</pdfrwt>
<totfact> 0.23624431E+06</totfact>
</mgrwt>
</event>
<event>
 5    0  0.1587700E+000  0.1250404E+03  0.7546771E-02  0.1235006E+00
         21   -1    0    0  503  502  0.00000000000E+00  0.00000000000E+00  0.76285046207E+02  0.76285046207E+02  0.00000000000E+00 0.  1.
         21   -1    0    0  502  503 -0.00000000000E+00 -0.00000000000E+00 -0.51239068600E+02  0.51239068600E+02  0.00000000000E+00 0.  1.
         25    2    1    2    0    0  0.00000000000E+00  0.00000000000E+00  0.25045977607E+02  0.12752411481E+03  0.12504038893E+03 0.  0.
          4    1    3    3  501    0  0.58886434478E+02  0.18931290753E+02  0.33801947588E+01  0.61966395342E+02  0.15500000000E+01 0.  1.
         -4    1    3    3    0  501 -0.58886434478E+02 -0.18931290753E+02  0.21665782848E+02  0.65557719465E+02  0.15500000000E+01 0.  1.
<mgrwt>
<rscale>  2 0.12504039E+03</rscale>
<asrwt>0</asrwt>
<pdfrwt beam="1">  1       21 0.11736161E-01 0.12504039E+03</pdfrwt>
<pdfrwt beam="2">  1       21 0.78829336E-02 0.12504039E+03</pdfrwt>
<totfact> 0.73622012E+06</totfact>
</mgrwt>
</event>
<event>
 5    0  0.1534608E+000  0.1250007E+03  0.7546771E-02  0.1235068E+00
         21   -1    0    0  503  502  0.00000000000E+00  0.00000000000E+00  0.10643785450E+03  0.10643785450E+03  0.00000000000E+00 0. -1.
         21   -1    0    0  502  503 -0.00000000000E+00 -0.00000000000E+00 -0.36700208291E+02  0.36700208291E+02  0.00000000000E+00 0. -1.
         25    2    1    2    0    0  0.00000000000E+00  0.00000000000E+00  0.69737646207E+02  0.14313806279E+03  0.12500066288E+03 0.  0.
          4    1    3    3  501    0 -0.28011439691E+02  0.54948211161E+01 -0.28774910300E+02  0.40561456772E+02  0.15500000000E+01 0.  1.
         -4    1    3    3    0  501  0.28011439691E+02 -0.54948211161E+01  0.98512556507E+02  0.10257660602E+03  0.15500000000E+01 0.  1.
<mgrwt>
<rscale>  2 0.12500066E+03</rscale>
<asrwt>0</asrwt>
<pdfrwt beam="1">  1       21 0.16375054E-01 0.12500066E+03</pdfrwt>
<pdfrwt beam="2">  1       21 0.56461860E-02 0.12500066E+03</pdfrwt>
<totfact> 0.71631032E+06</totfact>
</mgrwt>
</event>
<event>
 5    0  0.1338161E+000  0.1249927E+03  0.7546771E-02  0.1235081E+00
         21   -1    0    0  503  502  0.00000000000E+00  0.00000000000E+00  0.72107385307E+01  0.72107385307E+01  0.00000000000E+00 0.  1.
         21   -1    0    0  502  503 -0.00000000000E+00 -0.00000000000E+00 -0.54166356177E+03  0.54166356177E+03  0.00000000000E+00 0.  1.
         25    2    1    2    0    0  0.00000000000E+00  0.00000000000E+00 -0.53445282324E+03  0.54887430030E+03  0.12499270884E+03 0.  0.
          4    1    3    3  501    0 -0.59497314069E+02  0.10816058026E+02 -0.19828597059E+03  0.20730809469E+03  0.15500000000E+01 0. -1.
         -4    1    3    3    0  501  0.59497314069E+02 -0.10816058026E+02 -0.33616685265E+03  0.34156620561E+03  0.15500000000E+01 0. -1.
<mgrwt>
<rscale>  2 0.12499271E+03</rscale>
<asrwt>0</asrwt>
<pdfrwt beam="1">  1       21 0.11093445E-02 0.12499271E+03</pdfrwt>
<pdfrwt beam="2">  1       21 0.83332849E-01 0.12499271E+03</pdfrwt>
<totfact> 0.39518922E+06</totfact>
</mgrwt>
</event>
<event>
 5    0  0.1222151E+000  0.1249298E+03  0.7546771E-02  0.1235179E+00
         21   -1    0    0  503  502  0.00000000000E+00  0.00000000000E+00  0.69652460305E+03  0.69652460305E+03  0.00000000000E+00 0. -1.
         21   -1    0    0  502  503 -0.00000000000E+00 -0.00000000000E+00 -0.56018999317E+01  0.56018999317E+01  0.00000000000E+00 0. -1.
         25    2    1    2    0    0  0.00000000000E+00  0.00000000000E+00  0.69092270312E+03  0.70212650298E+03  0.12492975828E+03 0.  0.
          4    1    3    3  501    0  0.74724724433E+01 -0.40220148865E+02  0.80301245226E+02  0.90134292608E+02  0.15500000000E+01 0.  1.
         -4    1    3    3    0  501 -0.74724724433E+01  0.40220148865E+02  0.61062145790E+03  0.61199221038E+03  0.15500000000E+01 0.  1.
<mgrwt>
<rscale>  2 0.12492976E+03</rscale>
<asrwt>0</asrwt>
<pdfrwt beam="1">  1       21 0.10715756E+00 0.12492976E+03</pdfrwt>
<pdfrwt beam="2">  1       21 0.86183131E-03 0.12492976E+03</pdfrwt>
<totfact> 0.32885561E+06</totfact>
</mgrwt>
</event>
<event>
 5    0  0.1222151E+000  0.1249987E+03  0.7546771E-02  0.1235071E+00
         21   -1    0    0  503  502  0.00000000000E+00  0.00000000000E+00  0.95601662963E+03  0.95601662963E+03  0.00000000000E+00 0.  1.
         21   -1    0    0  502  503 -0.00000000000E+00 -0.00000000000E+00 -0.40858795177E+01  0.40858795177E+01  0.00000000000E+00 0.  1.
         25    2    1    2    0    0  0.00000000000E+00  0.00000000000E+00  0.95193075011E+03  0.96010250915E+03  0.12499870024E+03 0.  0.
          4    1    3    3  501    0 -0.29351575259E+02 -0.26050213578E+02  0.84938966060E+03  0.85029719900E+03  0.15500000000E+01 0.  1.
         -4    1    3    3    0  501  0.29351575259E+02  0.26050213578E+02  0.10254108951E+03  0.10980531014E+03  0.15500000000E+01 0.  1.
<mgrwt>
<rscale>  2 0.12499870E+03</rscale>
<asrwt>0</asrwt>
<pdfrwt beam="1">  1       21 0.14707930E+00 0.12499870E+03</pdfrwt>
<pdfrwt beam="2">  1       21 0.62859761E-03 0.12499870E+03</pdfrwt>
<totfact> 0.24643682E+06</totfact>
</mgrwt>
</event>
<event>
 5    0  0.1567305E+000  0.1250003E+03  0.7546771E-02  0.1235069E+00
         21   -1    0    0  503  502  0.00000000000E+00  0.00000000000E+00  0.18393481425E+02  0.18393481425E+02  0.00000000000E+00 0. -1.
         21   -1    0    0  502  503 -0.00000000000E+00 -0.00000000000E+00 -0.21237241479E+03  0.21237241479E+03  0.00000000000E+00 0. -1.
         25    2    1    2    0    0  0.00000000000E+00  0.00000000000E+00 -0.19397893336E+03  0.23076589621E+03  0.12500028907E+03 0.  0.
          4    1    3    3  501    0  0.34948471582E+02  0.49553284469E+02 -0.12480055293E+03  0.13876060024E+03  0.15500000000E+01 0.  1.
         -4    1    3    3    0  501 -0.34948471582E+02 -0.49553284469E+02 -0.69178380433E+02  0.92005295972E+02  0.15500000000E+01 0.  1.
<mgrwt>
<rscale>  2 0.12500029E+03</rscale>
<asrwt>0</asrwt>
<pdfrwt beam="1">  1       21 0.28297662E-02 0.12500029E+03</pdfrwt>
<pdfrwt beam="2">  1       21 0.32672681E-01 0.12500029E+03</pdfrwt>
<totfact> 0.61737390E+06</totfact>
</mgrwt>
</event>
<event>
 5    0  0.1370586E+000  0.1249994E+03  0.7546771E-02  0.1235070E+00
         21   -1    0    0  503  502  0.00000000000E+00  0.00000000000E+00  0.48113481313E+03  0.48113481313E+03  0.00000000000E+00 0.  1.
         21   -1    0    0  502  503 -0.00000000000E+00 -0.00000000000E+00 -0.81187497543E+01  0.81187497543E+01  0.00000000000E+00 0.  1.
         25    2    1    2    0    0  0.00000000000E+00  0.00000000000E+00  0.47301606337E+03  0.48925356288E+03  0.12499941033E+03 0.  0.
          4    1    3    3  501    0  0.37486961978E+02  0.32814024876E+02  0.88923125775E+02  0.10193996932E+03  0.15500000000E+01 0.  1.
         -4    1    3    3    0  501 -0.37486961978E+02 -0.32814024876E+02  0.38409293760E+03  0.38731359357E+03  0.15500000000E+01 0.  1.
<mgrwt>
<rscale>  2 0.12499941E+03</rscale>
<asrwt>0</asrwt>
<pdfrwt beam="1">  1       21 0.74020718E-01 0.12499941E+03</pdfrwt>
<pdfrwt beam="2">  1       21 0.12490388E-02 0.12499941E+03</pdfrwt>
<totfact> 0.42633569E+06</totfact>
</mgrwt>
</event>
<event>
 5    0  0.1579573E+000  0.1250358E+03  0.7546771E-02  0.1235013E+00
         21   -1    0    0  503  502  0.00000000000E+00  0.00000000000E+00  0.73315670787E+02  0.73315670787E+02  0.00000000000E+00 0. -1.
         21   -1    0    0  502  503 -0.00000000000E+00 -0.00000000000E+00 -0.53310389717E+02  0.53310389717E+02  0.00000000000E+00 0. -1.
         25    2    1    2    0    0  0.00000000000E+00  0.00000000000E+00  0.20005281071E+02  0.12662606050E+03  0.12503578659E+03 0.  0.
          4    1    3    3  501    0  0.51729876835E+01 -0.39767865175E+02  0.58548121362E+02  0.70982588831E+02  0.15500000000E+01 0.  1.
         -4    1    3    3    0  501 -0.51729876835E+01  0.39767865175E+02 -0.38542840291E+02  0.55643471673E+02  0.15500000000E+01 0.  1.
<mgrwt>
<rscale>  2 0.12503579E+03</rscale>
<asrwt>0</asrwt>
<pdfrwt beam="1">  1       21 0.11279334E-01 0.12503579E+03</pdfrwt>
<pdfrwt beam="2">  1       21 0.82015984E-02 0.12503579E+03</pdfrwt>
<totfact> 0.73752750E+06</totfact>
</mgrwt>
</event>
<event>
 5    0  0.1489807E+000  0.1249970E+03  0.7546771E-02  0.1235074E+00
         21   -1    0    0  503  502  0.00000000000E+00  0.00000000000E+00  0.77454123606E+02  0.77454123606E+02  0.00000000000E+00 0.  1.
         21   -1    0    0  502  503 -0.00000000000E+00 -0.00000000000E+00 -0.50430621856E+02  0.50430621856E+02  0.00000000000E+00 0.  1.
         25    2    1    2    0    0  0.00000000000E+00  0.00000000000E+00  0.27023501751E+02  0.12788474546E+03  0.12499695386E+03 0.  0.
          4    1    3    3  501    0 -0.62275869868E+02 -0.49812884626E+01  0.12746188038E+02  0.63780600593E+02  0.15500000000E+01 0.  1.
         -4    1    3    3    0  501  0.62275869868E+02  0.49812884626E+01  0.14277313712E+02  0.64104144869E+02  0.15500000000E+01 0.  1.
<mgrwt>
<rscale>  2 0.12499695E+03</rscale>
<asrwt>0</asrwt>
<pdfrwt beam="1">  1       21 0.11916019E-01 0.12499695E+03</pdfrwt>
<pdfrwt beam="2">  1       21 0.77585572E-02 0.12499695E+03</pdfrwt>
<totfact> 0.73654862E+06</totfact>
</mgrwt>
</event>
<event>
 5    0  0.1460401E+000  0.1250042E+03  0.7546771E-02  0.1235063E+00
         21   -1    0    0  503  502  0.00000000000E+00  0.00000000000E+00  0.15291825431E+02  0.15291825431E+02  0.00000000000E+00 0. -1.
         21   -1    0    0  502  503 -0.00000000000E+00 -0.00000000000E+00 -0.25546420386E+03  0.25546420386E+03  0.00000000000E+00 0. -1.
         25    2    1    2    0    0  0.00000000000E+00  0.00000000000E+00 -0.24017237843E+03  0.27075602930E+03  0.12500422408E+03 0.  0.
          4    1    3    3  501    0  0.44360124990E+02  0.38443667106E+02 -0.16645906633E+03  0.17651277430E+03  0.15500000000E+01 0. -1.
         -4    1    3    3    0  501 -0.44360124990E+02 -0.38443667106E+02 -0.73713312108E+02  0.94243254993E+02  0.15500000000E+01 0. -1.
<mgrwt>
<rscale>  2 0.12500422E+03</rscale>
<asrwt>0</asrwt>
<pdfrwt beam="1">  1       21 0.23525886E-02 0.12500422E+03</pdfrwt>
<pdfrwt beam="2">  1       21 0.39302184E-01 0.12500422E+03</pdfrwt>
<totfact> 0.57971064E+06</totfact>
</mgrwt>
</event>
<event>
 5    0  0.1548873E+000  0.1250021E+03  0.7546771E-02  0.1235066E+00
         21   -1    0    0  503  502  0.00000000000E+00  0.00000000000E+00  0.12162034089E+03  0.12162034089E+03  0.00000000000E+00 0.  1.
         21   -1    0    0  502  503 -0.00000000000E+00 -0.00000000000E+00 -0.32119449561E+02  0.32119449561E+02  0.00000000000E+00 0.  1.
         25    2    1    2    0    0  0.00000000000E+00  0.00000000000E+00  0.89500891330E+02  0.15373979045E+03  0.12500205446E+03 0.  0.
          4    1    3    3  501    0 -0.93309468928E+01 -0.46470704828E+02  0.94820788423E+02  0.10601875963E+03  0.15500000000E+01 0. -1.
         -4    1    3    3    0  501  0.93309468928E+01  0.46470704828E+02 -0.53198970937E+01  0.47721030817E+02  0.15500000000E+01 0. -1.
<mgrwt>
<rscale>  2 0.12500205E+03</rscale>
<asrwt>0</asrwt>
<pdfrwt beam="1">  1       21 0.18710821E-01 0.12500205E+03</pdfrwt>
<pdfrwt beam="2">  1       21 0.49414538E-02 0.12500205E+03</pdfrwt>
<totfact> 0.70288841E+06</totfact>
</mgrwt>
</event>
<event>
 5    0  0.1275992E+000  0.1250072E+03  0.7546771E-02  0.1235058E+00
         21   -1    0    0  503  502  0.00000000000E+00  0.00000000000E+00  0.62001926600E+03  0.62001926600E+03  0.00000000000E+00 0.  1.
         21   -1    0    0  502  503 -0.00000000000E+00 -0.00000000000E+00 -0.63009349961E+01  0.63009349961E+01  0.00000000000E+00 0.  1.
         25    2    1    2    0    0  0.00000000000E+00  0.00000000000E+00  0.61371833100E+03  0.62632020099E+03  0.12500721725E+03 0.  0.
          4    1    3    3  501    0  0.35004741977E+02 -0.48742355386E+02  0.39409395231E+03  0.39863968056E+03  0.15500000000E+01 0.  1.
         -4    1    3    3    0  501 -0.35004741977E+02  0.48742355386E+02  0.21962437869E+03  0.22768052044E+03  0.15500000000E+01 0.  1.
<mgrwt>
<rscale>  2 0.12500722E+03</rscale>
<asrwt>0</asrwt>
<pdfrwt beam="1">  1       21 0.95387531E-01 0.12500722E+03</pdfrwt>
<pdfrwt beam="2">  1       21 0.96937510E-03 0.12500722E+03</pdfrwt>
<totfact> 0.35922327E+06</totfact>
</mgrwt>
</event>
<event>
 5    0  0.1534160E+000  0.1250001E+03  0.7546771E-02  0.1235069E+00
         21   -1    0    0  503  502  0.00000000000E+00  0.00000000000E+00  0.80192538014E+02  0.80192538014E+02  0.00000000000E+00 0. -1.
         21   -1    0    0  502  503 -0.00000000000E+00 -0.00000000000E+00 -0.48710995482E+02  0.48710995482E+02  0.00000000000E+00 0. -1.
         25    2    1    2    0    0  0.00000000000E+00  0.00000000000E+00  0.31481542533E+02  0.12890353350E+03  0.12500013371E+03 0.  0.
          4    1    3    3  501    0 -0.51722278796E+01  0.48137008151E+02 -0.24988555245E+02  0.54504622631E+02  0.15500000000E+01 0. -1.
         -4    1    3    3    0  501  0.51722278796E+01 -0.48137008151E+02  0.56470097777E+02  0.74398910865E+02  0.15500000000E+01 0. -1.
<mgrwt>
<rscale>  2 0.12500013E+03</rscale>
<asrwt>0</asrwt>
<pdfrwt beam="1">  1       21 0.12337314E-01 0.12500013E+03</pdfrwt>
<pdfrwt beam="2">  1       21 0.74939993E-02 0.12500013E+03</pdfrwt>
<totfact> 0.73511589E+06</totfact>
</mgrwt>
</event>
<event>
 5    0  0.1493617E+000  0.1250040E+03  0.7546771E-02  0.1235063E+00
         21   -1    0    0  503  502  0.00000000000E+00  0.00000000000E+00  0.23253616588E+03  0.23253616588E+03  0.00000000000E+00 0.  1.
         21   -1    0    0  502  503 -0.00000000000E+00 -0.00000000000E+00 -0.16799532172E+02  0.16799532172E+02  0.00000000000E+00 0.  1.
         25    2    1    2    0    0  0.00000000000E+00  0.00000000000E+00  0.21573663371E+03  0.24933569805E+03  0.12500398074E+03 0.  0.
          4    1    3    3  501    0  0.26121133735E+02 -0.47849976993E+02  0.16876678989E+03  0.17735998927E+03  0.15500000000E+01 0.  1.
         -4    1    3    3    0  501 -0.26121133735E+02  0.47849976993E+02  0.46969843820E+02  0.71975708779E+02  0.15500000000E+01 0.  1.
<mgrwt>
<rscale>  2 0.12500398E+03</rscale>
<asrwt>0</asrwt>
<pdfrwt beam="1">  1       21 0.35774792E-01 0.12500398E+03</pdfrwt>
<pdfrwt beam="2">  1       21 0.25845436E-02 0.12500398E+03</pdfrwt>
<totfact> 0.59934775E+06</totfact>
</mgrwt>
</event>
<event>
 5    0  0.1488446E+000  0.1250077E+03  0.7546771E-02  0.1235057E+00
         21   -1    0    0  503  502  0.00000000000E+00  0.00000000000E+00  0.19899649749E+03  0.19899649749E+03  0.00000000000E+00 0. -1.
         21   -1    0    0  502  503 -0.00000000000E+00 -0.00000000000E+00 -0.19632150773E+02  0.19632150773E+02  0.00000000000E+00 0. -1.
         25    2    1    2    0    0  0.00000000000E+00  0.00000000000E+00  0.17936434671E+03  0.21862864826E+03  0.12500766764E+03 0.  0.
          4    1    3    3  501    0  0.49818742186E+02 -0.61920077996E+01  0.24616667399E+02  0.55934165297E+02  0.15500000000E+01 0.  1.
         -4    1    3    3    0  501 -0.49818742186E+02  0.61920077996E+01  0.15474767931E+03  0.16269448296E+03  0.15500000000E+01 0.  1.
<mgrwt>
<rscale>  2 0.12500767E+03</rscale>
<asrwt>0</asrwt>
<pdfrwt beam="1">  1       21 0.30614844E-01 0.12500767E+03</pdfrwt>
<pdfrwt beam="2">  1       21 0.30203310E-02 0.12500767E+03</pdfrwt>
<totfact> 0.62950781E+06</totfact>
</mgrwt>
</event>
<event>
 5    0  0.1560903E+000  0.1249898E+03  0.7546771E-02  0.1235085E+00
         21   -1    0    0  503  502  0.00000000000E+00  0.00000000000E+00  0.21105830181E+03  0.21105830181E+03  0.00000000000E+00 0.  1.
         21   -1    0    0  502  503 -0.00000000000E+00 -0.00000000000E+00 -0.18504895309E+02  0.18504895309E+02  0.00000000000E+00 0.  1.
         25    2    1    2    0    0  0.00000000000E+00  0.00000000000E+00  0.19255340650E+03  0.22956319712E+03  0.12498978805E+03 0.  0.
          4    1    3    3  501    0 -0.58560828261E+02 -0.15016437441E+02  0.12522051249E+03  0.13905913580E+03  0.15500000000E+01 0. -1.
         -4    1    3    3    0  501  0.58560828261E+02  0.15016437441E+02  0.67332894010E+02  0.90504061323E+02  0.15500000000E+01 0. -1.
<mgrwt>
<rscale>  2 0.12498979E+03</rscale>
<asrwt>0</asrwt>
<pdfrwt beam="1">  1       21 0.32470506E-01 0.12498979E+03</pdfrwt>
<pdfrwt beam="2">  1       21 0.28469071E-02 0.12498979E+03</pdfrwt>
<totfact> 0.61873426E+06</totfact>
</mgrwt>
</event>
<event>
 5    0  0.1433611E+000  0.1250073E+03  0.7546771E-02  0.1235058E+00
         21   -1    0    0  503  502  0.00000000000E+00  0.00000000000E+00  0.21911762284E+02  0.21911762284E+02  0.00000000000E+00 0.  1.
         21   -1    0    0  502  503 -0.00000000000E+00 -0.00000000000E+00 -0.17829251510E+03  0.17829251510E+03  0.00000000000E+00 0.  1.
         25    2    1    2    0    0  0.00000000000E+00  0.00000000000E+00 -0.15638075282E+03  0.20020427739E+03  0.12500725112E+03 0.  0.
          4    1    3    3  501    0 -0.32408084247E+02 -0.50313191746E+02 -0.10695574909E+03  0.12257094252E+03  0.15500000000E+01 0.  1.
         -4    1    3    3    0  501  0.32408084247E+02  0.50313191746E+02 -0.49425003733E+02  0.77633334865E+02  0.15500000000E+01 0.  1.
<mgrwt>
<rscale>  2 0.12500725E+03</rscale>
<asrwt>0</asrwt>
<pdfrwt beam="1">  1       21 0.33710403E-02 0.12500725E+03</pdfrwt>
<pdfrwt beam="2">  1       21 0.27429618E-01 0.12500725E+03</pdfrwt>
<totfact> 0.64893211E+06</totfact>
</mgrwt>
</event>
<event>
 5    0  0.1625457E+000  0.1250015E+03  0.7546771E-02  0.1235067E+00
         21   -1    0    0  503  502  0.00000000000E+00  0.00000000000E+00  0.21471889841E+02  0.21471889841E+02  0.00000000000E+00 0. -1.
         21   -1    0    0  502  503 -0.00000000000E+00 -0.00000000000E+00 -0.18192818151E+03  0.18192818151E+03  0.00000000000E+00 0. -1.
         25    2    1    2    0    0  0.00000000000E+00  0.00000000000E+00 -0.16045629167E+03  0.20340007135E+03  0.12500146995E+03 0.  0.
          4    1    3    3  501    0  0.24593585136E+00 -0.62034858210E+02 -0.68099884307E+02  0.92132409391E+02  0.15500000000E+01 0.  1.
         -4    1    3    3    0  501 -0.24593585136E+00  0.62034858210E+02 -0.92356407364E+02  0.11126766196E+03  0.15500000000E+01 0.  1.
<mgrwt>
<rscale>  2 0.12500147E+03</rscale>
<asrwt>0</asrwt>
<pdfrwt beam="1">  1       21 0.33033679E-02 0.12500147E+03</pdfrwt>
<pdfrwt beam="2">  1       21 0.27988949E-01 0.12500147E+03</pdfrwt>
<totfact> 0.64558283E+06</totfact>
</mgrwt>
</event>
<event>
 5    0  0.1597901E+000  0.1250029E+03  0.7546771E-02  0.1235065E+00
         21   -1    0    0  503  502  0.00000000000E+00  0.00000000000E+00  0.47096700320E+02  0.47096700320E+02  0.00000000000E+00 0.  1.
         21   -1    0    0  502  503 -0.00000000000E+00 -0.00000000000E+00 -0.82944891442E+02  0.82944891442E+02  0.00000000000E+00 0.  1.
         25    2    1    2    0    0  0.00000000000E+00  0.00000000000E+00 -0.35848191122E+02  0.13004159176E+03  0.12500289109E+03 0.  0.
          4    1    3    3  501    0  0.62035233670E+02 -0.24989278633E+01 -0.10611285104E+02  0.63004894481E+02  0.15500000000E+01 0.  1.
         -4    1    3    3    0  501 -0.62035233670E+02  0.24989278633E+01 -0.25236906019E+02  0.67036697281E+02  0.15500000000E+01 0.  1.
<mgrwt>
<rscale>  2 0.12500289E+03</rscale>
<asrwt>0</asrwt>
<pdfrwt beam="1">  1       21 0.72456462E-02 0.12500289E+03</pdfrwt>
<pdfrwt beam="2">  1       21 0.12760752E-01 0.12500289E+03</pdfrwt>
<totfact> 0.73353942E+06</totfact>
</mgrwt>
</event>
<event>
 5    0  0.1499378E+000  0.1250293E+03  0.7546771E-02  0.1235024E+00
         21   -1    0    0  503  502  0.00000000000E+00  0.00000000000E+00  0.15219981796E+03  0.15219981796E+03  0.00000000000E+00 0. -1.
         21   -1    0    0  502  503 -0.00000000000E+00 -0.00000000000E+00 -0.25677288670E+02  0.25677288670E+02  0.00000000000E+00 0. -1.
         25    2    1    2    0    0  0.00000000000E+00  0.00000000000E+00  0.12652252929E+03  0.17787710663E+03  0.12502925516E+03 0.  0.
          4    1    3    3  501    0  0.10224954399E+02 -0.36194245953E+02  0.13426877037E+03  0.13944561065E+03  0.15500000000E+01 0.  1.
         -4    1    3    3    0  501 -0.10224954399E+02  0.36194245953E+02 -0.77462410789E+01  0.38431495982E+02  0.15500000000E+01 0.  1.
<mgrwt>
<rscale>  2 0.12502926E+03</rscale>
<asrwt>0</asrwt>
<pdfrwt beam="1">  1       21 0.23415356E-01 0.12502926E+03</pdfrwt>
<pdfrwt beam="2">  1       21 0.39503522E-02 0.12502926E+03</pdfrwt>
<totfact> 0.67345912E+06</totfact>
</mgrwt>
</event>
<event>
 5    0  0.1374708E+000  0.1250033E+03  0.7546771E-02  0.1235064E+00
         21   -1    0    0  503  502  0.00000000000E+00  0.00000000000E+00  0.90677672911E+01  0.90677672911E+01  0.00000000000E+00 0. -1.
         21   -1    0    0  502  503 -0.00000000000E+00 -0.00000000000E+00 -0.43080704202E+03  0.43080704202E+03  0.00000000000E+00 0. -1.
         25    2    1    2    0    0  0.00000000000E+00  0.00000000000E+00 -0.42173927472E+03  0.43987480931E+03  0.12500332803E+03 0.  0.
          4    1    3    3  501    0 -0.54072107209E+02 -0.13438067376E+02 -0.31037945358E+03  0.31534454512E+03  0.15500000000E+01 0. -1.
         -4    1    3    3    0  501  0.54072107209E+02  0.13438067376E+02 -0.11135982114E+03  0.12453026418E+03  0.15500000000E+01 0. -1.
<mgrwt>
<rscale>  2 0.12500333E+03</rscale>
<asrwt>0</asrwt>
<pdfrwt beam="1">  1       21 0.13950413E-02 0.12500333E+03</pdfrwt>
<pdfrwt beam="2">  1       21 0.66277997E-01 0.12500333E+03</pdfrwt>
<totfact> 0.45500489E+06</totfact>
</mgrwt>
</event>
<event>
 5    0  0.1551668E+000  0.1249951E+03  0.7546771E-02  0.1235077E+00
         21   -1    0    0  503  502  0.00000000000E+00  0.00000000000E+00  0.16569054023E+03  0.16569054023E+03  0.00000000000E+00 0.  1.
         21   -1    0    0  502  503 -0.00000000000E+00 -0.00000000000E+00 -0.23573745468E+02  0.23573745468E+02  0.00000000000E+00 0.  1.
         25    2    1    2    0    0  0.00000000000E+00  0.00000000000E+00  0.14211679476E+03  0.18926428570E+03  0.12499514585E+03 0.  0.
          4    1    3    3  501    0  0.28665552517E+02 -0.55159664088E+02  0.61573135861E+02  0.87509748046E+02  0.15500000000E+01 0. -1.
         -4    1    3    3    0  501 -0.28665552517E+02  0.55159664088E+02  0.80543658899E+02  0.10175453765E+03  0.15500000000E+01 0. -1.
<mgrwt>
<rscale>  2 0.12499515E+03</rscale>
<asrwt>0</asrwt>
<pdfrwt beam="1">  1       21 0.25490852E-01 0.12499515E+03</pdfrwt>
<pdfrwt beam="2">  1       21 0.36267302E-02 0.12499515E+03</pdfrwt>
<totfact> 0.66112458E+06</totfact>
</mgrwt>
</event>
<event>
 5    0  0.1505505E+000  0.1249999E+03  0.7546771E-02  0.1235070E+00
         21   -1    0    0  503  502  0.00000000000E+00  0.00000000000E+00  0.21630708456E+02  0.21630708456E+02  0.00000000000E+00 0.  1.
         21   -1    0    0  502  503 -0.00000000000E+00 -0.00000000000E+00 -0.18058774519E+03  0.18058774519E+03  0.00000000000E+00 0.  1.
         25    2    1    2    0    0  0.00000000000E+00  0.00000000000E+00 -0.15895703674E+03  0.20221845365E+03  0.12499985387E+03 0.  0.
          4    1    3    3  501    0  0.40867079966E+02  0.31210895978E+02 -0.22063220082E+02  0.55977017007E+02  0.15500000000E+01 0. -1.
         -4    1    3    3    0  501 -0.40867079966E+02 -0.31210895978E+02 -0.13689381665E+03  0.14624143664E+03  0.15500000000E+01 0. -1.
<mgrwt>
<rscale>  2 0.12499985E+03</rscale>
<asrwt>0</asrwt>
<pdfrwt beam="1">  1       21 0.33278013E-02 0.12499985E+03</pdfrwt>
<pdfrwt beam="2">  1       21 0.27782730E-01 0.12499985E+03</pdfrwt>
<totfact> 0.64687897E+06</totfact>
</mgrwt>
</event>
<event>
 5    0  0.1430961E+000  0.1249991E+03  0.7546771E-02  0.1235071E+00
         21   -1    0    0  503  502  0.00000000000E+00  0.00000000000E+00  0.11323910187E+02  0.11323910187E+02  0.00000000000E+00 0. -1.
         21   -1    0    0  502  503 -0.00000000000E+00 -0.00000000000E+00 -0.34495111175E+03  0.34495111175E+03  0.00000000000E+00 0. -1.
         25    2    1    2    0    0  0.00000000000E+00  0.00000000000E+00 -0.33362720156E+03  0.35627502193E+03  0.12499912653E+03 0.  0.
          4    1    3    3  501    0 -0.92482465686E+01 -0.61509775272E+02 -0.18362999344E+03  0.19388491306E+03  0.15500000000E+01 0. -1.
         -4    1    3    3    0  501  0.92482465686E+01  0.61509775272E+02 -0.14999720812E+03  0.16239010888E+03  0.15500000000E+01 0. -1.
<mgrwt>
<rscale>  2 0.12499913E+03</rscale>
<asrwt>0</asrwt>
<pdfrwt beam="1">  1       21 0.17421399E-02 0.12499913E+03</pdfrwt>
<pdfrwt beam="2">  1       21 0.53069405E-01 0.12499913E+03</pdfrwt>
<totfact> 0.51079433E+06</totfact>
</mgrwt>
</event>
<event>
 5    0  0.1327566E+000  0.1249964E+03  0.7546771E-02  0.1235075E+00
         21   -1    0    0  503  502  0.00000000000E+00  0.00000000000E+00  0.40776428549E+03  0.40776428549E+03  0.00000000000E+00 0. -1.
         21   -1    0    0  502  503 -0.00000000000E+00 -0.00000000000E+00 -0.95791234863E+01  0.95791234863E+01  0.00000000000E+00 0. -1.
         25    2    1    2    0    0  0.00000000000E+00  0.00000000000E+00  0.39818516200E+03  0.41734340897E+03  0.12499639105E+03 0.  0.
          4    1    3    3  501    0  0.32112451930E+02 -0.37805540477E+02  0.32593144573E+03  0.32968800141E+03  0.15500000000E+01 0. -1.
         -4    1    3    3    0  501 -0.32112451930E+02  0.37805540477E+02  0.72253716270E+02  0.87655407561E+02  0.15500000000E+01 0. -1.
<mgrwt>
<rscale>  2 0.12499639E+03</rscale>
<asrwt>0</asrwt>
<pdfrwt beam="1">  1       21 0.62732954E-01 0.12499639E+03</pdfrwt>
<pdfrwt beam="2">  1       21 0.14737116E-02 0.12499639E+03</pdfrwt>
<totfact> 0.46916097E+06</totfact>
</mgrwt>
</event>
<event>
 5    0  0.1453508E+000  0.1249971E+03  0.7546771E-02  0.1235074E+00
         21   -1    0    0  503  502  0.00000000000E+00  0.00000000000E+00  0.11572998496E+02  0.11572998496E+02  0.00000000000E+00 0.  1.
         21   -1    0    0  502  503 -0.00000000000E+00 -0.00000000000E+00 -0.33751572040E+03  0.33751572040E+03  0.00000000000E+00 0.  1.
         25    2    1    2    0    0  0.00000000000E+00  0.00000000000E+00 -0.32594272191E+03  0.34908871890E+03  0.12499710276E+03 0.  0.
          4    1    3    3  501    0 -0.36470098333E+02  0.41406727572E+02 -0.81114894865E+02  0.98115308844E+02  0.15500000000E+01 0. -1.
         -4    1    3    3    0  501  0.36470098333E+02 -0.41406727572E+02 -0.24482782704E+03  0.25097341006E+03  0.15500000000E+01 0. -1.
<mgrwt>
<rscale>  2 0.12499710E+03</rscale>
<asrwt>0</asrwt>
<pdfrwt beam="1">  1       21 0.17804613E-02 0.12499710E+03</pdfrwt>
<pdfrwt beam="2">  1       21 0.51925495E-01 0.12499710E+03</pdfrwt>
<totfact> 0.51609548E+06</totfact>
</mgrwt>
</event>
<event>
 5    0  0.1255189E+000  0.1249961E+03  0.7546771E-02  0.1235075E+00
         21   -1    0    0  503  502  0.00000000000E+00  0.00000000000E+00  0.61145673908E+03  0.61145673908E+03  0.00000000000E+00 0.  1.
         21   -1    0    0  502  503 -0.00000000000E+00 -0.00000000000E+00 -0.63880379038E+01  0.63880379038E+01  0.00000000000E+00 0.  1.
         25    2    1    2    0    0  0.00000000000E+00  0.00000000000E+00  0.60506870118E+03  0.61784477698E+03  0.12499614115E+03 0.  0.
          4    1    3    3  501    0  0.55684058297E+02 -0.19071184657E+02  0.19894741463E+03  0.20747747040E+03  0.15500000000E+01 0. -1.
         -4    1    3    3    0  501 -0.55684058297E+02  0.19071184657E+02  0.40612128655E+03  0.41036730659E+03  0.15500000000E+01 0. -1.
<mgrwt>
<rscale>  2 0.12499614E+03</rscale>
<asrwt>0</asrwt>
<pdfrwt beam="1">  1       21 0.94070222E-01 0.12499614E+03</pdfrwt>
<pdfrwt beam="2">  1       21 0.98277554E-03 0.12499614E+03</pdfrwt>
<totfact> 0.36301350E+06</totfact>
</mgrwt>
</event>
<event>
 5    0  0.1575818E+000  0.1249941E+03  0.7546771E-02  0.1235079E+00
         21   -1    0    0  503  502  0.00000000000E+00  0.00000000000E+00  0.19956353079E+02  0.19956353079E+02  0.00000000000E+00 0.  1.
         21   -1    0    0  502  503 -0.00000000000E+00 -0.00000000000E+00 -0.19572108198E+03  0.19572108198E+03  0.00000000000E+00 0.  1.
         25    2    1    2    0    0  0.00000000000E+00  0.00000000000E+00 -0.17576472890E+03  0.21567743506E+03  0.12499406413E+03 0.  0.
          4    1    3    3  501    0  0.15167611432E+02 -0.59420084850E+02 -0.67271930977E+02  0.91042397362E+02  0.15500000000E+01 0.  1.
         -4    1    3    3    0  501 -0.15167611432E+02  0.59420084850E+02 -0.10849279792E+03  0.12463503769E+03  0.15500000000E+01 0.  1.
<mgrwt>
<rscale>  2 0.12499406E+03</rscale>
<asrwt>0</asrwt>
<pdfrwt beam="1">  1       21 0.30702082E-02 0.12499406E+03</pdfrwt>
<pdfrwt beam="2">  1       21 0.30110935E-01 0.12499406E+03</pdfrwt>
<totfact> 0.63276606E+06</totfact>
</mgrwt>
</event>
<event>
 5    0  0.1613952E+000  0.1249658E+03  0.7546771E-02  0.1235123E+00
         21   -1    0    0  503  502  0.00000000000E+00  0.00000000000E+00  0.43983056771E+02  0.43983056771E+02  0.00000000000E+00 0. -1.
         21   -1    0    0  502  503 -0.00000000000E+00 -0.00000000000E+00 -0.88764075063E+02  0.88764075063E+02  0.00000000000E+00 0. -1.
         25    2    1    2    0    0  0.00000000000E+00  0.00000000000E+00 -0.44781018292E+02  0.13274713183E+03  0.12496584098E+03 0.  0.
          4    1    3    3  501    0  0.53412036042E+02  0.29207804288E+02 -0.37253577795E+02  0.71387484785E+02  0.15500000000E+01 0.  1.
         -4    1    3    3    0  501 -0.53412036042E+02 -0.29207804288E+02 -0.75274404975E+01  0.61359647048E+02  0.15500000000E+01 0.  1.
<mgrwt>
<rscale>  2 0.12496584E+03</rscale>
<asrwt>0</asrwt>
<pdfrwt beam="1">  1       21 0.67666242E-02 0.12496584E+03</pdfrwt>
<pdfrwt beam="2">  1       21 0.13656011E-01 0.12496584E+03</pdfrwt>
<totfact> 0.73059827E+06</totfact>
</mgrwt>
</event>
<event>
 5    0  0.1484910E+000  0.1249936E+03  0.7546771E-02  0.1235079E+00
         21   -1    0    0  503  502  0.00000000000E+00  0.00000000000E+00  0.25222662112E+03  0.25222662112E+03  0.00000000000E+00 0.  1.
         21   -1    0    0  502  503 -0.00000000000E+00 -0.00000000000E+00 -0.15485489919E+02  0.15485489919E+02  0.00000000000E+00 0.  1.
         25    2    1    2    0    0  0.00000000000E+00  0.00000000000E+00  0.23674113120E+03  0.26771211104E+03  0.12499364461E+03 0.  0.
          4    1    3    3  501    0 -0.30038837886E+02 -0.21242248964E+02  0.10217105987E+02  0.38214613400E+02  0.15500000000E+01 0.  1.
         -4    1    3    3    0  501  0.30038837886E+02  0.21242248964E+02  0.22652402521E+03  0.22949749763E+03  0.15500000000E+01 0.  1.
<mgrwt>
<rscale>  2 0.12499364E+03</rscale>
<asrwt>0</asrwt>
<pdfrwt beam="1">  1       21 0.38804093E-01 0.12499364E+03</pdfrwt>
<pdfrwt beam="2">  1       21 0.23823832E-02 0.12499364E+03</pdfrwt>
<totfact> 0.58258869E+06</totfact>
</mgrwt>
</event>
<event>
 5    0  0.1470594E+000  0.1249971E+03  0.7546771E-02  0.1235074E+00
         21   -1    0    0  503  502  0.00000000000E+00  0.00000000000E+00  0.15778598692E+02  0.15778598692E+02  0.00000000000E+00 0.  1.
         21   -1    0    0  502  503 -0.00000000000E+00 -0.00000000000E+00 -0.24755496712E+03  0.24755496712E+03  0.00000000000E+00 0.  1.
         25    2    1    2    0    0  0.00000000000E+00  0.00000000000E+00 -0.23177636842E+03  0.26333356581E+03  0.12499712765E+03 0.  0.
          4    1    3    3  501    0  0.32722633640E+02 -0.37303182366E+02 -0.19587048589E+03  0.20206421729E+03  0.15500000000E+01 0.  1.
         -4    1    3    3    0  501 -0.32722633640E+02  0.37303182366E+02 -0.35905882534E+02  0.61269348516E+02  0.15500000000E+01 0.  1.
<mgrwt>
<rscale>  2 0.12499713E+03</rscale>
<asrwt>0</asrwt>
<pdfrwt beam="1">  1       21 0.24274767E-02 0.12499713E+03</pdfrwt>
<pdfrwt beam="2">  1       21 0.38085379E-01 0.12499713E+03</pdfrwt>
<totfact> 0.58649315E+06</totfact>
</mgrwt>
</event>
<event>
 5    0  0.1318553E+000  0.1249957E+03  0.7546771E-02  0.1235076E+00
         21   -1    0    0  503  502  0.00000000000E+00  0.00000000000E+00  0.50133953863E+03  0.50133953863E+03  0.00000000000E+00 0.  1.
         21   -1    0    0  502  503 -0.00000000000E+00 -0.00000000000E+00 -0.77910923597E+01  0.77910923597E+01  0.00000000000E+00 0.  1.
         25    2    1    2    0    0  0.00000000000E+00  0.00000000000E+00  0.49354844627E+03  0.50913063099E+03  0.12499572231E+03 0.  0.
          4    1    3    3  501    0  0.38761703344E+01  0.41986783536E+02  0.43456814589E+03  0.43661171607E+03  0.15500000000E+01 0.  1.
         -4    1    3    3    0  501 -0.38761703344E+01 -0.41986783536E+02  0.58980300384E+02  0.72518914923E+02  0.15500000000E+01 0.  1.
<mgrwt>
<rscale>  2 0.12499572E+03</rscale>
<asrwt>0</asrwt>
<pdfrwt beam="1">  1       21 0.77129135E-01 0.12499572E+03</pdfrwt>
<pdfrwt beam="2">  1       21 0.11986300E-02 0.12499572E+03</pdfrwt>
<totfact> 0.41557619E+06</totfact>
</mgrwt>
</event>
<event>
 5    0  0.1253598E+000  0.1250087E+03  0.7546771E-02  0.1235056E+00
         21   -1    0    0  503  502  0.00000000000E+00  0.00000000000E+00  0.51331342796E+03  0.51331342796E+03  0.00000000000E+00 0.  1.
         21   -1    0    0  502  503 -0.00000000000E+00 -0.00000000000E+00 -0.76109265869E+01  0.76109265869E+01  0.00000000000E+00 0.  1.
         25    2    1    2    0    0  0.00000000000E+00  0.00000000000E+00  0.50570250138E+03  0.52092435455E+03  0.12500865276E+03 0.  0.
          4    1    3    3  501    0 -0.24987555007E+01  0.43598578133E+02  0.66618025233E+02  0.79670845234E+02  0.15500000000E+01 0.  1.
         -4    1    3    3    0  501  0.24987555007E+01 -0.43598578133E+02  0.43908447614E+03  0.44125350932E+03  0.15500000000E+01 0.  1.
<mgrwt>
<rscale>  2 0.12500865E+03</rscale>
<asrwt>0</asrwt>
<pdfrwt beam="1">  1       21 0.78971270E-01 0.12500865E+03</pdfrwt>
<pdfrwt beam="2">  1       21 0.11709122E-02 0.12500865E+03</pdfrwt>
<totfact> 0.40922762E+06</totfact>
</mgrwt>
</event>
<event>
 5    0  0.1668860E+000  0.1249986E+03  0.7546771E-02  0.1235072E+00
         21   -1    0    0  503  502  0.00000000000E+00  0.00000000000E+00  0.37023363932E+02  0.37023363932E+02  0.00000000000E+00 0.  1.
         21   -1    0    0  502  503 -0.00000000000E+00 -0.00000000000E+00 -0.10550528495E+03  0.10550528495E+03  0.00000000000E+00 0.  1.
         25    2    1    2    0    0  0.00000000000E+00  0.00000000000E+00 -0.68481921018E+02  0.14252864888E+03  0.12499856898E+03 0.  0.
          4    1    3    3  501    0  0.57221406574E+02 -0.24371096416E+02 -0.27445427559E+02  0.67999218412E+02  0.15500000000E+01 0.  1.
         -4    1    3    3    0  501 -0.57221406574E+02  0.24371096416E+02 -0.41036493459E+02  0.74529430470E+02  0.15500000000E+01 0.  1.
<mgrwt>
<rscale>  2 0.12499857E+03</rscale>
<asrwt>0</asrwt>
<pdfrwt beam="1">  1       21 0.56959022E-02 0.12499857E+03</pdfrwt>
<pdfrwt beam="2">  1       21 0.16231582E-01 0.12499857E+03</pdfrwt>
<totfact> 0.71713508E+06</totfact>
</mgrwt>
</event>
<event>
 5    0  0.1317294E+000  0.1250040E+03  0.7546771E-02  0.1235063E+00
         21   -1    0    0  503  502  0.00000000000E+00  0.00000000000E+00  0.68554558037E+03  0.68554558037E+03  0.00000000000E+00 0. -1.
         21   -1    0    0  502  503 -0.00000000000E+00 -0.00000000000E+00 -0.56983800626E+01  0.56983800626E+01  0.00000000000E+00 0. -1.
         25    2    1    2    0    0  0.00000000000E+00  0.00000000000E+00  0.67984720031E+03  0.69124396044E+03  0.12500398821E+03 0.  0.
          4    1    3    3  501    0 -0.43632261601E+02 -0.40313044536E+02  0.44703307078E+03  0.45096550276E+03  0.15500000000E+01 0.  1.
         -4    1    3    3    0  501  0.43632261601E+02  0.40313044536E+02  0.23281412953E+03  0.24027845767E+03  0.15500000000E+01 0.  1.
<mgrwt>
<rscale>  2 0.12500399E+03</rscale>
<asrwt>0</asrwt>
<pdfrwt beam="1">  1       21 0.10546849E+00 0.12500399E+03</pdfrwt>
<pdfrwt beam="2">  1       21 0.87667440E-03 0.12500399E+03</pdfrwt>
<totfact> 0.33247186E+06</totfact>
</mgrwt>
</event>
<event>
 5    0  0.1550091E+000  0.1250008E+03  0.7546771E-02  0.1235068E+00
         21   -1    0    0  503  502  0.00000000000E+00  0.00000000000E+00  0.17118193993E+02  0.17118193993E+02  0.00000000000E+00 0. -1.
         21   -1    0    0  502  503 -0.00000000000E+00 -0.00000000000E+00 -0.22819589332E+03  0.22819589332E+03  0.00000000000E+00 0. -1.
         25    2    1    2    0    0  0.00000000000E+00  0.00000000000E+00 -0.21107769933E+03  0.24531408732E+03  0.12500082512E+03 0.  0.
          4    1    3    3  501    0  0.10417372226E+02 -0.59947026273E+02 -0.77665033436E+02  0.98673337440E+02  0.15500000000E+01 0.  1.
         -4    1    3    3    0  501 -0.10417372226E+02  0.59947026273E+02 -0.13341266590E+03  0.14664074988E+03  0.15500000000E+01 0.  1.
<mgrwt>
<rscale>  2 0.12500083E+03</rscale>
<asrwt>0</asrwt>
<pdfrwt beam="1">  1       21 0.26335684E-02 0.12500083E+03</pdfrwt>
<pdfrwt beam="2">  1       21 0.35107060E-01 0.12500083E+03</pdfrwt>
<totfact> 0.60320933E+06</totfact>
</mgrwt>
</event>
<event>
 5    0  0.1371192E+000  0.1250007E+03  0.7546771E-02  0.1235068E+00
         21   -1    0    0  503  502  0.00000000000E+00  0.00000000000E+00  0.23120415132E+02  0.23120415132E+02  0.00000000000E+00 0. -1.
         21   -1    0    0  502  503 -0.00000000000E+00 -0.00000000000E+00 -0.16895439230E+03  0.16895439230E+03  0.00000000000E+00 0. -1.
         25    2    1    2    0    0  0.00000000000E+00  0.00000000000E+00 -0.14583397717E+03  0.19207480743E+03  0.12500073101E+03 0.  0.
          4    1    3    3  501    0  0.91878051858E+01  0.22552443501E+02 -0.16133252201E+03  0.16316744048E+03  0.15500000000E+01 0.  1.
         -4    1    3    3    0  501 -0.91878051858E+01 -0.22552443501E+02  0.15498544846E+02  0.28907366956E+02  0.15500000000E+01 0.  1.
<mgrwt>
<rscale>  2 0.12500073E+03</rscale>
<asrwt>0</asrwt>
<pdfrwt beam="1">  1       21 0.35569869E-02 0.12500073E+03</pdfrwt>
<pdfrwt beam="2">  1       21 0.25992984E-01 0.12500073E+03</pdfrwt>
<totfact> 0.65791389E+06</totfact>
</mgrwt>
</event>
<event>
 5    0  0.1430316E+000  0.1250123E+03  0.7546771E-02  0.1235050E+00
         21   -1    0    0  503  502  0.00000000000E+00  0.00000000000E+00  0.35787049982E+03  0.35787049982E+03  0.00000000000E+00 0.  1.
         21   -1    0    0  502  503 -0.00000000000E+00 -0.00000000000E+00 -0.10917411428E+02  0.10917411428E+02  0.00000000000E+00 0.  1.
         25    2    1    2    0    0  0.00000000000E+00  0.00000000000E+00  0.34695308839E+03  0.36878791125E+03  0.12501231115E+03 0.  0.
          4    1    3    3  501    0  0.17777064425E+02  0.30593083254E+02  0.21539253677E+02  0.41452415027E+02  0.15500000000E+01 0.  1.
         -4    1    3    3    0  501 -0.17777064425E+02 -0.30593083254E+02  0.32541383471E+03  0.32733549622E+03  0.15500000000E+01 0.  1.
<mgrwt>
<rscale>  2 0.12501231E+03</rscale>
<asrwt>0</asrwt>
<pdfrwt beam="1">  1       21 0.55056991E-01 0.12501231E+03</pdfrwt>
<pdfrwt beam="2">  1       21 0.16796020E-02 0.12501231E+03</pdfrwt>
<totfact> 0.50164668E+06</totfact>
</mgrwt>
</event>
<event>
 5    0  0.1594977E+000  0.1250053E+03  0.7546771E-02  0.1235061E+00
         21   -1    0    0  503  502  0.00000000000E+00  0.00000000000E+00  0.85107513731E+02  0.85107513731E+02  0.00000000000E+00 0. -1.
         21   -1    0    0  502  503 -0.00000000000E+00 -0.00000000000E+00 -0.45901753361E+02  0.45901753361E+02  0.00000000000E+00 0. -1.
         25    2    1    2    0    0  0.00000000000E+00  0.00000000000E+00  0.39205760371E+02  0.13100926709E+03  0.12500534556E+03 0.  0.
          4    1    3    3  501    0 -0.49813001498E+02  0.24245013785E+02  0.49887587256E+02  0.74567618132E+02  0.15500000000E+01 0.  1.
         -4    1    3    3    0  501  0.49813001498E+02 -0.24245013785E+02 -0.10681826885E+02  0.56441648960E+02  0.15500000000E+01 0.  1.
<mgrwt>
<rscale>  2 0.12500535E+03</rscale>
<asrwt>0</asrwt>
<pdfrwt beam="1">  1       21 0.13093464E-01 0.12500535E+03</pdfrwt>
<pdfrwt beam="2">  1       21 0.70618082E-02 0.12500535E+03</pdfrwt>
<totfact> 0.73219437E+06</totfact>
</mgrwt>
</event>
<event>
 5    0  0.1435987E+000  0.1250015E+03  0.7546771E-02  0.1235067E+00
         21   -1    0    0  503  502  0.00000000000E+00  0.00000000000E+00  0.23374259652E+03  0.23374259652E+03  0.00000000000E+00 0. -1.
         21   -1    0    0  502  503 -0.00000000000E+00 -0.00000000000E+00 -0.16712157250E+02  0.16712157250E+02  0.00000000000E+00 0. -1.
         25    2    1    2    0    0  0.00000000000E+00  0.00000000000E+00  0.21703043927E+03  0.25045475377E+03  0.12500148845E+03 0.  0.
          4    1    3    3  501    0  0.57760855245E+02  0.48530107680E+01  0.61780197876E+02  0.84729354192E+02  0.15500000000E+01 0. -1.
         -4    1    3    3    0  501 -0.57760855245E+02 -0.48530107680E+01  0.15525024139E+03  0.16572539957E+03  0.15500000000E+01 0. -1.
<mgrwt>
<rscale>  2 0.12500149E+03</rscale>
<asrwt>0</asrwt>
<pdfrwt beam="1">  1       21 0.35960397E-01 0.12500149E+03</pdfrwt>
<pdfrwt beam="2">  1       21 0.25711013E-02 0.12500149E+03</pdfrwt>
<totfact> 0.59833157E+06</totfact>
</mgrwt>
</event>
<event>
 4    0  0.1810218E+000  0.1243464E+03  0.7546771E-02  0.1236094E+00
         21   -1    0    0  503  502  0.00000000000E+00  0.00000000000E+00  0.22741770906E+02  0.22741770906E+02  0.00000000000E+00 0. -1.
         21   -1    0    0  502  503 -0.00000000000E+00 -0.00000000000E+00 -0.16997381441E+03  0.16997381441E+03  0.00000000000E+00 0. -1.
          4    1    1    2  501    0 -0.32206129317E+02  0.13238589495E+02  0.61754447179E+01  0.35398215137E+02  0.15500000000E+01 0. -1.
         -4    1    1    2    0  501  0.32206129317E+02 -0.13238589495E+02 -0.15340748822E+03  0.15731737017E+03  0.15500000000E+01 0. -1.
<mgrwt>
<rscale>  2 0.12434638E+03</rscale>
<asrwt>0</asrwt>
<pdfrwt beam="1">  1       21 0.34987340E-02 0.12434638E+03</pdfrwt>
<pdfrwt beam="2">  1       21 0.26149818E-01 0.12434638E+03</pdfrwt>
<totfact> 0.66821899E+06</totfact>
</mgrwt>
</event>
<event>
 5    0  0.1700367E+000  0.1249973E+03  0.7546771E-02  0.1235073E+00
         21   -1    0    0  503  502  0.00000000000E+00  0.00000000000E+00  0.50438855580E+02  0.50438855580E+02  0.00000000000E+00 0.  1.
         21   -1    0    0  502  503 -0.00000000000E+00 -0.00000000000E+00 -0.77441912832E+02  0.77441912832E+02  0.00000000000E+00 0.  1.
         25    2    1    2    0    0  0.00000000000E+00  0.00000000000E+00 -0.27003057252E+02  0.12788076841E+03  0.12499730328E+03 0.  0.
          4    1    3    3  501    0 -0.20538287552E+02 -0.58317295749E+02 -0.42967161282E+01  0.61996713692E+02  0.15500000000E+01 0.  1.
         -4    1    3    3    0  501  0.20538287552E+02  0.58317295749E+02 -0.22706341124E+02  0.65884054720E+02  0.15500000000E+01 0.  1.
<mgrwt>
<rscale>  2 0.12499730E+03</rscale>
<asrwt>0</asrwt>
<pdfrwt beam="1">  1       21 0.77598239E-02 0.12499730E+03</pdfrwt>
<pdfrwt beam="2">  1       21 0.11914140E-01 0.12499730E+03</pdfrwt>
<totfact> 0.73654743E+06</totfact>
</mgrwt>
</event>
<event>
 5    0  0.1377240E+000  0.1249990E+03  0.7546771E-02  0.1235071E+00
         21   -1    0    0  503  502  0.00000000000E+00  0.00000000000E+00  0.10894821949E+02  0.10894821949E+02  0.00000000000E+00 0.  1.
         21   -1    0    0  502  503 -0.00000000000E+00 -0.00000000000E+00 -0.35853629297E+03  0.35853629297E+03  0.00000000000E+00 0.  1.
         25    2    1    2    0    0  0.00000000000E+00  0.00000000000E+00 -0.34764147102E+03  0.36943111491E+03  0.12499902518E+03 0.  0.
          4    1    3    3  501    0  0.18915153304E+01 -0.33287024829E+02 -0.32999114971E+03  0.33167478836E+03  0.15500000000E+01 0.  1.
         -4    1    3    3    0  501 -0.18915153304E+01  0.33287024829E+02 -0.17650321311E+02  0.37756326550E+02  0.15500000000E+01 0.  1.
<mgrwt>
<rscale>  2 0.12499903E+03</rscale>
<asrwt>0</asrwt>
<pdfrwt beam="1">  1       21 0.16761268E-02 0.12499903E+03</pdfrwt>
<pdfrwt beam="2">  1       21 0.55159418E-01 0.12499903E+03</pdfrwt>
<totfact> 0.50135859E+06</totfact>
</mgrwt>
</event>
<event>
 5    0  0.1300873E+000  0.1249985E+03  0.7546771E-02  0.1235072E+00
         21   -1    0    0  503  502  0.00000000000E+00  0.00000000000E+00  0.59146859733E+03  0.59146859733E+03  0.00000000000E+00 0. -1.
         21   -1    0    0  502  503 -0.00000000000E+00 -0.00000000000E+00 -0.66041664336E+01  0.66041664336E+01  0.00000000000E+00 0. -1.
         25    2    1    2    0    0  0.00000000000E+00  0.00000000000E+00  0.58486443090E+03  0.59807276377E+03  0.12499851290E+03 0.  0.
          4    1    3    3  501    0  0.11672945181E+02 -0.37513325746E+02  0.59983080932E+02  0.71720846034E+02  0.15500000000E+01 0.  1.
         -4    1    3    3    0  501 -0.11672945181E+02  0.37513325746E+02  0.52488134997E+03  0.52635191773E+03  0.15500000000E+01 0.  1.
<mgrwt>
<rscale>  2 0.12499851E+03</rscale>
<asrwt>0</asrwt>
<pdfrwt beam="1">  1       21 0.90995127E-01 0.12499851E+03</pdfrwt>
<pdfrwt beam="2">  1       21 0.10160261E-02 0.12499851E+03</pdfrwt>
<totfact> 0.37181318E+06</totfact>
</mgrwt>
</event>
<event>
 5    0  0.1410832E+000  0.1250007E+03  0.7546771E-02  0.1235068E+00
         21   -1    0    0  503  502  0.00000000000E+00  0.00000000000E+00  0.15259952495E+02  0.15259952495E+02  0.00000000000E+00 0.  1.
         21   -1    0    0  502  503 -0.00000000000E+00 -0.00000000000E+00 -0.25598347287E+03  0.25598347287E+03  0.00000000000E+00 0.  1.
         25    2    1    2    0    0  0.00000000000E+00  0.00000000000E+00 -0.24072352037E+03  0.27124342536E+03  0.12500073017E+03 0.  0.
          4    1    3    3  501    0 -0.21588760059E+02 -0.27907707176E+02 -0.84684609414E+01  0.36318480302E+02  0.15500000000E+01 0.  1.
         -4    1    3    3    0  501  0.21588760059E+02  0.27907707176E+02 -0.23225505943E+03  0.23492494506E+03  0.15500000000E+01 0.  1.
<mgrwt>
<rscale>  2 0.12500073E+03</rscale>
<asrwt>0</asrwt>
<pdfrwt beam="1">  1       21 0.23476852E-02 0.12500073E+03</pdfrwt>
<pdfrwt beam="2">  1       21 0.39382070E-01 0.12500073E+03</pdfrwt>
<totfact> 0.57932760E+06</totfact>
</mgrwt>
</event>
<event>
 5    0  0.1579332E+000  0.1249958E+03  0.7546771E-02  0.1235076E+00
         21   -1    0    0  503  502  0.00000000000E+00  0.00000000000E+00  0.58291806782E+02  0.58291806782E+02  0.00000000000E+00 0.  1.
         21   -1    0    0  502  503 -0.00000000000E+00 -0.00000000000E+00 -0.67007512642E+02  0.67007512642E+02  0.00000000000E+00 0.  1.
         25    2    1    2    0    0  0.00000000000E+00  0.00000000000E+00 -0.87157058602E+01  0.12529931942E+03  0.12499582361E+03 0.  0.
          4    1    3    3  501    0 -0.53589381582E+02  0.24947741632E+01 -0.36459674266E+02  0.64882632992E+02  0.15500000000E+01 0.  1.
         -4    1    3    3    0  501  0.53589381582E+02 -0.24947741632E+01  0.27743968406E+02  0.60416686431E+02  0.15500000000E+01 0.  1.
<mgrwt>
<rscale>  2 0.12499582E+03</rscale>
<asrwt>0</asrwt>
<pdfrwt beam="1">  1       21 0.89679703E-02 0.12499582E+03</pdfrwt>
<pdfrwt beam="2">  1       21 0.10308848E-01 0.12499582E+03</pdfrwt>
<totfact> 0.74011065E+06</totfact>
</mgrwt>
</event>
<event>
 5    0  0.1392432E+000  0.1249984E+03  0.7546771E-02  0.1235072E+00
         21   -1    0    0  503  502  0.00000000000E+00  0.00000000000E+00  0.43329749291E+03  0.43329749291E+03  0.00000000000E+00 0. -1.
         21   -1    0    0  502  503 -0.00000000000E+00 -0.00000000000E+00 -0.90149378609E+01  0.90149378609E+01  0.00000000000E+00 0. -1.
         25    2    1    2    0    0  0.00000000000E+00  0.00000000000E+00  0.42428255505E+03  0.44231243077E+03  0.12499839957E+03 0.  0.
          4    1    3    3  501    0  0.41358978136E+02 -0.37345722395E+02  0.11215128036E+03  0.12524208653E+03  0.15500000000E+01 0. -1.
         -4    1    3    3    0  501 -0.41358978136E+02  0.37345722395E+02  0.31213127469E+03  0.31707034424E+03  0.15500000000E+01 0. -1.
<mgrwt>
<rscale>  2 0.12499840E+03</rscale>
<asrwt>0</asrwt>
<pdfrwt beam="1">  1       21 0.66661137E-01 0.12499840E+03</pdfrwt>
<pdfrwt beam="2">  1       21 0.13869138E-02 0.12499840E+03</pdfrwt>
<totfact> 0.45357666E+06</totfact>
</mgrwt>
</event>
<event>
 5    0  0.1480102E+000  0.1249940E+03  0.7546771E-02  0.1235079E+00
         21   -1    0    0  503  502  0.00000000000E+00  0.00000000000E+00  0.26452986193E+03  0.26452986193E+03  0.00000000000E+00 0.  1.
         21   -1    0    0  502  503 -0.00000000000E+00 -0.00000000000E+00 -0.14765346385E+02  0.14765346385E+02  0.00000000000E+00 0.  1.
         25    2    1    2    0    0  0.00000000000E+00  0.00000000000E+00  0.24976451554E+03  0.27929520831E+03  0.12499400050E+03 0.  0.
          4    1    3    3  501    0  0.18110545384E+02  0.55585624144E+02  0.17412779690E+03  0.18368626954E+03  0.15500000000E+01 0. -1.
         -4    1    3    3    0  501 -0.18110545384E+02 -0.55585624144E+02  0.75636718648E+02  0.95608938774E+02  0.15500000000E+01 0. -1.
<mgrwt>
<rscale>  2 0.12499400E+03</rscale>
<asrwt>0</asrwt>
<pdfrwt beam="1">  1       21 0.40696898E-01 0.12499400E+03</pdfrwt>
<pdfrwt beam="2">  1       21 0.22715919E-02 0.12499400E+03</pdfrwt>
<totfact> 0.57230585E+06</totfact>
</mgrwt>
</event>
<event>
 5    0  0.1222151E+000  0.1250064E+03  0.7546771E-02  0.1235059E+00
         21   -1    0    0  503  502  0.00000000000E+00  0.00000000000E+00  0.78975757378E+03  0.78975757378E+03  0.00000000000E+00 0.  1.
         21   -1    0    0  502  503 -0.00000000000E+00 -0.00000000000E+00 -0.49466433527E+01  0.49466433527E+01  0.00000000000E+00 0.  1.
         25    2    1    2    0    0  0.00000000000E+00  0.00000000000E+00  0.78481093043E+03  0.79470421714E+03  0.12500638468E+03 0.  0.
          4    1    3    3  501    0  0.10719842381E+02  0.40281758195E+02  0.68832515675E+03  0.68958789068E+03  0.15500000000E+01 0.  1.
         -4    1    3    3    0  501 -0.10719842381E+02 -0.40281758195E+02  0.96485773685E+02  0.10511632646E+03  0.15500000000E+01 0.  1.
<mgrwt>
<rscale>  2 0.12500638E+03</rscale>
<asrwt>0</asrwt>
<pdfrwt beam="1">  1       21 0.12150107E+00 0.12500638E+03</pdfrwt>
<pdfrwt beam="2">  1       21 0.76102268E-03 0.12500638E+03</pdfrwt>
<totfact> 0.29534384E+06</totfact>
</mgrwt>
</event>
<event>
 5    0  0.1487005E+000  0.1250584E+03  0.7546771E-02  0.1234978E+00
         21   -1    0    0  503  502  0.00000000000E+00  0.00000000000E+00  0.10949364929E+03  0.10949364929E+03  0.00000000000E+00 0.  1.
         21   -1    0    0  502  503 -0.00000000000E+00 -0.00000000000E+00 -0.35708935805E+02  0.35708935805E+02  0.00000000000E+00 0.  1.
         25    2    1    2    0    0  0.00000000000E+00  0.00000000000E+00  0.73784713488E+02  0.14520258510E+03  0.12505841345E+03 0.  0.
          4    1    3    3  501    0 -0.31819358850E+02 -0.48164920328E+02  0.64738099629E+02  0.86751110606E+02  0.15500000000E+01 0. -1.
         -4    1    3    3    0  501  0.31819358850E+02  0.48164920328E+02  0.90466138589E+01  0.58451474491E+02  0.15500000000E+01 0. -1.
<mgrwt>
<rscale>  2 0.12505841E+03</rscale>
<asrwt>0</asrwt>
<pdfrwt beam="1">  1       21 0.16845177E-01 0.12505841E+03</pdfrwt>
<pdfrwt beam="2">  1       21 0.54936825E-02 0.12505841E+03</pdfrwt>
<totfact> 0.71261119E+06</totfact>
</mgrwt>
</event>
<event>
 5    0  0.1402851E+000  0.1250405E+03  0.7546771E-02  0.1235006E+00
         21   -1    0    0  503  502  0.00000000000E+00  0.00000000000E+00  0.11906248012E+02  0.11906248012E+02  0.00000000000E+00 0.  1.
         21   -1    0    0  502  503 -0.00000000000E+00 -0.00000000000E+00 -0.32829653550E+03  0.32829653550E+03  0.00000000000E+00 0.  1.
         25    2    1    2    0    0  0.00000000000E+00  0.00000000000E+00 -0.31639028749E+03  0.34020278351E+03  0.12504047302E+03 0.  0.
          4    1    3    3  501    0  0.53793185497E+02 -0.18561526366E+02 -0.22852198690E+03  0.23550570707E+03  0.15500000000E+01 0.  1.
         -4    1    3    3    0  501 -0.53793185497E+02  0.18561526366E+02 -0.87868300591E+02  0.10469707644E+03  0.15500000000E+01 0.  1.
<mgrwt>
<rscale>  2 0.12504047E+03</rscale>
<asrwt>0</asrwt>
<pdfrwt beam="1">  1       21 0.18317306E-02 0.12504047E+03</pdfrwt>
<pdfrwt beam="2">  1       21 0.50507155E-01 0.12504047E+03</pdfrwt>
<totfact> 0.52217240E+06</totfact>
</mgrwt>
</event>
<event>
 5    0  0.1532049E+000  0.1250139E+03  0.7546771E-02  0.1235048E+00
         21   -1    0    0  503  502  0.00000000000E+00  0.00000000000E+00  0.14771251118E+03  0.14771251118E+03  0.00000000000E+00 0. -1.
         21   -1    0    0  502  503 -0.00000000000E+00 -0.00000000000E+00 -0.26450835044E+02  0.26450835044E+02  0.00000000000E+00 0. -1.
         25    2    1    2    0    0  0.00000000000E+00  0.00000000000E+00  0.12126167614E+03  0.17416334622E+03  0.12501390750E+03 0.  0.
          4    1    3    3  501    0 -0.53446066293E+01 -0.41677754485E+02  0.12506492406E+03  0.13194407061E+03  0.15500000000E+01 0. -1.
         -4    1    3    3    0  501  0.53446066293E+01  0.41677754485E+02 -0.38032479199E+01  0.42219275618E+02  0.15500000000E+01 0. -1.
<mgrwt>
<rscale>  2 0.12501391E+03</rscale>
<asrwt>0</asrwt>
<pdfrwt beam="1">  1       21 0.22725001E-01 0.12501391E+03</pdfrwt>
<pdfrwt beam="2">  1       21 0.40693593E-02 0.12501391E+03</pdfrwt>
<totfact> 0.67803556E+06</totfact>
</mgrwt>
</event>
<event>
 5    0  0.1566961E+000  0.1249979E+03  0.7546771E-02  0.1235073E+00
         21   -1    0    0  503  502  0.00000000000E+00  0.00000000000E+00  0.34152928003E+02  0.34152928003E+02  0.00000000000E+00 0.  1.
         21   -1    0    0  502  503 -0.00000000000E+00 -0.00000000000E+00 -0.11437138470E+03  0.11437138470E+03  0.00000000000E+00 0.  1.
         25    2    1    2    0    0  0.00000000000E+00  0.00000000000E+00 -0.80218456694E+02  0.14852431270E+03  0.12499788266E+03 0.  0.
          4    1    3    3  501    0 -0.40620479000E+02 -0.28946138361E+02  0.46000676523E+01  0.50114522473E+02  0.15500000000E+01 0. -1.
         -4    1    3    3    0  501  0.40620479000E+02  0.28946138361E+02 -0.84818524347E+02  0.98409790227E+02  0.15500000000E+01 0. -1.
<mgrwt>
<rscale>  2 0.12499788E+03</rscale>
<asrwt>0</asrwt>
<pdfrwt beam="1">  1       21 0.52542966E-02 0.12499788E+03</pdfrwt>
<pdfrwt beam="2">  1       21 0.17595598E-01 0.12499788E+03</pdfrwt>
<totfact> 0.70948894E+06</totfact>
</mgrwt>
</event>
<event>
 5    0  0.1573529E+000  0.1250041E+03  0.7546771E-02  0.1235063E+00
         21   -1    0    0  503  502  0.00000000000E+00  0.00000000000E+00  0.92662620735E+02  0.92662620735E+02  0.00000000000E+00 0.  1.
         21   -1    0    0  502  503 -0.00000000000E+00 -0.00000000000E+00 -0.42158363105E+02  0.42158363105E+02  0.00000000000E+00 0.  1.
         25    2    1    2    0    0  0.00000000000E+00  0.00000000000E+00  0.50504257629E+02  0.13482098384E+03  0.12500407051E+03 0.  0.
          4    1    3    3  501    0  0.14107203465E+02 -0.47415695242E+02 -0.15913935657E+02  0.51989587351E+02  0.15500000000E+01 0. -1.
         -4    1    3    3    0  501 -0.14107203465E+02  0.47415695242E+02  0.66418193286E+02  0.82831396489E+02  0.15500000000E+01 0. -1.
<mgrwt>
<rscale>  2 0.12500407E+03</rscale>
<asrwt>0</asrwt>
<pdfrwt beam="1">  1       21 0.14255788E-01 0.12500407E+03</pdfrwt>
<pdfrwt beam="2">  1       21 0.64859020E-02 0.12500407E+03</pdfrwt>
<totfact> 0.72712634E+06</totfact>
</mgrwt>
</event>
<event>
 5    0  0.1531579E+000  0.1249985E+03  0.7546771E-02  0.1235072E+00
         21   -1    0    0  503  502  0.00000000000E+00  0.00000000000E+00  0.19452440743E+03  0.19452440743E+03  0.00000000000E+00 0. -1.
         21   -1    0    0  502  503 -0.00000000000E+00 -0.00000000000E+00 -0.20080540250E+02  0.20080540250E+02  0.00000000000E+00 0. -1.
         25    2    1    2    0    0  0.00000000000E+00  0.00000000000E+00  0.17444386718E+03  0.21460494768E+03  0.12499848308E+03 0.  0.
          4    1    3    3  501    0  0.56810131754E+02  0.18744081317E+02  0.56269790492E+02  0.82142701905E+02  0.15500000000E+01 0. -1.
         -4    1    3    3    0  501 -0.56810131754E+02 -0.18744081317E+02  0.11817407669E+03  0.13246224577E+03  0.15500000000E+01 0. -1.
<mgrwt>
<rscale>  2 0.12499848E+03</rscale>
<asrwt>0</asrwt>
<pdfrwt beam="1">  1       21 0.29926831E-01 0.12499848E+03</pdfrwt>
<pdfrwt beam="2">  1       21 0.30893140E-02 0.12499848E+03</pdfrwt>
<totfact> 0.63380707E+06</totfact>
</mgrwt>
</event>
<event>
 5    0  0.1222151E+000  0.1249977E+03  0.7546771E-02  0.1235073E+00
         21   -1    0    0  503  502  0.00000000000E+00  0.00000000000E+00  0.15496386259E+04  0.15496386259E+04  0.00000000000E+00 0. -1.
         21   -1    0    0  502  503 -0.00000000000E+00 -0.00000000000E+00 -0.25206558572E+01  0.25206558572E+01  0.00000000000E+00 0. -1.
         25    2    1    2    0    0  0.00000000000E+00  0.00000000000E+00  0.15471179701E+04  0.15521592818E+04  0.12499769084E+03 0.  0.
          4    1    3    3  501    0  0.52839173845E+02 -0.24187075886E+02  0.48857518070E+03  0.49202144529E+03  0.15500000000E+01 0. -1.
         -4    1    3    3    0  501 -0.52839173845E+02  0.24187075886E+02  0.10585427894E+04  0.10601378365E+04  0.15500000000E+01 0. -1.
<mgrwt>
<rscale>  2 0.12499769E+03</rscale>
<asrwt>0</asrwt>
<pdfrwt beam="1">  1       21 0.23840518E+00 0.12499769E+03</pdfrwt>
<pdfrwt beam="2">  1       21 0.38779445E-03 0.12499769E+03</pdfrwt>
<totfact> 0.13237677E+06</totfact>
</mgrwt>
</event>
<event>
 5    0  0.1253444E+000  0.1250046E+03  0.7546771E-02  0.1235062E+00
         21   -1    0    0  503  502  0.00000000000E+00  0.00000000000E+00  0.59755914184E+03  0.59755914184E+03  0.00000000000E+00 0.  1.
         21   -1    0    0  502  503 -0.00000000000E+00 -0.00000000000E+00 -0.65374921152E+01  0.65374921152E+01  0.00000000000E+00 0.  1.
         25    2    1    2    0    0  0.00000000000E+00  0.00000000000E+00  0.59102164972E+03  0.60409663395E+03  0.12500461077E+03 0.  0.
          4    1    3    3  501    0  0.19442304172E+02  0.50958980595E+02  0.14819079215E+03  0.15791685873E+03  0.15500000000E+01 0. -1.
         -4    1    3    3    0  501 -0.19442304172E+02 -0.50958980595E+02  0.44283085758E+03  0.44617977522E+03  0.15500000000E+01 0. -1.
<mgrwt>
<rscale>  2 0.12500461E+03</rscale>
<asrwt>0</asrwt>
<pdfrwt beam="1">  1       21 0.91932133E-01 0.12500461E+03</pdfrwt>
<pdfrwt beam="2">  1       21 0.10057685E-02 0.12500461E+03</pdfrwt>
<totfact> 0.36903805E+06</totfact>
</mgrwt>
</event>
<event>
 5    0  0.1403370E+000  0.1250013E+03  0.7546771E-02  0.1235067E+00
         21   -1    0    0  503  502  0.00000000000E+00  0.00000000000E+00  0.98213564105E+01  0.98213564105E+01  0.00000000000E+00 0. -1.
         21   -1    0    0  502  503 -0.00000000000E+00 -0.00000000000E+00 -0.39773850762E+03  0.39773850762E+03  0.00000000000E+00 0. -1.
         25    2    1    2    0    0  0.00000000000E+00  0.00000000000E+00 -0.38791715121E+03  0.40755986403E+03  0.12500130626E+03 0.  0.
          4    1    3    3  501    0  0.11751539557E+02  0.58554648421E+02 -0.25382868944E+03  0.26076455208E+03  0.15500000000E+01 0. -1.
         -4    1    3    3    0  501 -0.11751539557E+02 -0.58554648421E+02 -0.13408846177E+03  0.14679531196E+03  0.15500000000E+01 0. -1.
<mgrwt>
<rscale>  2 0.12500131E+03</rscale>
<asrwt>0</asrwt>
<pdfrwt beam="1">  1       21 0.15109778E-02 0.12500131E+03</pdfrwt>
<pdfrwt beam="2">  1       21 0.61190546E-01 0.12500131E+03</pdfrwt>
<totfact> 0.47542368E+06</totfact>
</mgrwt>
</event>
<event>
 5    0  0.1601818E+000  0.1250007E+03  0.7546771E-02  0.1235068E+00
         21   -1    0    0  503  502  0.00000000000E+00  0.00000000000E+00  0.28971591680E+02  0.28971591680E+02  0.00000000000E+00 0. -1.
         21   -1    0    0  502  503 -0.00000000000E+00 -0.00000000000E+00 -0.13483176839E+03  0.13483176839E+03  0.00000000000E+00 0. -1.
         25    2    1    2    0    0  0.00000000000E+00  0.00000000000E+00 -0.10586017671E+03  0.16380336007E+03  0.12500065503E+03 0.  0.
          4    1    3    3  501    0  0.35488407386E+02  0.49489091393E+02 -0.71242766799E+02  0.93736500611E+02  0.15500000000E+01 0. -1.
         -4    1    3    3    0  501 -0.35488407386E+02 -0.49489091393E+02 -0.34617409914E+02  0.70066859462E+02  0.15500000000E+01 0. -1.
<mgrwt>
<rscale>  2 0.12500066E+03</rscale>
<asrwt>0</asrwt>
<pdfrwt beam="1">  1       21 0.44571678E-02 0.12500066E+03</pdfrwt>
<pdfrwt beam="2">  1       21 0.20743350E-01 0.12500066E+03</pdfrwt>
<totfact> 0.69056577E+06</totfact>
</mgrwt>
</event>
<event>
 5    0  0.1484802E+000  0.1250020E+03  0.7546771E-02  0.1235066E+00
         21   -1    0    0  503  502  0.00000000000E+00  0.00000000000E+00  0.16294174144E+02  0.16294174144E+02  0.00000000000E+00 0. -1.
         21   -1    0    0  502  503 -0.00000000000E+00 -0.00000000000E+00 -0.23974046720E+03  0.23974046720E+03  0.00000000000E+00 0. -1.
         25    2    1    2    0    0  0.00000000000E+00  0.00000000000E+00 -0.22344629306E+03  0.25603464134E+03  0.12500196674E+03 0.  0.
          4    1    3    3  501    0  0.57219030710E+02 -0.43145361904E+01 -0.16236650292E+03  0.17221473941E+03  0.15500000000E+01 0.  1.
         -4    1    3    3    0  501 -0.57219030710E+02  0.43145361904E+01 -0.61079790136E+02  0.83819901939E+02  0.15500000000E+01 0.  1.
<mgrwt>
<rscale>  2 0.12500197E+03</rscale>
<asrwt>0</asrwt>
<pdfrwt beam="1">  1       21 0.25067961E-02 0.12500197E+03</pdfrwt>
<pdfrwt beam="2">  1       21 0.36883147E-01 0.12500197E+03</pdfrwt>
<totfact> 0.59311705E+06</totfact>
</mgrwt>
</event>
<event>
 5    0  0.1478600E+000  0.1250029E+03  0.7546771E-02  0.1235065E+00
         21   -1    0    0  503  502  0.00000000000E+00  0.00000000000E+00  0.28658058633E+03  0.28658058633E+03  0.00000000000E+00 0. -1.
         21   -1    0    0  502  503 -0.00000000000E+00 -0.00000000000E+00 -0.13631176113E+02  0.13631176113E+02  0.00000000000E+00 0. -1.
         25    2    1    2    0    0  0.00000000000E+00  0.00000000000E+00  0.27294941022E+03  0.30021176245E+03  0.12500288705E+03 0.  0.
          4    1    3    3  501    0  0.35936325599E+02  0.41980922287E+02  0.66446834516E+02  0.86437270033E+02  0.15500000000E+01 0.  1.
         -4    1    3    3    0  501 -0.35936325599E+02 -0.41980922287E+02  0.20650257571E+03  0.21377449241E+03  0.15500000000E+01 0.  1.
<mgrwt>
<rscale>  2 0.12500289E+03</rscale>
<asrwt>0</asrwt>
<pdfrwt beam="1">  1       21 0.44089316E-01 0.12500289E+03</pdfrwt>
<pdfrwt beam="2">  1       21 0.20971042E-02 0.12500289E+03</pdfrwt>
<totfact> 0.55434561E+06</totfact>
</mgrwt>
</event>
<event>
 5    0  0.1586887E+000  0.1249946E+03  0.7546771E-02  0.1235078E+00
         21   -1    0    0  503  502  0.00000000000E+00  0.00000000000E+00  0.23186306536E+03  0.23186306536E+03  0.00000000000E+00 0. -1.
         21   -1    0    0  502  503 -0.00000000000E+00 -0.00000000000E+00 -0.16845774407E+02  0.16845774407E+02  0.00000000000E+00 0. -1.
         25    2    1    2    0    0  0.00000000000E+00  0.00000000000E+00  0.21501729095E+03  0.24870883977E+03  0.12499460616E+03 0.  0.
          4    1    3    3  501    0  0.16681444485E+02  0.58679181752E+02  0.13435144485E+03  0.14756093722E+03  0.15500000000E+01 0.  1.
         -4    1    3    3    0  501 -0.16681444485E+02 -0.58679181752E+02  0.80665846106E+02  0.10114790254E+03  0.15500000000E+01 0.  1.
<mgrwt>
<rscale>  2 0.12499461E+03</rscale>
<asrwt>0</asrwt>
<pdfrwt beam="1">  1       21 0.35671239E-01 0.12499461E+03</pdfrwt>
<pdfrwt beam="2">  1       21 0.25916578E-02 0.12499461E+03</pdfrwt>
<totfact> 0.60008124E+06</totfact>
</mgrwt>
</event>
<event>
 5    0  0.1222151E+000  0.1249899E+03  0.7546771E-02  0.1235085E+00
         21   -1    0    0  503  502  0.00000000000E+00  0.00000000000E+00  0.11251438370E+02  0.11251438370E+02  0.00000000000E+00 0.  1.
         21   -1    0    0  502  503 -0.00000000000E+00 -0.00000000000E+00 -0.34712148525E+03  0.34712148525E+03  0.00000000000E+00 0.  1.
         25    2    1    2    0    0  0.00000000000E+00  0.00000000000E+00 -0.33587004688E+03  0.35837292362E+03  0.12498985556E+03 0.  0.
          4    1    3    3  501    0  0.10185709348E+02  0.17425647100E+02 -0.33746029001E+03  0.33806693374E+03  0.15500000000E+01 0.  1.
         -4    1    3    3    0  501 -0.10185709348E+02 -0.17425647100E+02  0.15902431350E+01  0.20305989880E+02  0.15500000000E+01 0.  1.
<mgrwt>
<rscale>  2 0.12498986E+03</rscale>
<asrwt>0</asrwt>
<pdfrwt beam="1">  1       21 0.17309907E-02 0.12498986E+03</pdfrwt>
<pdfrwt beam="2">  1       21 0.53403299E-01 0.12498986E+03</pdfrwt>
<totfact> 0.50938892E+06</totfact>
</mgrwt>
</event>
<event>
 5    0  0.1651305E+000  0.1249991E+03  0.7546771E-02  0.1235071E+00
         21   -1    0    0  503  502  0.00000000000E+00  0.00000000000E+00  0.23401542704E+03  0.23401542704E+03  0.00000000000E+00 0. -1.
         21   -1    0    0  502  503 -0.00000000000E+00 -0.00000000000E+00 -0.16692044532E+02  0.16692044532E+02  0.00000000000E+00 0. -1.
         25    2    1    2    0    0  0.00000000000E+00  0.00000000000E+00  0.21732338250E+03  0.25070747157E+03  0.12499913487E+03 0.  0.
          4    1    3    3  501    0 -0.38273577160E+02 -0.16151448870E+01  0.20765988234E+03  0.21116937428E+03  0.15500000000E+01 0. -1.
         -4    1    3    3    0  501  0.38273577160E+02  0.16151448870E+01  0.96635001647E+01  0.39538097287E+02  0.15500000000E+01 0. -1.
<mgrwt>
<rscale>  2 0.12499913E+03</rscale>
<asrwt>0</asrwt>
<pdfrwt beam="1">  1       21 0.36002371E-01 0.12499913E+03</pdfrwt>
<pdfrwt beam="2">  1       21 0.25680070E-02 0.12499913E+03</pdfrwt>
<totfact> 0.59812951E+06</totfact>
</mgrwt>
</event>
<event>
 5    0  0.1573176E+000  0.1249995E+03  0.7546771E-02  0.1235070E+00
         21   -1    0    0  503  502  0.00000000000E+00  0.00000000000E+00  0.84346745558E+02  0.84346745558E+02  0.00000000000E+00 0. -1.
         21   -1    0    0  502  503 -0.00000000000E+00 -0.00000000000E+00 -0.46311468461E+02  0.46311468461E+02  0.00000000000E+00 0. -1.
         25    2    1    2    0    0  0.00000000000E+00  0.00000000000E+00  0.38035277097E+02  0.13065821402E+03  0.12499954635E+03 0.  0.
          4    1    3    3  501    0  0.18812684714E+02  0.41043509512E+02  0.64162299296E+02  0.78470949594E+02  0.15500000000E+01 0. -1.
         -4    1    3    3    0  501 -0.18812684714E+02 -0.41043509512E+02 -0.26127022198E+02  0.52187264425E+02  0.15500000000E+01 0. -1.
<mgrwt>
<rscale>  2 0.12499955E+03</rscale>
<asrwt>0</asrwt>
<pdfrwt beam="1">  1       21 0.12976422E-01 0.12499955E+03</pdfrwt>
<pdfrwt beam="2">  1       21 0.71248413E-02 0.12499955E+03</pdfrwt>
<totfact> 0.73277616E+06</totfact>
</mgrwt>
</event>
<event>
 5    0  0.1527304E+000  0.1249981E+03  0.7546771E-02  0.1235072E+00
         21   -1    0    0  503  502  0.00000000000E+00  0.00000000000E+00  0.15479972911E+03  0.15479972911E+03  0.00000000000E+00 0. -1.
         21   -1    0    0  502  503 -0.00000000000E+00 -0.00000000000E+00 -0.25233449587E+02  0.25233449587E+02  0.00000000000E+00 0. -1.
         25    2    1    2    0    0  0.00000000000E+00  0.00000000000E+00  0.12956627952E+03  0.18003317870E+03  0.12499809856E+03 0.  0.
          4    1    3    3  501    0  0.56042308509E+02 -0.31409068894E+01  0.10430907043E+03  0.11846261146E+03  0.15500000000E+01 0. -1.
         -4    1    3    3    0  501 -0.56042308509E+02  0.31409068894E+01  0.25257209091E+02  0.61570567239E+02  0.15500000000E+01 0. -1.
<mgrwt>
<rscale>  2 0.12499810E+03</rscale>
<asrwt>0</asrwt>
<pdfrwt beam="1">  1       21 0.23815342E-01 0.12499810E+03</pdfrwt>
<pdfrwt beam="2">  1       21 0.38820693E-02 0.12499810E+03</pdfrwt>
<totfact> 0.67150969E+06</totfact>
</mgrwt>
</event>
<event>
 5    0  0.1593903E+000  0.1249829E+03  0.7546771E-02  0.1235096E+00
         21   -1    0    0  503  502  0.00000000000E+00  0.00000000000E+00  0.39612002059E+02  0.39612002059E+02  0.00000000000E+00 0. -1.
         21   -1    0    0  502  503 -0.00000000000E+00 -0.00000000000E+00 -0.98585734294E+02  0.98585734294E+02  0.00000000000E+00 0. -1.
         25    2    1    2    0    0  0.00000000000E+00  0.00000000000E+00 -0.58973732236E+02  0.13819773635E+03  0.12498285178E+03 0.  0.
          4    1    3    3  501    0  0.20926737660E+02 -0.54430016116E+02 -0.54266669153E+02  0.79673263298E+02  0.15500000000E+01 0. -1.
         -4    1    3    3    0  501 -0.20926737660E+02  0.54430016116E+02 -0.47070630824E+01  0.58524473055E+02  0.15500000000E+01 0. -1.
<mgrwt>
<rscale>  2 0.12498285E+03</rscale>
<asrwt>0</asrwt>
<pdfrwt beam="1">  1       21 0.60941543E-02 0.12498285E+03</pdfrwt>
<pdfrwt beam="2">  1       21 0.15167036E-01 0.12498285E+03</pdfrwt>
<totfact> 0.72307061E+06</totfact>
</mgrwt>
</event>
<event>
 5    0  0.1629845E+000  0.1250038E+03  0.7546771E-02  0.1235063E+00
         21   -1    0    0  503  502  0.00000000000E+00  0.00000000000E+00  0.56804449233E+02  0.56804449233E+02  0.00000000000E+00 0.  1.
         21   -1    0    0  502  503 -0.00000000000E+00 -0.00000000000E+00 -0.68770769937E+02  0.68770769937E+02  0.00000000000E+00 0.  1.
         25    2    1    2    0    0  0.00000000000E+00  0.00000000000E+00 -0.11966320704E+02  0.12557521917E+03  0.12500377130E+03 0.  0.
          4    1    3    3  501    0 -0.54396524007E+02  0.25007936902E+02 -0.23945180883E+02  0.64499247435E+02  0.15500000000E+01 0.  1.
         -4    1    3    3    0  501  0.54396524007E+02 -0.25007936902E+02  0.11978860179E+02  0.61075971735E+02  0.15500000000E+01 0.  1.
<mgrwt>
<rscale>  2 0.12500377E+03</rscale>
<asrwt>0</asrwt>
<pdfrwt beam="1">  1       21 0.87391460E-02 0.12500377E+03</pdfrwt>
<pdfrwt beam="2">  1       21 0.10580118E-01 0.12500377E+03</pdfrwt>
<totfact> 0.73957784E+06</totfact>
</mgrwt>
</event>
<event>
 5    0  0.1526372E+000  0.1249925E+03  0.7546771E-02  0.1235081E+00
         21   -1    0    0  503  502  0.00000000000E+00  0.00000000000E+00  0.32962115362E+02  0.32962115362E+02  0.00000000000E+00 0.  1.
         21   -1    0    0  502  503 -0.00000000000E+00 -0.00000000000E+00 -0.11849308408E+03  0.11849308408E+03  0.00000000000E+00 0.  1.
         25    2    1    2    0    0  0.00000000000E+00  0.00000000000E+00 -0.85530968721E+02  0.15145519944E+03  0.12499252309E+03 0.  0.
          4    1    3    3  501    0  0.61346730222E+02 -0.80829264836E+01 -0.53232982676E+02  0.81638887511E+02  0.15500000000E+01 0.  1.
         -4    1    3    3    0  501 -0.61346730222E+02  0.80829264836E+01 -0.32297986044E+02  0.69816311933E+02  0.15500000000E+01 0.  1.
<mgrwt>
<rscale>  2 0.12499252E+03</rscale>
<asrwt>0</asrwt>
<pdfrwt beam="1">  1       21 0.50710945E-02 0.12499252E+03</pdfrwt>
<pdfrwt beam="2">  1       21 0.18229706E-01 0.12499252E+03</pdfrwt>
<totfact> 0.70590309E+06</totfact>
</mgrwt>
</event>
<event>
 5    0  0.1386918E+000  0.1250004E+03  0.7546771E-02  0.1235069E+00
         21   -1    0    0  503  502  0.00000000000E+00  0.00000000000E+00  0.15290709507E+02  0.15290709507E+02  0.00000000000E+00 0. -1.
         21   -1    0    0  502  503 -0.00000000000E+00 -0.00000000000E+00 -0.25546731528E+03  0.25546731528E+03  0.00000000000E+00 0. -1.
         25    2    1    2    0    0  0.00000000000E+00  0.00000000000E+00 -0.24017660577E+03  0.27075802479E+03  0.12500042410E+03 0.  0.
          4    1    3    3  501    0 -0.23849310502E+02  0.93552110459E+01  0.33496577975E+01  0.25883050293E+02  0.15500000000E+01 0.  1.
         -4    1    3    3    0  501  0.23849310502E+02 -0.93552110459E+01 -0.24352626357E+03  0.24487497449E+03  0.15500000000E+01 0.  1.
<mgrwt>
<rscale>  2 0.12500042E+03</rscale>
<asrwt>0</asrwt>
<pdfrwt beam="1">  1       21 0.23524167E-02 0.12500042E+03</pdfrwt>
<pdfrwt beam="2">  1       21 0.39302666E-01 0.12500042E+03</pdfrwt>
<totfact> 0.57976430E+06</totfact>
</mgrwt>
</event>
<event>
 5    0  0.1546228E+000  0.1250002E+03  0.7546771E-02  0.1235069E+00
         21   -1    0    0  503  502  0.00000000000E+00  0.00000000000E+00  0.94863845586E+02  0.94863845586E+02  0.00000000000E+00 0. -1.
         21   -1    0    0  502  503 -0.00000000000E+00 -0.00000000000E+00 -0.41177548513E+02  0.41177548513E+02  0.00000000000E+00 0. -1.
         25    2    1    2    0    0  0.00000000000E+00  0.00000000000E+00  0.53686297073E+02  0.13604139410E+03  0.12500016966E+03 0.  0.
          4    1    3    3  501    0 -0.58087848008E+02 -0.11452148102E+02  0.48569118189E+02  0.76594461445E+02  0.15500000000E+01 0. -1.
         -4    1    3    3    0  501  0.58087848008E+02  0.11452148102E+02  0.51171788837E+01  0.59446932655E+02  0.15500000000E+01 0. -1.
<mgrwt>
<rscale>  2 0.12500017E+03</rscale>
<asrwt>0</asrwt>
<pdfrwt beam="1">  1       21 0.14594438E-01 0.12500017E+03</pdfrwt>
<pdfrwt beam="2">  1       21 0.63350075E-02 0.12500017E+03</pdfrwt>
<totfact> 0.72558563E+06</totfact>
</mgrwt>
</event>
<event>
 5    0  0.1510470E+000  0.1249985E+03  0.7546771E-02  0.1235072E+00
         21   -1    0    0  503  502  0.00000000000E+00  0.00000000000E+00  0.11544064622E+03  0.11544064622E+03  0.00000000000E+00 0. -1.
         21   -1    0    0  502  503 -0.00000000000E+00 -0.00000000000E+00 -0.33836924778E+02  0.33836924778E+02  0.00000000000E+00 0. -1.
         25    2    1    2    0    0  0.00000000000E+00  0.00000000000E+00  0.81603721441E+02  0.14927757100E+03  0.12499850339E+03 0.  0.
          4    1    3    3  501    0 -0.30020086569E+02  0.35598208258E+02 -0.89465285322E+01  0.47443449511E+02  0.15500000000E+01 0. -1.
         -4    1    3    3    0  501  0.30020086569E+02 -0.35598208258E+02  0.90550249973E+02  0.10183412149E+03  0.15500000000E+01 0. -1.
<mgrwt>
<rscale>  2 0.12499850E+03</rscale>
<asrwt>0</asrwt>
<pdfrwt beam="1">  1       21 0.17760099E-01 0.12499850E+03</pdfrwt>
<pdfrwt beam="2">  1       21 0.52056808E-02 0.12499850E+03</pdfrwt>
<totfact> 0.70852769E+06</totfact>
</mgrwt>
</event>
<event>
 5    0  0.1280290E+000  0.1250110E+03  0.7546771E-02  0.1235052E+00
         21   -1    0    0  503  502  0.00000000000E+00  0.00000000000E+00  0.61268622857E+03  0.61268622857E+03  0.00000000000E+00 0. -1.
         21   -1    0    0  502  503 -0.00000000000E+00 -0.00000000000E+00 -0.63767372661E+01  0.63767372661E+01  0.00000000000E+00 0. -1.
         25    2    1    2    0    0  0.00000000000E+00  0.00000000000E+00  0.60630949131E+03  0.61906296584E+03  0.12501102521E+03 0.  0.
          4    1    3    3  501    0 -0.53785014676E+02  0.10189184350E+02  0.15394301695E+03  0.16339370321E+03  0.15500000000E+01 0. -1.
         -4    1    3    3    0  501  0.53785014676E+02 -0.10189184350E+02  0.45236647436E+03  0.45566926263E+03  0.15500000000E+01 0. -1.
<mgrwt>
<rscale>  2 0.12501103E+03</rscale>
<asrwt>0</asrwt>
<pdfrwt beam="1">  1       21 0.94259373E-01 0.12501103E+03</pdfrwt>
<pdfrwt beam="2">  1       21 0.98103699E-03 0.12501103E+03</pdfrwt>
<totfact> 0.36234574E+06</totfact>
</mgrwt>
</event>
<event>
 5    0  0.1446343E+000  0.1249949E+03  0.7546771E-02  0.1235077E+00
         21   -1    0    0  503  502  0.00000000000E+00  0.00000000000E+00  0.13356677447E+02  0.13356677447E+02  0.00000000000E+00 0. -1.
         21   -1    0    0  502  503 -0.00000000000E+00 -0.00000000000E+00 -0.29243286560E+03  0.29243286560E+03  0.00000000000E+00 0. -1.
         25    2    1    2    0    0  0.00000000000E+00  0.00000000000E+00 -0.27907618815E+03  0.30578954305E+03  0.12499490327E+03 0.  0.
          4    1    3    3  501    0  0.33406304746E+02 -0.48801574543E+02 -0.90246963028E+02  0.10790964605E+03  0.15500000000E+01 0. -1.
         -4    1    3    3    0  501 -0.33406304746E+02  0.48801574543E+02 -0.18882922512E+03  0.19787989700E+03  0.15500000000E+01 0. -1.
<mgrwt>
<rscale>  2 0.12499490E+03</rscale>
<asrwt>0</asrwt>
<pdfrwt beam="1">  1       21 0.20548737E-02 0.12499490E+03</pdfrwt>
<pdfrwt beam="2">  1       21 0.44989665E-01 0.12499490E+03</pdfrwt>
<totfact> 0.54985488E+06</totfact>
</mgrwt>
</event>
<event>
 5    0  0.1560269E+000  0.1249981E+03  0.7546771E-02  0.1235072E+00
         21   -1    0    0  503  502  0.00000000000E+00  0.00000000000E+00  0.64067137942E+02  0.64067137942E+02  0.00000000000E+00 0. -1.
         21   -1    0    0  502  503 -0.00000000000E+00 -0.00000000000E+00 -0.60969324153E+02  0.60969324153E+02  0.00000000000E+00 0. -1.
         25    2    1    2    0    0  0.00000000000E+00  0.00000000000E+00  0.30978137896E+01  0.12503646210E+03  0.12499808160E+03 0.  0.
          4    1    3    3  501    0 -0.25714527503E+02  0.31991867795E+02 -0.45571937423E+02  0.61350798773E+02  0.15500000000E+01 0.  1.
         -4    1    3    3    0  501  0.25714527503E+02 -0.31991867795E+02  0.48669751212E+02  0.63685663322E+02  0.15500000000E+01 0.  1.
<mgrwt>
<rscale>  2 0.12499808E+03</rscale>
<asrwt>0</asrwt>
<pdfrwt beam="1">  1       21 0.98564827E-02 0.12499808E+03</pdfrwt>
<pdfrwt beam="2">  1       21 0.93798961E-02 0.12499808E+03</pdfrwt>
<totfact> 0.74042288E+06</totfact>
</mgrwt>
</event>
<event>
 5    0  0.1316074E+000  0.1250018E+03  0.7546771E-02  0.1235066E+00
         21   -1    0    0  503  502  0.00000000000E+00  0.00000000000E+00  0.13802951292E+02  0.13802951292E+02  0.00000000000E+00 0. -1.
         21   -1    0    0  502  503 -0.00000000000E+00 -0.00000000000E+00 -0.28300917771E+03  0.28300917771E+03  0.00000000000E+00 0. -1.
         25    2    1    2    0    0  0.00000000000E+00  0.00000000000E+00 -0.26920622642E+03  0.29681212900E+03  0.12500179031E+03 0.  0.
          4    1    3    3  501    0  0.29939399445E+02 -0.33211005945E+02 -0.30976888345E+02  0.54417907591E+02  0.15500000000E+01 0. -1.
         -4    1    3    3    0  501 -0.29939399445E+02  0.33211005945E+02 -0.23822933807E+03  0.24239422141E+03  0.15500000000E+01 0. -1.
<mgrwt>
<rscale>  2 0.12500179E+03</rscale>
<asrwt>0</asrwt>
<pdfrwt beam="1">  1       21 0.21235311E-02 0.12500179E+03</pdfrwt>
<pdfrwt beam="2">  1       21 0.43539871E-01 0.12500179E+03</pdfrwt>
<totfact> 0.55719637E+06</totfact>
</mgrwt>
</event>
<event>
 5    0  0.1557565E+000  0.1250113E+03  0.7546771E-02  0.1235052E+00
         21   -1    0    0  503  502  0.00000000000E+00  0.00000000000E+00  0.15731872356E+03  0.15731872356E+03  0.00000000000E+00 0. -1.
         21   -1    0    0  502  503 -0.00000000000E+00 -0.00000000000E+00 -0.24834641104E+02  0.24834641104E+02  0.00000000000E+00 0. -1.
         25    2    1    2    0    0  0.00000000000E+00  0.00000000000E+00  0.13248408245E+03  0.18215336466E+03  0.12501126411E+03 0.  0.
          4    1    3    3  501    0 -0.10971211391E+02  0.49013311648E+02  0.12076496758E+02  0.51680910132E+02  0.15500000000E+01 0. -1.
         -4    1    3    3    0  501  0.10971211391E+02 -0.49013311648E+02  0.12040758569E+03  0.13047245453E+03  0.15500000000E+01 0. -1.
<mgrwt>
<rscale>  2 0.12501126E+03</rscale>
<asrwt>0</asrwt>
<pdfrwt beam="1">  1       21 0.24202880E-01 0.12501126E+03</pdfrwt>
<pdfrwt beam="2">  1       21 0.38207141E-02 0.12501126E+03</pdfrwt>
<totfact> 0.66886257E+06</totfact>
</mgrwt>
</event>
<event>
 5    0  0.1295358E+000  0.1249291E+03  0.7546771E-02  0.1235180E+00
         21   -1    0    0  503  502  0.00000000000E+00  0.00000000000E+00  0.35958382530E+03  0.35958382530E+03  0.00000000000E+00 0. -1.
         21   -1    0    0  502  503 -0.00000000000E+00 -0.00000000000E+00 -0.10850936056E+02  0.10850936056E+02  0.00000000000E+00 0. -1.
         25    2    1    2    0    0  0.00000000000E+00  0.00000000000E+00  0.34873288925E+03  0.37043476136E+03  0.12492911743E+03 0.  0.
          4    1    3    3  501    0 -0.26157008868E+01  0.59446234884E+02  0.11820645942E+03  0.13234752088E+03  0.15500000000E+01 0.  1.
         -4    1    3    3    0  501  0.26157008868E+01 -0.59446234884E+02  0.23052642983E+03  0.23808724048E+03  0.15500000000E+01 0.  1.
<mgrwt>
<rscale>  2 0.12492912E+03</rscale>
<asrwt>0</asrwt>
<pdfrwt beam="1">  1       21 0.55320579E-01 0.12492912E+03</pdfrwt>
<pdfrwt beam="2">  1       21 0.16693751E-02 0.12492912E+03</pdfrwt>
<totfact> 0.50152692E+06</totfact>
</mgrwt>
</event>
<event>
 5    0  0.1518640E+000  0.1250028E+03  0.7546771E-02  0.1235065E+00
         21   -1    0    0  503  502  0.00000000000E+00  0.00000000000E+00  0.25752858237E+03  0.25752858237E+03  0.00000000000E+00 0. -1.
         21   -1    0    0  502  503 -0.00000000000E+00 -0.00000000000E+00 -0.15168889610E+02  0.15168889610E+02  0.00000000000E+00 0. -1.
         25    2    1    2    0    0  0.00000000000E+00  0.00000000000E+00  0.24235969276E+03  0.27269747198E+03  0.12500276217E+03 0.  0.
          4    1    3    3  501    0  0.11131902227E+02  0.58937058235E+02  0.82985965910E+02  0.10240395070E+03  0.15500000000E+01 0.  1.
         -4    1    3    3    0  501 -0.11131902227E+02 -0.58937058235E+02  0.15937372685E+03  0.17029352128E+03  0.15500000000E+01 0.  1.
<mgrwt>
<rscale>  2 0.12500276E+03</rscale>
<asrwt>0</asrwt>
<pdfrwt beam="1">  1       21 0.39619779E-01 0.12500276E+03</pdfrwt>
<pdfrwt beam="2">  1       21 0.23336755E-02 0.12500276E+03</pdfrwt>
<totfact> 0.57800266E+06</totfact>
</mgrwt>
</event>
<event>
 5    0  0.1314935E+000  0.1249913E+03  0.7546771E-02  0.1235083E+00
         21   -1    0    0  503  502  0.00000000000E+00  0.00000000000E+00  0.43973352291E+03  0.43973352291E+03  0.00000000000E+00 0.  1.
         21   -1    0    0  502  503 -0.00000000000E+00 -0.00000000000E+00 -0.88819904519E+01  0.88819904519E+01  0.00000000000E+00 0.  1.
         25    2    1    2    0    0  0.00000000000E+00  0.00000000000E+00  0.43085153246E+03  0.44861551336E+03  0.12499134293E+03 0.  0.
          4    1    3    3  501    0  0.42198330610E+02 -0.44337940548E+02  0.26036277774E+03  0.26746538208E+03  0.15500000000E+01 0.  1.
         -4    1    3    3    0  501 -0.42198330610E+02  0.44337940548E+02  0.17048875471E+03  0.18115013128E+03  0.15500000000E+01 0.  1.
<mgrwt>
<rscale>  2 0.12499134E+03</rscale>
<asrwt>0</asrwt>
<pdfrwt beam="1">  1       21 0.67651294E-01 0.12499134E+03</pdfrwt>
<pdfrwt beam="2">  1       21 0.13664604E-02 0.12499134E+03</pdfrwt>
<totfact> 0.44984948E+06</totfact>
</mgrwt>
</event>
<event>
 5    0  0.1561558E+000  0.1249914E+03  0.7546771E-02  0.1235083E+00
         21   -1    0    0  503  502  0.00000000000E+00  0.00000000000E+00  0.59559049287E+02  0.59559049287E+02  0.00000000000E+00 0. -1.
         21   -1    0    0  502  503 -0.00000000000E+00 -0.00000000000E+00 -0.65577126627E+02  0.65577126627E+02  0.00000000000E+00 0. -1.
         25    2    1    2    0    0  0.00000000000E+00  0.00000000000E+00 -0.60180773395E+01  0.12513617591E+03  0.12499138077E+03 0.  0.
          4    1    3    3  501    0  0.44453126610E+02 -0.41808529058E+02 -0.16413920234E+02  0.63212758560E+02  0.15500000000E+01 0.  1.
         -4    1    3    3    0  501 -0.44453126610E+02  0.41808529058E+02  0.10395842894E+02  0.61923417354E+02  0.15500000000E+01 0.  1.
<mgrwt>
<rscale>  2 0.12499138E+03</rscale>
<asrwt>0</asrwt>
<pdfrwt beam="1">  1       21 0.91629306E-02 0.12499138E+03</pdfrwt>
<pdfrwt beam="2">  1       21 0.10088789E-01 0.12499138E+03</pdfrwt>
<totfact> 0.74041504E+06</totfact>
</mgrwt>
</event>
<event>
 5    0  0.1374343E+000  0.1250005E+03  0.7546771E-02  0.1235068E+00
         21   -1    0    0  503  502  0.00000000000E+00  0.00000000000E+00  0.11267005949E+02  0.11267005949E+02  0.00000000000E+00 0.  1.
         21   -1    0    0  502  503 -0.00000000000E+00 -0.00000000000E+00 -0.34670096257E+03  0.34670096257E+03  0.00000000000E+00 0.  1.
         25    2    1    2    0    0  0.00000000000E+00  0.00000000000E+00 -0.33543395662E+03  0.35796796852E+03  0.12500050892E+03 0.  0.
          4    1    3    3  501    0 -0.33468524114E+02 -0.49358988048E+02 -0.11433870983E+03  0.12896586708E+03  0.15500000000E+01 0. -1.
         -4    1    3    3    0  501  0.33468524114E+02  0.49358988048E+02 -0.22109524679E+03  0.22900210144E+03  0.15500000000E+01 0. -1.
<mgrwt>
<rscale>  2 0.12500051E+03</rscale>
<asrwt>0</asrwt>
<pdfrwt beam="1">  1       21 0.17333856E-02 0.12500051E+03</pdfrwt>
<pdfrwt beam="2">  1       21 0.53338608E-01 0.12500051E+03</pdfrwt>
<totfact> 0.50954657E+06</totfact>
</mgrwt>
</event>
<event>
 5    0  0.1350058E+000  0.1249997E+03  0.7546771E-02  0.1235070E+00
         21   -1    0    0  503  502  0.00000000000E+00  0.00000000000E+00  0.53275128065E+03  0.53275128065E+03  0.00000000000E+00 0.  1.
         21   -1    0    0  502  503 -0.00000000000E+00 -0.00000000000E+00 -0.73321857611E+01  0.73321857611E+01  0.00000000000E+00 0.  1.
         25    2    1    2    0    0  0.00000000000E+00  0.00000000000E+00  0.52541909489E+03  0.54008346641E+03  0.12499970167E+03 0.  0.
          4    1    3    3  501    0 -0.32481261312E+02 -0.31242095566E+02  0.44968700745E+03  0.45194237248E+03  0.15500000000E+01 0.  1.
         -4    1    3    3    0  501  0.32481261312E+02  0.31242095566E+02  0.75732087435E+02  0.88141093929E+02  0.15500000000E+01 0.  1.
<mgrwt>
<rscale>  2 0.12499970E+03</rscale>
<asrwt>0</asrwt>
<pdfrwt beam="1">  1       21 0.81961705E-01 0.12499970E+03</pdfrwt>
<pdfrwt beam="2">  1       21 0.11280290E-02 0.12499970E+03</pdfrwt>
<totfact> 0.39950778E+06</totfact>
</mgrwt>
</event>
<event>
 5    0  0.1222151E+000  0.1250246E+03  0.7546771E-02  0.1235031E+00
         21   -1    0    0  503  502  0.00000000000E+00  0.00000000000E+00  0.59832559752E+01  0.59832559752E+01  0.00000000000E+00 0. -1.
         21   -1    0    0  502  503 -0.00000000000E+00 -0.00000000000E+00 -0.65312076778E+03  0.65312076778E+03  0.00000000000E+00 0. -1.
         25    2    1    2    0    0  0.00000000000E+00  0.00000000000E+00 -0.64713751181E+03  0.65910402376E+03  0.12502461736E+03 0.  0.
          4    1    3    3  501    0  0.88976891042E+01 -0.39728043976E+02 -0.57351517069E+03  0.57496046809E+03  0.15500000000E+01 0. -1.
         -4    1    3    3    0  501 -0.88976891042E+01  0.39728043976E+02 -0.73622341116E+02  0.84143555671E+02  0.15500000000E+01 0. -1.
<mgrwt>
<rscale>  2 0.12502462E+03</rscale>
<asrwt>0</asrwt>
<pdfrwt beam="1">  1       21 0.92050098E-03 0.12502462E+03</pdfrwt>
<pdfrwt beam="2">  1       21 0.10048011E+00 0.12502462E+03</pdfrwt>
<totfact> 0.34525971E+06</totfact>
</mgrwt>
</event>
<event>
 5    0  0.1222151E+000  0.1250029E+03  0.7546771E-02  0.1235065E+00
         21   -1    0    0  503  502  0.00000000000E+00  0.00000000000E+00  0.13484216271E+04  0.13484216271E+04  0.00000000000E+00 0. -1.
         21   -1    0    0  502  503 -0.00000000000E+00 -0.00000000000E+00 -0.28970406509E+01  0.28970406509E+01  0.00000000000E+00 0. -1.
         25    2    1    2    0    0  0.00000000000E+00  0.00000000000E+00  0.13455245865E+04  0.13513186678E+04  0.12500291626E+03 0.  0.
          4    1    3    3  501    0 -0.21608132999E+02 -0.56542903751E+02  0.50528347327E+03  0.50889861685E+03  0.15500000000E+01 0. -1.
         -4    1    3    3    0  501  0.21608132999E+02  0.56542903751E+02  0.84024111322E+03  0.84242005094E+03  0.15500000000E+01 0. -1.
<mgrwt>
<rscale>  2 0.12500292E+03</rscale>
<asrwt>0</asrwt>
<pdfrwt beam="1">  1       21 0.20744898E+00 0.12500292E+03</pdfrwt>
<pdfrwt beam="2">  1       21 0.44569964E-03 0.12500292E+03</pdfrwt>
<totfact> 0.16354207E+06</totfact>
</mgrwt>
</event>
<event>
 5    0  0.1537164E+000  0.1250034E+03  0.7546771E-02  0.1235064E+00
         21   -1    0    0  503  502  0.00000000000E+00  0.00000000000E+00  0.12845784582E+03  0.12845784582E+03  0.00000000000E+00 0. -1.
         21   -1    0    0  502  503 -0.00000000000E+00 -0.00000000000E+00 -0.30410464580E+02  0.30410464580E+02  0.00000000000E+00 0. -1.
         25    2    1    2    0    0  0.00000000000E+00  0.00000000000E+00  0.98047381238E+02  0.15886831040E+03  0.12500340428E+03 0.  0.
          4    1    3    3  501    0  0.29863159037E+01  0.47794144675E+02  0.10003243041E+03  0.11091477801E+03  0.15500000000E+01 0. -1.
         -4    1    3    3    0  501 -0.29863159037E+01 -0.47794144675E+02 -0.19850491734E+01  0.47953532384E+02  0.15500000000E+01 0. -1.
<mgrwt>
<rscale>  2 0.12500340E+03</rscale>
<asrwt>0</asrwt>
<pdfrwt beam="1">  1       21 0.19762745E-01 0.12500340E+03</pdfrwt>
<pdfrwt beam="2">  1       21 0.46785331E-02 0.12500340E+03</pdfrwt>
<totfact> 0.69652012E+06</totfact>
</mgrwt>
</event>
<event>
 5    0  0.1222151E+000  0.1249998E+03  0.7546771E-02  0.1235070E+00
         21   -1    0    0  503  502  0.00000000000E+00  0.00000000000E+00  0.14769059907E+04  0.14769059907E+04  0.00000000000E+00 0.  1.
         21   -1    0    0  502  503 -0.00000000000E+00 -0.00000000000E+00 -0.26448773243E+01  0.26448773243E+01  0.00000000000E+00 0.  1.
         25    2    1    2    0    0  0.00000000000E+00  0.00000000000E+00  0.14742611134E+04  0.14795508680E+04  0.12499976264E+03 0.  0.
          4    1    3    3  501    0 -0.52649614388E+02  0.87204021047E+01  0.11217335353E+04  0.11230033633E+04  0.15500000000E+01 0. -1.
         -4    1    3    3    0  501  0.52649614388E+02 -0.87204021047E+01  0.35252757809E+03  0.35654750472E+03  0.15500000000E+01 0. -1.
<mgrwt>
<rscale>  2 0.12499976E+03</rscale>
<asrwt>0</asrwt>
<pdfrwt beam="1">  1       21 0.22721565E+00 0.12499976E+03</pdfrwt>
<pdfrwt beam="2">  1       21 0.40690538E-03 0.12499976E+03</pdfrwt>
<totfact> 0.14299176E+06</totfact>
</mgrwt>
</event>
<event>
 5    0  0.1444198E+000  0.1249956E+03  0.7546771E-02  0.1235076E+00
         21   -1    0    0  503  502  0.00000000000E+00  0.00000000000E+00  0.30245433124E+03  0.30245433124E+03  0.00000000000E+00 0.  1.
         21   -1    0    0  502  503 -0.00000000000E+00 -0.00000000000E+00 -0.12914273419E+02  0.12914273419E+02  0.00000000000E+00 0.  1.
         25    2    1    2    0    0  0.00000000000E+00  0.00000000000E+00  0.28954005782E+03  0.31536860465E+03  0.12499564681E+03 0.  0.
          4    1    3    3  501    0 -0.21365090898E+02  0.57334964511E+02  0.11287479662E+03  0.12840127521E+03  0.15500000000E+01 0. -1.
         -4    1    3    3    0  501  0.21365090898E+02 -0.57334964511E+02  0.17666526120E+03  0.18696732944E+03  0.15500000000E+01 0. -1.
<mgrwt>
<rscale>  2 0.12499565E+03</rscale>
<asrwt>0</asrwt>
<pdfrwt beam="1">  1       21 0.46531430E-01 0.12499565E+03</pdfrwt>
<pdfrwt beam="2">  1       21 0.19868115E-02 0.12499565E+03</pdfrwt>
<totfact> 0.54208334E+06</totfact>
</mgrwt>
</event>
<event>
 5    0  0.1498174E+000  0.1250187E+03  0.7546771E-02  0.1235040E+00
         21   -1    0    0  503  502  0.00000000000E+00  0.00000000000E+00  0.30558787156E+02  0.30558787156E+02  0.00000000000E+00 0. -1.
         21   -1    0    0  502  503 -0.00000000000E+00 -0.00000000000E+00 -0.12786555568E+03  0.12786555568E+03  0.00000000000E+00 0. -1.
         25    2    1    2    0    0  0.00000000000E+00  0.00000000000E+00 -0.97306768523E+02  0.15842434284E+03  0.12501865942E+03 0.  0.
          4    1    3    3  501    0 -0.33317944381E+02 -0.10040347733E+02  0.17120808770E+02  0.38812608690E+02  0.15500000000E+01 0. -1.
         -4    1    3    3    0  501  0.33317944381E+02  0.10040347733E+02 -0.11442757729E+03  0.11961173415E+03  0.15500000000E+01 0. -1.
<mgrwt>
<rscale>  2 0.12501866E+03</rscale>
<asrwt>0</asrwt>
<pdfrwt beam="1">  1       21 0.47013520E-02 0.12501866E+03</pdfrwt>
<pdfrwt beam="2">  1       21 0.19671624E-01 0.12501866E+03</pdfrwt>
<totfact> 0.69679472E+06</totfact>
</mgrwt>
</event>
<event>
 5    0  0.1222151E+000  0.1249919E+03  0.7546771E-02  0.1235082E+00
         21   -1    0    0  503  502  0.00000000000E+00  0.00000000000E+00  0.78401774147E+03  0.78401774147E+03  0.00000000000E+00 0.  1.
         21   -1    0    0  502  503 -0.00000000000E+00 -0.00000000000E+00 -0.49817070740E+01  0.49817070740E+01  0.00000000000E+00 0.  1.
         25    2    1    2    0    0  0.00000000000E+00  0.00000000000E+00  0.77903603439E+03  0.78899944854E+03  0.12499194740E+03 0.  0.
          4    1    3    3  501    0 -0.54988289374E+02  0.26493444431E+02  0.30536404433E+03  0.31140844022E+03  0.15500000000E+01 0. -1.
         -4    1    3    3    0  501  0.54988289374E+02 -0.26493444431E+02  0.47367199006E+03  0.47759100833E+03  0.15500000000E+01 0. -1.
<mgrwt>
<rscale>  2 0.12499195E+03</rscale>
<asrwt>0</asrwt>
<pdfrwt beam="1">  1       21 0.12061802E+00 0.12499195E+03</pdfrwt>
<pdfrwt beam="2">  1       21 0.76641709E-03 0.12499195E+03</pdfrwt>
<totfact> 0.29736501E+06</totfact>
</mgrwt>
</event>
<event>
 5    0  0.1431314E+000  0.1249960E+03  0.7546771E-02  0.1235076E+00
         21   -1    0    0  503  502  0.00000000000E+00  0.00000000000E+00  0.12702836226E+02  0.12702836226E+02  0.00000000000E+00 0. -1.
         21   -1    0    0  502  503 -0.00000000000E+00 -0.00000000000E+00 -0.30749048388E+03  0.30749048388E+03  0.00000000000E+00 0. -1.
         25    2    1    2    0    0  0.00000000000E+00  0.00000000000E+00 -0.29478764766E+03  0.32019332011E+03  0.12499602006E+03 0.  0.
          4    1    3    3  501    0  0.46968876804E+02  0.16254934384E+02 -0.50413259902E+02  0.70810998821E+02  0.15500000000E+01 0.  1.
         -4    1    3    3    0  501 -0.46968876804E+02 -0.16254934384E+02 -0.24437438775E+03  0.24938232129E+03  0.15500000000E+01 0.  1.
<mgrwt>
<rscale>  2 0.12499602E+03</rscale>
<asrwt>0</asrwt>
<pdfrwt beam="1">  1       21 0.19542827E-02 0.12499602E+03</pdfrwt>
<pdfrwt beam="2">  1       21 0.47306224E-01 0.12499602E+03</pdfrwt>
<totfact> 0.53823402E+06</totfact>
</mgrwt>
</event>
<event>
 5    0  0.1583986E+000  0.1249970E+03  0.7546771E-02  0.1235074E+00
         21   -1    0    0  503  502  0.00000000000E+00  0.00000000000E+00  0.32175217724E+02  0.32175217724E+02  0.00000000000E+00 0.  1.
         21   -1    0    0  502  503 -0.00000000000E+00 -0.00000000000E+00 -0.12139981405E+03  0.12139981405E+03  0.00000000000E+00 0.  1.
         25    2    1    2    0    0  0.00000000000E+00  0.00000000000E+00 -0.89224596322E+02  0.15357503177E+03  0.12499704714E+03 0.  0.
          4    1    3    3  501    0  0.25596076939E+01 -0.48616092604E+02  0.35020996757E+01  0.48833833085E+02  0.15500000000E+01 0. -1.
         -4    1    3    3    0  501 -0.25596076939E+01  0.48616092604E+02 -0.92726695998E+02  0.10474119869E+03  0.15500000000E+01 0. -1.
<mgrwt>
<rscale>  2 0.12499705E+03</rscale>
<asrwt>0</asrwt>
<pdfrwt beam="1">  1       21 0.49500336E-02 0.12499705E+03</pdfrwt>
<pdfrwt beam="2">  1       21 0.18676894E-01 0.12499705E+03</pdfrwt>
<totfact> 0.70318231E+06</totfact>
</mgrwt>
</event>
<event>
 5    0  0.1224603E+000  0.1249833E+03  0.7546771E-02  0.1235095E+00
         21   -1    0    0  503  502  0.00000000000E+00  0.00000000000E+00  0.48504257096E+01  0.48504257096E+01  0.00000000000E+00 0. -1.
         21   -1    0    0  502  503 -0.00000000000E+00 -0.00000000000E+00 -0.80512707995E+03  0.80512707995E+03  0.00000000000E+00 0. -1.
         25    2    1    2    0    0  0.00000000000E+00  0.00000000000E+00 -0.80027665424E+03  0.80997750566E+03  0.12498334430E+03 0.  0.
          4    1    3    3  501    0 -0.20111719314E+02  0.58688600826E+02 -0.44774972981E+03  0.45202992839E+03  0.15500000000E+01 0.  1.
         -4    1    3    3    0  501  0.20111719314E+02 -0.58688600826E+02 -0.35252692444E+03  0.35794757727E+03  0.15500000000E+01 0.  1.
<mgrwt>
<rscale>  2 0.12498334E+03</rscale>
<asrwt>0</asrwt>
<pdfrwt beam="1">  1       21 0.74621977E-03 0.12498334E+03</pdfrwt>
<pdfrwt beam="2">  1       21 0.12386563E+00 0.12498334E+03</pdfrwt>
<totfact> 0.29046883E+06</totfact>
</mgrwt>
</event>
<event>
 5    0  0.1482199E+000  0.1249987E+03  0.7546771E-02  0.1235071E+00
         21   -1    0    0  503  502  0.00000000000E+00  0.00000000000E+00  0.10646190288E+03  0.10646190288E+03  0.00000000000E+00 0. -1.
         21   -1    0    0  502  503 -0.00000000000E+00 -0.00000000000E+00 -0.36690751259E+02  0.36690751259E+02  0.00000000000E+00 0. -1.
         25    2    1    2    0    0  0.00000000000E+00  0.00000000000E+00  0.69771151618E+02  0.14315265414E+03  0.12499867515E+03 0.  0.
          4    1    3    3  501    0 -0.12256205889E+02  0.23488825426E+02  0.99688231384E+02  0.10316048410E+03  0.15500000000E+01 0.  1.
         -4    1    3    3    0  501  0.12256205889E+02 -0.23488825426E+02 -0.29917079766E+02  0.39992170039E+02  0.15500000000E+01 0.  1.
<mgrwt>
<rscale>  2 0.12499868E+03</rscale>
<asrwt>0</asrwt>
<pdfrwt beam="1">  1       21 0.16378754E-01 0.12499868E+03</pdfrwt>
<pdfrwt beam="2">  1       21 0.56447310E-02 0.12499868E+03</pdfrwt>
<totfact> 0.71632778E+06</totfact>
</mgrwt>
</event>
<event>
 5    0  0.1222151E+000  0.1250020E+03  0.7546771E-02  0.1235066E+00
         21   -1    0    0  503  502  0.00000000000E+00  0.00000000000E+00  0.81418241701E+03  0.81418241701E+03  0.00000000000E+00 0. -1.
         21   -1    0    0  502  503 -0.00000000000E+00 -0.00000000000E+00 -0.47979146879E+01  0.47979146879E+01  0.00000000000E+00 0. -1.
         25    2    1    2    0    0  0.00000000000E+00  0.00000000000E+00  0.80938450232E+03  0.81898033170E+03  0.12500204442E+03 0.  0.
          4    1    3    3  501    0 -0.22864723538E+02  0.55079126802E+02  0.52682009553E+03  0.53018706260E+03  0.15500000000E+01 0.  1.
         -4    1    3    3    0  501  0.22864723538E+02 -0.55079126802E+02  0.28256440679E+03  0.28879326910E+03  0.15500000000E+01 0.  1.
<mgrwt>
<rscale>  2 0.12500204E+03</rscale>
<asrwt>0</asrwt>
<pdfrwt beam="1">  1       21 0.12525872E+00 0.12500204E+03</pdfrwt>
<pdfrwt beam="2">  1       21 0.73814137E-03 0.12500204E+03</pdfrwt>
<totfact> 0.28742101E+06</totfact>
</mgrwt>
</event>
<event>
 5    0  0.1411221E+000  0.1250021E+03  0.7546771E-02  0.1235066E+00
         21   -1    0    0  503  502  0.00000000000E+00  0.00000000000E+00  0.31988944781E+02  0.31988944781E+02  0.00000000000E+00 0.  1.
         21   -1    0    0  502  503 -0.00000000000E+00 -0.00000000000E+00 -0.12211661615E+03  0.12211661615E+03  0.00000000000E+00 0.  1.
         25    2    1    2    0    0  0.00000000000E+00  0.00000000000E+00 -0.90127671368E+02  0.15410556093E+03  0.12500210704E+03 0.  0.
          4    1    3    3  501    0 -0.42311722620E+02 -0.38080382070E+01  0.11420430266E+02  0.44018311571E+02  0.15500000000E+01 0.  1.
         -4    1    3    3    0  501  0.42311722620E+02  0.38080382070E+01 -0.10154810163E+03  0.11008724936E+03  0.15500000000E+01 0.  1.
<mgrwt>
<rscale>  2 0.12500211E+03</rscale>
<asrwt>0</asrwt>
<pdfrwt beam="1">  1       21 0.49213762E-02 0.12500211E+03</pdfrwt>
<pdfrwt beam="2">  1       21 0.18787172E-01 0.12500211E+03</pdfrwt>
<totfact> 0.70243232E+06</totfact>
</mgrwt>
</event>
<event>
 4    0  0.1335658E+000  0.1251731E+03  0.7546771E-02  0.1234799E+00
         21   -1    0    0  503  502  0.00000000000E+00  0.00000000000E+00  0.74171985766E+01  0.74171985766E+01  0.00000000000E+00 0. -1.
         21   -1    0    0  502  503 -0.00000000000E+00 -0.00000000000E+00 -0.52810746249E+03  0.52810746249E+03  0.00000000000E+00 0. -1.
          4    1    1    2  501    0  0.34957526372E+02 -0.48573571001E+02 -0.33844614929E+03  0.34369989660E+03  0.15500000000E+01 0.  1.
         -4    1    1    2    0  501 -0.34957526372E+02  0.48573571001E+02 -0.18224411462E+03  0.19182476447E+03  0.15500000000E+01 0.  1.
<mgrwt>
<rscale>  2 0.12517313E+03</rscale>
<asrwt>0</asrwt>
<pdfrwt beam="1">  1       21 0.11411067E-02 0.12517313E+03</pdfrwt>
<pdfrwt beam="2">  1       21 0.81247353E-01 0.12517313E+03</pdfrwt>
<totfact> 0.40008193E+06</totfact>
</mgrwt>
</event>
<event>
 5    0  0.1397712E+000  0.1250018E+03  0.7546771E-02  0.1235066E+00
         21   -1    0    0  503  502  0.00000000000E+00  0.00000000000E+00  0.69710871240E+02  0.69710871240E+02  0.00000000000E+00 0.  1.
         21   -1    0    0  502  503 -0.00000000000E+00 -0.00000000000E+00 -0.56036652753E+02  0.56036652753E+02  0.00000000000E+00 0.  1.
         25    2    1    2    0    0  0.00000000000E+00  0.00000000000E+00  0.13674218487E+02  0.12574752399E+03  0.12500182214E+03 0.  0.
          4    1    3    3  501    0  0.30216623997E+02  0.92509810163E+00  0.61844765149E+02  0.68855483794E+02  0.15500000000E+01 0.  1.
         -4    1    3    3    0  501 -0.30216623997E+02 -0.92509810163E+00 -0.48170546662E+02  0.56892040199E+02  0.15500000000E+01 0.  1.
<mgrwt>
<rscale>  2 0.12500182E+03</rscale>
<asrwt>0</asrwt>
<pdfrwt beam="1">  1       21 0.10724749E-01 0.12500182E+03</pdfrwt>
<pdfrwt beam="2">  1       21 0.86210235E-02 0.12500182E+03</pdfrwt>
<totfact> 0.73937507E+06</totfact>
</mgrwt>
</event>
<event>
 5    0  0.1410096E+000  0.1249830E+03  0.7546771E-02  0.1235096E+00
         21   -1    0    0  503  502  0.00000000000E+00  0.00000000000E+00  0.15543332073E+02  0.15543332073E+02  0.00000000000E+00 0. -1.
         21   -1    0    0  502  503 -0.00000000000E+00 -0.00000000000E+00 -0.25124520857E+03  0.25124520857E+03  0.00000000000E+00 0. -1.
         25    2    1    2    0    0  0.00000000000E+00  0.00000000000E+00 -0.23570187649E+03  0.26678854064E+03  0.12498300218E+03 0.  0.
          4    1    3    3  501    0  0.45201360919E+02  0.83378788412E+01 -0.20816494342E+03  0.21318473074E+03  0.15500000000E+01 0. -1.
         -4    1    3    3    0  501 -0.45201360919E+02 -0.83378788412E+01 -0.27536933073E+02  0.53603809898E+02  0.15500000000E+01 0. -1.
<mgrwt>
<rscale>  2 0.12498300E+03</rscale>
<asrwt>0</asrwt>
<pdfrwt beam="1">  1       21 0.23912819E-02 0.12498300E+03</pdfrwt>
<pdfrwt beam="2">  1       21 0.38653109E-01 0.12498300E+03</pdfrwt>
<totfact> 0.58357571E+06</totfact>
</mgrwt>
</event>
<event>
 5    0  0.1527639E+000  0.1249971E+03  0.7546771E-02  0.1235074E+00
         21   -1    0    0  503  502  0.00000000000E+00  0.00000000000E+00  0.67101462954E+02  0.67101462954E+02  0.00000000000E+00 0. -1.
         21   -1    0    0  502  503 -0.00000000000E+00 -0.00000000000E+00 -0.58211337935E+02  0.58211337935E+02  0.00000000000E+00 0. -1.
         25    2    1    2    0    0  0.00000000000E+00  0.00000000000E+00  0.88901250195E+01  0.12531280089E+03  0.12499705494E+03 0.  0.
          4    1    3    3  501    0 -0.32450124025E+02  0.29354761275E+01  0.57890475038E+02  0.66448003503E+02  0.15500000000E+01 0. -1.
         -4    1    3    3    0  501  0.32450124025E+02 -0.29354761275E+01 -0.49000350019E+02  0.58864797386E+02  0.15500000000E+01 0. -1.
<mgrwt>
<rscale>  2 0.12499705E+03</rscale>
<asrwt>0</asrwt>
<pdfrwt beam="1">  1       21 0.10323302E-01 0.12499705E+03</pdfrwt>
<pdfrwt beam="2">  1       21 0.89555905E-02 0.12499705E+03</pdfrwt>
<totfact> 0.74006915E+06</totfact>
</mgrwt>
</event>
<event>
 5    0  0.1305149E+000  0.1250001E+03  0.7546771E-02  0.1235069E+00
         21   -1    0    0  503  502  0.00000000000E+00  0.00000000000E+00  0.53603643335E+03  0.53603643335E+03  0.00000000000E+00 0.  1.
         21   -1    0    0  502  503 -0.00000000000E+00 -0.00000000000E+00 -0.72872925960E+01  0.72872925960E+01  0.00000000000E+00 0.  1.
         25    2    1    2    0    0  0.00000000000E+00  0.00000000000E+00  0.52874914075E+03  0.54332372594E+03  0.12500006931E+03 0.  0.
          4    1    3    3  501    0 -0.19171698446E+02 -0.57975955240E+02  0.20686042728E+03  0.21569052896E+03  0.15500000000E+01 0.  1.
         -4    1    3    3    0  501  0.19171698446E+02  0.57975955240E+02  0.32188871347E+03  0.32763319698E+03  0.15500000000E+01 0.  1.
<mgrwt>
<rscale>  2 0.12500007E+03</rscale>
<asrwt>0</asrwt>
<pdfrwt beam="1">  1       21 0.82467112E-01 0.12500007E+03</pdfrwt>
<pdfrwt beam="2">  1       21 0.11211224E-02 0.12500007E+03</pdfrwt>
<totfact> 0.39787889E+06</totfact>
</mgrwt>
</event>
<event>
 5    0  0.1430016E+000  0.1250033E+03  0.7546771E-02  0.1235064E+00
         21   -1    0    0  503  502  0.00000000000E+00  0.00000000000E+00  0.12122432998E+02  0.12122432998E+02  0.00000000000E+00 0. -1.
         21   -1    0    0  502  503 -0.00000000000E+00 -0.00000000000E+00 -0.32225022518E+03  0.32225022518E+03  0.00000000000E+00 0. -1.
         25    2    1    2    0    0  0.00000000000E+00  0.00000000000E+00 -0.31012779218E+03  0.33437265817E+03  0.12500330817E+03 0.  0.
          4    1    3    3  501    0  0.43009307805E+02 -0.41453926990E+02 -0.20408309148E+03  0.21265121525E+03  0.15500000000E+01 0. -1.
         -4    1    3    3    0  501 -0.43009307805E+02  0.41453926990E+02 -0.10604470070E+03  0.12172144292E+03  0.15500000000E+01 0. -1.
<mgrwt>
<rscale>  2 0.12500331E+03</rscale>
<asrwt>0</asrwt>
<pdfrwt beam="1">  1       21 0.18649897E-02 0.12500331E+03</pdfrwt>
<pdfrwt beam="2">  1       21 0.49576957E-01 0.12500331E+03</pdfrwt>
<totfact> 0.52709309E+06</totfact>
</mgrwt>
</event>
<event>
 5    0  0.1469571E+000  0.1249890E+03  0.7546771E-02  0.1235087E+00
         21   -1    0    0  503  502  0.00000000000E+00  0.00000000000E+00  0.26787980504E+03  0.26787980504E+03  0.00000000000E+00 0. -1.
         21   -1    0    0  502  503 -0.00000000000E+00 -0.00000000000E+00 -0.14579526109E+02  0.14579526109E+02  0.00000000000E+00 0. -1.
         25    2    1    2    0    0  0.00000000000E+00  0.00000000000E+00  0.25330027893E+03  0.28245933115E+03  0.12498896930E+03 0.  0.
          4    1    3    3  501    0 -0.53663956442E+02 -0.85019831810E+01  0.19634277162E+03  0.20372773598E+03  0.15500000000E+01 0.  1.
         -4    1    3    3    0  501  0.53663956442E+02  0.85019831810E+01  0.56957507308E+02  0.78731595168E+02  0.15500000000E+01 0.  1.
<mgrwt>
<rscale>  2 0.12498897E+03</rscale>
<asrwt>0</asrwt>
<pdfrwt beam="1">  1       21 0.41212274E-01 0.12498897E+03</pdfrwt>
<pdfrwt beam="2">  1       21 0.22430042E-02 0.12498897E+03</pdfrwt>
<totfact> 0.56961924E+06</totfact>
</mgrwt>
</event>
<event>
 5    0  0.1570431E+000  0.1250042E+03  0.7546771E-02  0.1235063E+00
         21   -1    0    0  503  502  0.00000000000E+00  0.00000000000E+00  0.71153112999E+02  0.71153112999E+02  0.00000000000E+00 0. -1.
         21   -1    0    0  502  503 -0.00000000000E+00 -0.00000000000E+00 -0.54902935024E+02  0.54902935024E+02  0.00000000000E+00 0. -1.
         25    2    1    2    0    0  0.00000000000E+00  0.00000000000E+00  0.16250177975E+02  0.12605604802E+03  0.12500423576E+03 0.  0.
          4    1    3    3  501    0 -0.55810540645E+02  0.21519157379E+02 -0.10088492524E+02  0.60680068909E+02  0.15500000000E+01 0.  1.
         -4    1    3    3    0  501  0.55810540645E+02 -0.21519157379E+02  0.26338670499E+02  0.65375979114E+02  0.15500000000E+01 0.  1.
<mgrwt>
<rscale>  2 0.12500424E+03</rscale>
<asrwt>0</asrwt>
<pdfrwt beam="1">  1       21 0.10946633E-01 0.12500424E+03</pdfrwt>
<pdfrwt beam="2">  1       21 0.84466054E-02 0.12500424E+03</pdfrwt>
<totfact> 0.73890329E+06</totfact>
</mgrwt>
</event>
<event>
 5    0  0.1284250E+000  0.1250008E+03  0.7546771E-02  0.1235068E+00
         21   -1    0    0  503  502  0.00000000000E+00  0.00000000000E+00  0.71681761046E+01  0.71681761046E+01  0.00000000000E+00 0. -1.
         21   -1    0    0  502  503 -0.00000000000E+00 -0.00000000000E+00 -0.54495031875E+03  0.54495031875E+03  0.00000000000E+00 0. -1.
         25    2    1    2    0    0  0.00000000000E+00  0.00000000000E+00 -0.53778214264E+03  0.55211849485E+03  0.12500079765E+03 0.  0.
          4    1    3    3  501    0  0.60273952914E+02  0.15890215687E+02 -0.28786275651E+03  0.29453831234E+03  0.15500000000E+01 0. -1.
         -4    1    3    3    0  501 -0.60273952914E+02 -0.15890215687E+02 -0.24991938613E+03  0.25758018251E+03  0.15500000000E+01 0. -1.
<mgrwt>
<rscale>  2 0.12500080E+03</rscale>
<asrwt>0</asrwt>
<pdfrwt beam="1">  1       21 0.11027960E-02 0.12500080E+03</pdfrwt>
<pdfrwt beam="2">  1       21 0.83838533E-01 0.12500080E+03</pdfrwt>
<totfact> 0.39350811E+06</totfact>
</mgrwt>
</event>
<event>
 5    0  0.1222151E+000  0.1250008E+03  0.7546771E-02  0.1235068E+00
         21   -1    0    0  503  502  0.00000000000E+00  0.00000000000E+00  0.14677756247E+02  0.14677756247E+02  0.00000000000E+00 0. -1.
         21   -1    0    0  502  503 -0.00000000000E+00 -0.00000000000E+00 -0.26613752615E+03  0.26613752615E+03  0.00000000000E+00 0. -1.
         25    2    1    2    0    0  0.00000000000E+00  0.00000000000E+00 -0.25145976990E+03  0.28081528239E+03  0.12500082779E+03 0.  0.
          4    1    3    3  501    0  0.18451728068E+02  0.11692077812E+02 -0.25723652587E+03  0.25816700737E+03  0.15500000000E+01 0.  1.
         -4    1    3    3    0  501 -0.18451728068E+02 -0.11692077812E+02  0.57767559665E+01  0.22648275028E+02  0.15500000000E+01 0.  1.
<mgrwt>
<rscale>  2 0.12500083E+03</rscale>
<asrwt>0</asrwt>
<pdfrwt beam="1">  1       21 0.22581163E-02 0.12500083E+03</pdfrwt>
<pdfrwt beam="2">  1       21 0.40944235E-01 0.12500083E+03</pdfrwt>
<totfact> 0.57087971E+06</totfact>
</mgrwt>
</event>
<event>
 5    0  0.1640253E+000  0.1249995E+03  0.7546771E-02  0.1235070E+00
         21   -1    0    0  503  502  0.00000000000E+00  0.00000000000E+00  0.11723744410E+03  0.11723744410E+03  0.00000000000E+00 0.  1.
         21   -1    0    0  502  503 -0.00000000000E+00 -0.00000000000E+00 -0.33318848137E+02  0.33318848137E+02  0.00000000000E+00 0.  1.
         25    2    1    2    0    0  0.00000000000E+00  0.00000000000E+00  0.83918595958E+02  0.15055629223E+03  0.12499946553E+03 0.  0.
          4    1    3    3  501    0  0.96693462155E+01 -0.60661142315E+02  0.28197707348E+02  0.67607570899E+02  0.15500000000E+01 0.  1.
         -4    1    3    3    0  501 -0.96693462155E+01  0.60661142315E+02  0.55720888610E+02  0.82948721333E+02  0.15500000000E+01 0.  1.
<mgrwt>
<rscale>  2 0.12499947E+03</rscale>
<asrwt>0</asrwt>
<pdfrwt beam="1">  1       21 0.18036530E-01 0.12499947E+03</pdfrwt>
<pdfrwt beam="2">  1       21 0.51259767E-02 0.12499947E+03</pdfrwt>
<totfact> 0.70690352E+06</totfact>
</mgrwt>
</event>
<event>
 5    0  0.1511435E+000  0.1250005E+03  0.7546771E-02  0.1235068E+00
         21   -1    0    0  503  502  0.00000000000E+00  0.00000000000E+00  0.13561488625E+03  0.13561488625E+03  0.00000000000E+00 0.  1.
         21   -1    0    0  502  503 -0.00000000000E+00 -0.00000000000E+00 -0.28804239572E+02  0.28804239572E+02  0.00000000000E+00 0.  1.
         25    2    1    2    0    0  0.00000000000E+00  0.00000000000E+00  0.10681064668E+03  0.16441912583E+03  0.12500053877E+03 0.  0.
          4    1    3    3  501    0 -0.37239191589E+02  0.45342408796E+02  0.25157806771E+02  0.63859291940E+02  0.15500000000E+01 0. -1.
         -4    1    3    3    0  501  0.37239191589E+02 -0.45342408796E+02  0.81652839911E+02  0.10055983389E+03  0.15500000000E+01 0. -1.
<mgrwt>
<rscale>  2 0.12500054E+03</rscale>
<asrwt>0</asrwt>
<pdfrwt beam="1">  1       21 0.20863828E-01 0.12500054E+03</pdfrwt>
<pdfrwt beam="2">  1       21 0.44314216E-02 0.12500054E+03</pdfrwt>
<totfact> 0.68982573E+06</totfact>
</mgrwt>
</event>
<event>
 5    0  0.1448867E+000  0.1250018E+03  0.7546771E-02  0.1235066E+00
         21   -1    0    0  503  502  0.00000000000E+00  0.00000000000E+00  0.15306125370E+02  0.15306125370E+02  0.00000000000E+00 0.  1.
         21   -1    0    0  502  503 -0.00000000000E+00 -0.00000000000E+00 -0.25521577218E+03  0.25521577218E+03  0.00000000000E+00 0.  1.
         25    2    1    2    0    0  0.00000000000E+00  0.00000000000E+00 -0.23990964681E+03  0.27052189755E+03  0.12500183367E+03 0.  0.
          4    1    3    3  501    0  0.14740546890E+02 -0.47115228808E+02 -0.20283992338E+03  0.20876677304E+03  0.15500000000E+01 0. -1.
         -4    1    3    3    0  501 -0.14740546890E+02  0.47115228808E+02 -0.37069723430E+02  0.61755124512E+02  0.15500000000E+01 0. -1.
<mgrwt>
<rscale>  2 0.12500183E+03</rscale>
<asrwt>0</asrwt>
<pdfrwt beam="1">  1       21 0.23547885E-02 0.12500183E+03</pdfrwt>
<pdfrwt beam="2">  1       21 0.39263965E-01 0.12500183E+03</pdfrwt>
<totfact> 0.57995420E+06</totfact>
</mgrwt>
</event>
<event>
 5    0  0.1564491E+000  0.1249992E+03  0.7546771E-02  0.1235070E+00
         21   -1    0    0  503  502  0.00000000000E+00  0.00000000000E+00  0.10936734132E+03  0.10936734132E+03  0.00000000000E+00 0. -1.
         21   -1    0    0  502  503 -0.00000000000E+00 -0.00000000000E+00 -0.35716353752E+02  0.35716353752E+02  0.00000000000E+00 0. -1.
         25    2    1    2    0    0  0.00000000000E+00  0.00000000000E+00  0.73650987569E+02  0.14508369507E+03  0.12499924242E+03 0.  0.
          4    1    3    3  501    0 -0.52400224613E+02  0.19451631944E+02  0.69234166360E+02  0.88993942583E+02  0.15500000000E+01 0. -1.
         -4    1    3    3    0  501  0.52400224613E+02 -0.19451631944E+02  0.44168212087E+01  0.56089752490E+02  0.15500000000E+01 0. -1.
<mgrwt>
<rscale>  2 0.12499924E+03</rscale>
<asrwt>0</asrwt>
<pdfrwt beam="1">  1       21 0.16825745E-01 0.12499924E+03</pdfrwt>
<pdfrwt beam="2">  1       21 0.54948237E-02 0.12499924E+03</pdfrwt>
<totfact> 0.71383767E+06</totfact>
</mgrwt>
</event>
<event>
 5    0  0.1545541E+000  0.1250136E+03  0.7546771E-02  0.1235048E+00
         21   -1    0    0  503  502  0.00000000000E+00  0.00000000000E+00  0.18502344093E+02  0.18502344093E+02  0.00000000000E+00 0. -1.
         21   -1    0    0  502  503 -0.00000000000E+00 -0.00000000000E+00 -0.21116774331E+03  0.21116774331E+03  0.00000000000E+00 0. -1.
         25    2    1    2    0    0  0.00000000000E+00  0.00000000000E+00 -0.19266539921E+03  0.22967008740E+03  0.12501357123E+03 0.  0.
          4    1    3    3  501    0  0.50544438377E+02  0.26995380500E+02 -0.14212207510E+03  0.15324678643E+03  0.15500000000E+01 0. -1.
         -4    1    3    3    0  501 -0.50544438377E+02 -0.26995380500E+02 -0.50543324113E+02  0.76423300972E+02  0.15500000000E+01 0. -1.
<mgrwt>
<rscale>  2 0.12501357E+03</rscale>
<asrwt>0</asrwt>
<pdfrwt beam="1">  1       21 0.28465144E-02 0.12501357E+03</pdfrwt>
<pdfrwt beam="2">  1       21 0.32487346E-01 0.12501357E+03</pdfrwt>
<totfact> 0.61825641E+06</totfact>
</mgrwt>
</event>
<event>
 5    0  0.1435401E+000  0.1250103E+03  0.7546771E-02  0.1235053E+00
         21   -1    0    0  503  502  0.00000000000E+00  0.00000000000E+00  0.11109156349E+02  0.11109156349E+02  0.00000000000E+00 0.  1.
         21   -1    0    0  502  503 -0.00000000000E+00 -0.00000000000E+00 -0.35168224808E+03  0.35168224808E+03  0.00000000000E+00 0.  1.
         25    2    1    2    0    0  0.00000000000E+00  0.00000000000E+00 -0.34057309173E+03  0.36279140443E+03  0.12501028884E+03 0.  0.
          4    1    3    3  501    0  0.38875322051E+01  0.60329882378E+02 -0.21614355083E+03  0.22444430195E+03  0.15500000000E+01 0.  1.
         -4    1    3    3    0  501 -0.38875322051E+01 -0.60329882378E+02 -0.12442954090E+03  0.13834710248E+03  0.15500000000E+01 0.  1.
<mgrwt>
<rscale>  2 0.12501029E+03</rscale>
<asrwt>0</asrwt>
<pdfrwt beam="1">  1       21 0.17091012E-02 0.12501029E+03</pdfrwt>
<pdfrwt beam="2">  1       21 0.54104954E-01 0.12501029E+03</pdfrwt>
<totfact> 0.50594373E+06</totfact>
</mgrwt>
</event>
<event>
 5    0  0.1222151E+000  0.1250030E+03  0.7546771E-02  0.1235065E+00
         21   -1    0    0  503  502  0.00000000000E+00  0.00000000000E+00  0.97589942298E+02  0.97589942298E+02  0.00000000000E+00 0. -1.
         21   -1    0    0  502  503 -0.00000000000E+00 -0.00000000000E+00 -0.40029092092E+02  0.40029092092E+02  0.00000000000E+00 0. -1.
         25    2    1    2    0    0  0.00000000000E+00  0.00000000000E+00  0.57560850207E+02  0.13761903439E+03  0.12500298856E+03 0.  0.
          4    1    3    3  501    0  0.23295334587E+02  0.59268985554E+01  0.92274687111E+02  0.95366771579E+02  0.15500000000E+01 0. -1.
         -4    1    3    3    0  501 -0.23295334587E+02 -0.59268985554E+01 -0.34713836904E+02  0.42252262811E+02  0.15500000000E+01 0. -1.
<mgrwt>
<rscale>  2 0.12500299E+03</rscale>
<asrwt>0</asrwt>
<pdfrwt beam="1">  1       21 0.15013837E-01 0.12500299E+03</pdfrwt>
<pdfrwt beam="2">  1       21 0.61583219E-02 0.12500299E+03</pdfrwt>
<totfact> 0.72346002E+06</totfact>
</mgrwt>
</event>
<event>
 5    0  0.1564745E+000  0.1249850E+03  0.7546771E-02  0.1235093E+00
         21   -1    0    0  503  502  0.00000000000E+00  0.00000000000E+00  0.87392535847E+02  0.87392535847E+02  0.00000000000E+00 0.  1.
         21   -1    0    0  502  503 -0.00000000000E+00 -0.00000000000E+00 -0.44686993423E+02  0.44686993423E+02  0.00000000000E+00 0.  1.
         25    2    1    2    0    0  0.00000000000E+00  0.00000000000E+00  0.42705542424E+02  0.13207952927E+03  0.12498495389E+03 0.  0.
          4    1    3    3  501    0 -0.39910948676E+02  0.45201440092E+02  0.40898632005E+01  0.60458113530E+02  0.15500000000E+01 0. -1.
         -4    1    3    3    0  501  0.39910948676E+02 -0.45201440092E+02  0.38615679224E+02  0.71621415740E+02  0.15500000000E+01 0. -1.
<mgrwt>
<rscale>  2 0.12498495E+03</rscale>
<asrwt>0</asrwt>
<pdfrwt beam="1">  1       21 0.13445006E-01 0.12498495E+03</pdfrwt>
<pdfrwt beam="2">  1       21 0.68749221E-02 0.12498495E+03</pdfrwt>
<totfact> 0.73113623E+06</totfact>
</mgrwt>
</event>
<event>
 5    0  0.1667369E+000  0.1249936E+03  0.7546771E-02  0.1235079E+00
         21   -1    0    0  503  502  0.00000000000E+00  0.00000000000E+00  0.13892758621E+03  0.13892758621E+03  0.00000000000E+00 0. -1.
         21   -1    0    0  502  503 -0.00000000000E+00 -0.00000000000E+00 -0.28114271337E+02  0.28114271337E+02  0.00000000000E+00 0. -1.
         25    2    1    2    0    0  0.00000000000E+00  0.00000000000E+00  0.11081331487E+03  0.16704185755E+03  0.12499356551E+03 0.  0.
          4    1    3    3  501    0  0.57695332330E+02 -0.23212206603E+02  0.63412534843E+02  0.88831919845E+02  0.15500000000E+01 0.  1.
         -4    1    3    3    0  501 -0.57695332330E+02  0.23212206603E+02  0.47400780030E+02  0.78209937703E+02  0.15500000000E+01 0.  1.
<mgrwt>
<rscale>  2 0.12499357E+03</rscale>
<asrwt>0</asrwt>
<pdfrwt beam="1">  1       21 0.21373474E-01 0.12499357E+03</pdfrwt>
<pdfrwt beam="2">  1       21 0.43252726E-02 0.12499357E+03</pdfrwt>
<totfact> 0.68680357E+06</totfact>
</mgrwt>
</event>
<event>
 5    0  0.1480584E+000  0.1249968E+03  0.7546771E-02  0.1235074E+00
         21   -1    0    0  503  502  0.00000000000E+00  0.00000000000E+00  0.16515662399E+02  0.16515662399E+02  0.00000000000E+00 0. -1.
         21   -1    0    0  502  503 -0.00000000000E+00 -0.00000000000E+00 -0.23650587836E+03  0.23650587836E+03  0.00000000000E+00 0. -1.
         25    2    1    2    0    0  0.00000000000E+00  0.00000000000E+00 -0.21999021596E+03  0.25302154076E+03  0.12499681984E+03 0.  0.
          4    1    3    3  501    0 -0.20061415266E+02 -0.45766256403E+02 -0.18591397632E+03  0.19251862170E+03  0.15500000000E+01 0.  1.
         -4    1    3    3    0  501  0.20061415266E+02  0.45766256403E+02 -0.34076239642E+02  0.60502919068E+02  0.15500000000E+01 0.  1.
<mgrwt>
<rscale>  2 0.12499682E+03</rscale>
<asrwt>0</asrwt>
<pdfrwt beam="1">  1       21 0.25408713E-02 0.12499682E+03</pdfrwt>
<pdfrwt beam="2">  1       21 0.36385517E-01 0.12499682E+03</pdfrwt>
<totfact> 0.59599654E+06</totfact>
</mgrwt>
</event>
<event>
 5    0  0.1253654E+000  0.1249883E+03  0.7546771E-02  0.1235088E+00
         21   -1    0    0  503  502  0.00000000000E+00  0.00000000000E+00  0.64822022080E+03  0.64822022080E+03  0.00000000000E+00 0.  1.
         21   -1    0    0  502  503 -0.00000000000E+00 -0.00000000000E+00 -0.60249917236E+01  0.60249917236E+01  0.00000000000E+00 0.  1.
         25    2    1    2    0    0  0.00000000000E+00  0.00000000000E+00  0.64219522908E+03  0.65424521253E+03  0.12498834290E+03 0.  0.
          4    1    3    3  501    0  0.61753588546E+01  0.40693018899E+02  0.56712021664E+03  0.56861392831E+03  0.15500000000E+01 0. -1.
         -4    1    3    3    0  501 -0.61753588546E+01 -0.40693018899E+02  0.75075012438E+02  0.85631284218E+02  0.15500000000E+01 0. -1.
<mgrwt>
<rscale>  2 0.12498834E+03</rscale>
<asrwt>0</asrwt>
<pdfrwt beam="1">  1       21 0.99726133E-01 0.12498834E+03</pdfrwt>
<pdfrwt beam="2">  1       21 0.92692232E-03 0.12498834E+03</pdfrwt>
<totfact> 0.34758657E+06</totfact>
</mgrwt>
</event>
<event>
 5    0  0.1484973E+000  0.1250015E+03  0.7546771E-02  0.1235067E+00
         21   -1    0    0  503  502  0.00000000000E+00  0.00000000000E+00  0.15627304510E+03  0.15627304510E+03  0.00000000000E+00 0.  1.
         21   -1    0    0  502  503 -0.00000000000E+00 -0.00000000000E+00 -0.24996898846E+02  0.24996898846E+02  0.00000000000E+00 0.  1.
         25    2    1    2    0    0  0.00000000000E+00  0.00000000000E+00  0.13127614625E+03  0.18126994395E+03  0.12500146400E+03 0.  0.
          4    1    3    3  501    0  0.10271935904E+02 -0.44258392281E+02  0.34402928587E+01  0.45591184120E+02  0.15500000000E+01 0.  1.
         -4    1    3    3    0  501 -0.10271935904E+02  0.44258392281E+02  0.12783585340E+03  0.13567875983E+03  0.15500000000E+01 0.  1.
<mgrwt>
<rscale>  2 0.12500146E+03</rscale>
<asrwt>0</asrwt>
<pdfrwt beam="1">  1       21 0.24042006E-01 0.12500146E+03</pdfrwt>
<pdfrwt beam="2">  1       21 0.38456768E-02 0.12500146E+03</pdfrwt>
<totfact> 0.67003663E+06</totfact>
</mgrwt>
</event>
<event>
 5    0  0.1409536E+000  0.1250054E+03  0.7546771E-02  0.1235061E+00
         21   -1    0    0  503  502  0.00000000000E+00  0.00000000000E+00  0.44543608773E+02  0.44543608773E+02  0.00000000000E+00 0. -1.
         21   -1    0    0  502  503 -0.00000000000E+00 -0.00000000000E+00 -0.87702528869E+02  0.87702528869E+02  0.00000000000E+00 0. -1.
         25    2    1    2    0    0  0.00000000000E+00  0.00000000000E+00 -0.43158920096E+02  0.13224613764E+03  0.12500539403E+03 0.  0.
          4    1    3    3  501    0  0.33016333032E+02  0.10306803974E+01  0.34530829881E+02  0.47811308926E+02  0.15500000000E+01 0. -1.
         -4    1    3    3    0  501 -0.33016333032E+02 -0.10306803974E+01 -0.77689749977E+02  0.84434828717E+02  0.15500000000E+01 0. -1.
<mgrwt>
<rscale>  2 0.12500539E+03</rscale>
<asrwt>0</asrwt>
<pdfrwt beam="1">  1       21 0.68528629E-02 0.12500539E+03</pdfrwt>
<pdfrwt beam="2">  1       21 0.13492697E-01 0.12500539E+03</pdfrwt>
<totfact> 0.73053179E+06</totfact>
</mgrwt>
</event>
<event>
 5    0  0.1624060E+000  0.1249978E+03  0.7546771E-02  0.1235073E+00
         21   -1    0    0  503  502  0.00000000000E+00  0.00000000000E+00  0.65246043322E+02  0.65246043322E+02  0.00000000000E+00 0. -1.
         21   -1    0    0  502  503 -0.00000000000E+00 -0.00000000000E+00 -0.59867396818E+02  0.59867396818E+02  0.00000000000E+00 0. -1.
         25    2    1    2    0    0  0.00000000000E+00  0.00000000000E+00  0.53786465032E+01  0.12511344014E+03  0.12499777224E+03 0.  0.
          4    1    3    3  501    0 -0.57984349602E+02  0.22898572394E+02 -0.14592497420E+01  0.62378372263E+02  0.15500000000E+01 0.  1.
         -4    1    3    3    0  501  0.57984349602E+02 -0.22898572394E+02  0.68378962452E+01  0.62735067876E+02  0.15500000000E+01 0.  1.
<mgrwt>
<rscale>  2 0.12499777E+03</rscale>
<asrwt>0</asrwt>
<pdfrwt beam="1">  1       21 0.10037853E-01 0.12499777E+03</pdfrwt>
<pdfrwt beam="2">  1       21 0.92103687E-02 0.12499777E+03</pdfrwt>
<totfact> 0.74032477E+06</totfact>
</mgrwt>
</event>
<event>
 5    0  0.1512435E+000  0.1250004E+03  0.7546771E-02  0.1235069E+00
         21   -1    0    0  503  502  0.00000000000E+00  0.00000000000E+00  0.84839806690E+02  0.84839806690E+02  0.00000000000E+00 0.  1.
         21   -1    0    0  502  503 -0.00000000000E+00 -0.00000000000E+00 -0.46042944574E+02  0.46042944574E+02  0.00000000000E+00 0.  1.
         25    2    1    2    0    0  0.00000000000E+00  0.00000000000E+00  0.38796862117E+02  0.13088275126E+03  0.12500039227E+03 0.  0.
          4    1    3    3  501    0  0.40377069078E+02 -0.47659211417E+02  0.20938667228E+02  0.65897939463E+02  0.15500000000E+01 0. -1.
         -4    1    3    3    0  501 -0.40377069078E+02  0.47659211417E+02  0.17858194888E+02  0.64984811801E+02  0.15500000000E+01 0. -1.
<mgrwt>
<rscale>  2 0.12500039E+03</rscale>
<asrwt>0</asrwt>
<pdfrwt beam="1">  1       21 0.13052278E-01 0.12500039E+03</pdfrwt>
<pdfrwt beam="2">  1       21 0.70835299E-02 0.12500039E+03</pdfrwt>
<totfact> 0.73245743E+06</totfact>
</mgrwt>
</event>
<event>
 5    0  0.1477901E+000  0.1249994E+03  0.7546771E-02  0.1235070E+00
         21   -1    0    0  503  502  0.00000000000E+00  0.00000000000E+00  0.20833821917E+02  0.20833821917E+02  0.00000000000E+00 0. -1.
         21   -1    0    0  502  503 -0.00000000000E+00 -0.00000000000E+00 -0.18749388843E+03  0.18749388843E+03  0.00000000000E+00 0. -1.
         25    2    1    2    0    0  0.00000000000E+00  0.00000000000E+00 -0.16666006651E+03  0.20832771034E+03  0.12499942851E+03 0.  0.
          4    1    3    3  501    0  0.31651757844E+02 -0.11390541329E+02  0.44213402406E+01  0.33963641677E+02  0.15500000000E+01 0. -1.
         -4    1    3    3    0  501 -0.31651757844E+02  0.11390541329E+02 -0.17108140675E+03  0.17436406867E+03  0.15500000000E+01 0. -1.
<mgrwt>
<rscale>  2 0.12499943E+03</rscale>
<asrwt>0</asrwt>
<pdfrwt beam="1">  1       21 0.32052034E-02 0.12499943E+03</pdfrwt>
<pdfrwt beam="2">  1       21 0.28845214E-01 0.12499943E+03</pdfrwt>
<totfact> 0.64036836E+06</totfact>
</mgrwt>
</event>
<event>
 5    0  0.1222151E+000  0.1250000E+03  0.7546771E-02  0.1235069E+00
         21   -1    0    0  503  502  0.00000000000E+00  0.00000000000E+00  0.38387152267E+01  0.38387152267E+01  0.00000000000E+00 0.  1.
         21   -1    0    0  502  503 -0.00000000000E+00 -0.00000000000E+00 -0.10175930588E+04  0.10175930588E+04  0.00000000000E+00 0.  1.
         25    2    1    2    0    0  0.00000000000E+00  0.00000000000E+00 -0.10137543436E+04  0.10214317740E+04  0.12499999951E+03 0.  0.
          4    1    3    3  501    0  0.41859725180E+02  0.42841080449E+02 -0.36156015445E+03  0.36649112206E+03  0.15500000000E+01 0.  1.
         -4    1    3    3    0  501 -0.41859725180E+02 -0.42841080449E+02 -0.65219418911E+03  0.65494065195E+03  0.15500000000E+01 0.  1.
<mgrwt>
<rscale>  2 0.12500000E+03</rscale>
<asrwt>0</asrwt>
<pdfrwt beam="1">  1       21 0.59057214E-03 0.12500000E+03</pdfrwt>
<pdfrwt beam="2">  1       21 0.15655263E+00 0.12500000E+03</pdfrwt>
<totfact> 0.23088263E+06</totfact>
</mgrwt>
</event>
<event>
 5    0  0.1441583E+000  0.1250058E+03  0.7546771E-02  0.1235060E+00
         21   -1    0    0  503  502  0.00000000000E+00  0.00000000000E+00  0.64036176954E+02  0.64036176954E+02  0.00000000000E+00 0.  1.
         21   -1    0    0  502  503 -0.00000000000E+00 -0.00000000000E+00 -0.61006321125E+02  0.61006321125E+02  0.00000000000E+00 0.  1.
         25    2    1    2    0    0  0.00000000000E+00  0.00000000000E+00  0.30298558288E+01  0.12504249808E+03  0.12500578506E+03 0.  0.
          4    1    3    3  501    0  0.11271372865E+02  0.22727075809E+02  0.58633758226E+02  0.63905273060E+02  0.15500000000E+01 0. -1.
         -4    1    3    3    0  501 -0.11271372865E+02 -0.22727075809E+02 -0.55603902398E+02  0.61137225018E+02  0.15500000000E+01 0. -1.
<mgrwt>
<rscale>  2 0.12500579E+03</rscale>
<asrwt>0</asrwt>
<pdfrwt beam="1">  1       21 0.98517196E-02 0.12500579E+03</pdfrwt>
<pdfrwt beam="2">  1       21 0.93855878E-02 0.12500579E+03</pdfrwt>
<totfact> 0.74026892E+06</totfact>
</mgrwt>
</event>
<event>
 5    0  0.1503707E+000  0.1249964E+03  0.7546771E-02  0.1235075E+00
         21   -1    0    0  503  502  0.00000000000E+00  0.00000000000E+00  0.16773982040E+03  0.16773982040E+03  0.00000000000E+00 0.  1.
         21   -1    0    0  502  503 -0.00000000000E+00 -0.00000000000E+00 -0.23286208900E+02  0.23286208900E+02  0.00000000000E+00 0.  1.
         25    2    1    2    0    0  0.00000000000E+00  0.00000000000E+00  0.14445361150E+03  0.19102602930E+03  0.12499639193E+03 0.  0.
          4    1    3    3  501    0 -0.37713462788E+02 -0.49812043235E+02  0.71802534558E+02  0.95192181379E+02  0.15500000000E+01 0.  1.
         -4    1    3    3    0  501  0.37713462788E+02  0.49812043235E+02  0.72651076946E+02  0.95833847925E+02  0.15500000000E+01 0.  1.
<mgrwt>
<rscale>  2 0.12499639E+03</rscale>
<asrwt>0</asrwt>
<pdfrwt beam="1">  1       21 0.25806125E-01 0.12499639E+03</pdfrwt>
<pdfrwt beam="2">  1       21 0.35824938E-02 0.12499639E+03</pdfrwt>
<totfact> 0.65914638E+06</totfact>
</mgrwt>
</event>
<event>
 5    0  0.1578587E+000  0.1249988E+03  0.7546771E-02  0.1235071E+00
         21   -1    0    0  503  502  0.00000000000E+00  0.00000000000E+00  0.34660013256E+02  0.34660013256E+02  0.00000000000E+00 0. -1.
         21   -1    0    0  502  503 -0.00000000000E+00 -0.00000000000E+00 -0.11269983363E+03  0.11269983363E+03  0.00000000000E+00 0. -1.
         25    2    1    2    0    0  0.00000000000E+00  0.00000000000E+00 -0.78039820378E+02  0.14735984689E+03  0.12499884364E+03 0.  0.
          4    1    3    3  501    0  0.48960984697E+02  0.19620035496E+02 -0.78502180723E+02  0.94589210240E+02  0.15500000000E+01 0. -1.
         -4    1    3    3    0  501 -0.48960984697E+02 -0.19620035496E+02  0.46236034502E+00  0.52770636650E+02  0.15500000000E+01 0. -1.
<mgrwt>
<rscale>  2 0.12499884E+03</rscale>
<asrwt>0</asrwt>
<pdfrwt beam="1">  1       21 0.53323098E-02 0.12499884E+03</pdfrwt>
<pdfrwt beam="2">  1       21 0.17338436E-01 0.12499884E+03</pdfrwt>
<totfact> 0.71094542E+06</totfact>
</mgrwt>
</event>
<event>
 5    0  0.1289675E+000  0.1249989E+03  0.7546771E-02  0.1235071E+00
         21   -1    0    0  503  502  0.00000000000E+00  0.00000000000E+00  0.68465315436E+03  0.68465315436E+03  0.00000000000E+00 0.  1.
         21   -1    0    0  502  503 -0.00000000000E+00 -0.00000000000E+00 -0.57053449640E+01  0.57053449640E+01  0.00000000000E+00 0.  1.
         25    2    1    2    0    0  0.00000000000E+00  0.00000000000E+00  0.67894780939E+03  0.69035849932E+03  0.12499891882E+03 0.  0.
          4    1    3    3  501    0  0.43309339104E-01  0.54169156224E+02  0.51143807672E+03  0.51430108709E+03  0.15500000000E+01 0. -1.
         -4    1    3    3    0  501 -0.43309339104E-01 -0.54169156224E+02  0.16750973267E+03  0.17605741223E+03  0.15500000000E+01 0. -1.
<mgrwt>
<rscale>  2 0.12499892E+03</rscale>
<asrwt>0</asrwt>
<pdfrwt beam="1">  1       21 0.10533119E+00 0.12499892E+03</pdfrwt>
<pdfrwt beam="2">  1       21 0.87774592E-03 0.12499892E+03</pdfrwt>
<totfact> 0.33286087E+06</totfact>
</mgrwt>
</event>
<event>
 5    0  0.1596167E+000  0.1249974E+03  0.7546771E-02  0.1235073E+00
         21   -1    0    0  503  502  0.00000000000E+00  0.00000000000E+00  0.66167021443E+02  0.66167021443E+02  0.00000000000E+00 0. -1.
         21   -1    0    0  502  503 -0.00000000000E+00 -0.00000000000E+00 -0.59033713374E+02  0.59033713374E+02  0.00000000000E+00 0. -1.
         25    2    1    2    0    0  0.00000000000E+00  0.00000000000E+00  0.71333080694E+01  0.12520073482E+03  0.12499735963E+03 0.  0.
          4    1    3    3  501    0 -0.39095058737E+02  0.19745910896E+02 -0.41063197147E+02  0.60057582991E+02  0.15500000000E+01 0.  1.
         -4    1    3    3    0  501  0.39095058737E+02 -0.19745910896E+02  0.48196505216E+02  0.65143151826E+02  0.15500000000E+01 0.  1.
<mgrwt>
<rscale>  2 0.12499736E+03</rscale>
<asrwt>0</asrwt>
<pdfrwt beam="1">  1       21 0.10179542E-01 0.12499736E+03</pdfrwt>
<pdfrwt beam="2">  1       21 0.90821098E-02 0.12499736E+03</pdfrwt>
<totfact> 0.74021469E+06</totfact>
</mgrwt>
</event>
<event>
 5    0  0.1487533E+000  0.1250086E+03  0.7546771E-02  0.1235056E+00
         21   -1    0    0  503  502  0.00000000000E+00  0.00000000000E+00  0.55295759855E+02  0.55295759855E+02  0.00000000000E+00 0.  1.
         21   -1    0    0  502  503 -0.00000000000E+00 -0.00000000000E+00 -0.70652535635E+02  0.70652535635E+02  0.00000000000E+00 0.  1.
         25    2    1    2    0    0  0.00000000000E+00  0.00000000000E+00 -0.15356775780E+02  0.12594829549E+03  0.12500857000E+03 0.  0.
          4    1    3    3  501    0 -0.39727259463E+01  0.21050498998E+02  0.51461049690E+02  0.55763323024E+02  0.15500000000E+01 0.  1.
         -4    1    3    3    0  501  0.39727259463E+01 -0.21050498998E+02 -0.66817825470E+02  0.70184972466E+02  0.15500000000E+01 0.  1.
<mgrwt>
<rscale>  2 0.12500857E+03</rscale>
<asrwt>0</asrwt>
<pdfrwt beam="1">  1       21 0.85070400E-02 0.12500857E+03</pdfrwt>
<pdfrwt beam="2">  1       21 0.10869621E-01 0.12500857E+03</pdfrwt>
<totfact> 0.73897014E+06</totfact>
</mgrwt>
</event>
<event>
 5    0  0.1554730E+000  0.1249959E+03  0.7546771E-02  0.1235076E+00
         21   -1    0    0  503  502  0.00000000000E+00  0.00000000000E+00  0.81556829766E+02  0.81556829766E+02  0.00000000000E+00 0. -1.
         21   -1    0    0  502  503 -0.00000000000E+00 -0.00000000000E+00 -0.47892904099E+02  0.47892904099E+02  0.00000000000E+00 0. -1.
         25    2    1    2    0    0  0.00000000000E+00  0.00000000000E+00  0.33663925667E+02  0.12944973387E+03  0.12499589476E+03 0.  0.
          4    1    3    3  501    0  0.58002110904E+02 -0.15096330241E+02 -0.14447209488E+01  0.59971941562E+02  0.15500000000E+01 0. -1.
         -4    1    3    3    0  501 -0.58002110904E+02  0.15096330241E+02  0.35108646616E+02  0.69477792303E+02  0.15500000000E+01 0. -1.
<mgrwt>
<rscale>  2 0.12499589E+03</rscale>
<asrwt>0</asrwt>
<pdfrwt beam="1">  1       21 0.12547205E-01 0.12499589E+03</pdfrwt>
<pdfrwt beam="2">  1       21 0.73681391E-02 0.12499589E+03</pdfrwt>
<totfact> 0.73446249E+06</totfact>
</mgrwt>
</event>
<event>
 5    0  0.1475444E+000  0.1250038E+03  0.7546771E-02  0.1235063E+00
         21   -1    0    0  503  502  0.00000000000E+00  0.00000000000E+00  0.13296636900E+03  0.13296636900E+03  0.00000000000E+00 0. -1.
         21   -1    0    0  502  503 -0.00000000000E+00 -0.00000000000E+00 -0.29379498352E+02  0.29379498352E+02  0.00000000000E+00 0. -1.
         25    2    1    2    0    0  0.00000000000E+00  0.00000000000E+00  0.10358687065E+03  0.16234586735E+03  0.12500376345E+03 0.  0.
          4    1    3    3  501    0 -0.30766581870E+02  0.41078670648E+00  0.12242001061E+03  0.12623712926E+03  0.15500000000E+01 0. -1.
         -4    1    3    3    0  501  0.30766581870E+02 -0.41078670648E+00 -0.18833139963E+02  0.36108738092E+02  0.15500000000E+01 0. -1.
<mgrwt>
<rscale>  2 0.12500376E+03</rscale>
<asrwt>0</asrwt>
<pdfrwt beam="1">  1       21 0.20456364E-01 0.12500376E+03</pdfrwt>
<pdfrwt beam="2">  1       21 0.45199229E-02 0.12500376E+03</pdfrwt>
<totfact> 0.69227364E+06</totfact>
</mgrwt>
</event>
<event>
 5    0  0.1660356E+000  0.1249972E+03  0.7546771E-02  0.1235074E+00
         21   -1    0    0  503  502  0.00000000000E+00  0.00000000000E+00  0.33736786794E+02  0.33736786794E+02  0.00000000000E+00 0.  1.
         21   -1    0    0  502  503 -0.00000000000E+00 -0.00000000000E+00 -0.11578092839E+03  0.11578092839E+03  0.00000000000E+00 0.  1.
         25    2    1    2    0    0  0.00000000000E+00  0.00000000000E+00 -0.82044141596E+02  0.14951771518E+03  0.12499722390E+03 0.  0.
          4    1    3    3  501    0  0.52959713805E+02  0.32819064709E+02 -0.35430486052E+02  0.71690614006E+02  0.15500000000E+01 0. -1.
         -4    1    3    3    0  501 -0.52959713805E+02 -0.32819064709E+02 -0.46613655544E+02  0.77827101178E+02  0.15500000000E+01 0. -1.
<mgrwt>
<rscale>  2 0.12499722E+03</rscale>
<asrwt>0</asrwt>
<pdfrwt beam="1">  1       21 0.51902750E-02 0.12499722E+03</pdfrwt>
<pdfrwt beam="2">  1       21 0.17812450E-01 0.12499722E+03</pdfrwt>
<totfact> 0.70824842E+06</totfact>
</mgrwt>
</event>
<event>
 5    0  0.1385421E+000  0.1250012E+03  0.7546771E-02  0.1235067E+00
         21   -1    0    0  503  502  0.00000000000E+00  0.00000000000E+00  0.11576277036E+03  0.11576277036E+03  0.00000000000E+00 0.  1.
         21   -1    0    0  502  503 -0.00000000000E+00 -0.00000000000E+00 -0.33744229278E+02  0.33744229278E+02  0.00000000000E+00 0.  1.
         25    2    1    2    0    0  0.00000000000E+00  0.00000000000E+00  0.82018541080E+02  0.14950699964E+03  0.12500120743E+03 0.  0.
          4    1    3    3  501    0 -0.22782580396E+02 -0.45125784403E+01 -0.28366602918E+02  0.36694359169E+02  0.15500000000E+01 0. -1.
         -4    1    3    3    0  501  0.22782580396E+02  0.45125784403E+01  0.11038514400E+03  0.11281264047E+03  0.15500000000E+01 0. -1.
<mgrwt>
<rscale>  2 0.12500121E+03</rscale>
<asrwt>0</asrwt>
<pdfrwt beam="1">  1       21 0.17809657E-01 0.12500121E+03</pdfrwt>
<pdfrwt beam="2">  1       21 0.51914199E-02 0.12500121E+03</pdfrwt>
<totfact> 0.70819009E+06</totfact>
</mgrwt>
</event>
<event>
 5    0  0.1753112E+000  0.1250028E+03  0.7546771E-02  0.1235065E+00
         21   -1    0    0  503  502  0.00000000000E+00  0.00000000000E+00  0.42162899087E+02  0.42162899087E+02  0.00000000000E+00 0. -1.
         21   -1    0    0  502  503 -0.00000000000E+00 -0.00000000000E+00 -0.92650718705E+02  0.92650718705E+02  0.00000000000E+00 0. -1.
         25    2    1    2    0    0  0.00000000000E+00  0.00000000000E+00 -0.50487819618E+02  0.13481361779E+03  0.12500276642E+03 0.  0.
          4    1    3    3  501    0 -0.46845345241E+02 -0.13771465424E+01  0.19322944452E+02  0.50716482386E+02  0.15500000000E+01 0.  1.
         -4    1    3    3    0  501  0.46845345241E+02  0.13771465424E+01 -0.69810764071E+02  0.84097135406E+02  0.15500000000E+01 0.  1.
<mgrwt>
<rscale>  2 0.12500277E+03</rscale>
<asrwt>0</asrwt>
<pdfrwt beam="1">  1       21 0.64865999E-02 0.12500277E+03</pdfrwt>
<pdfrwt beam="2">  1       21 0.14253957E-01 0.12500277E+03</pdfrwt>
<totfact> 0.72716028E+06</totfact>
</mgrwt>
</event>
<event>
 5    0  0.1322375E+000  0.1249983E+03  0.7546771E-02  0.1235072E+00
         21   -1    0    0  503  502  0.00000000000E+00  0.00000000000E+00  0.65204717702E+03  0.65204717702E+03  0.00000000000E+00 0.  1.
         21   -1    0    0  502  503 -0.00000000000E+00 -0.00000000000E+00 -0.59905889620E+01  0.59905889620E+01  0.00000000000E+00 0.  1.
         25    2    1    2    0    0  0.00000000000E+00  0.00000000000E+00  0.64605658806E+03  0.65803776598E+03  0.12499834593E+03 0.  0.
          4    1    3    3  501    0  0.41766960255E+02  0.46438179622E+02  0.31428147130E+03  0.32043131744E+03  0.15500000000E+01 0. -1.
         -4    1    3    3    0  501 -0.41766960255E+02 -0.46438179622E+02  0.33177511676E+03  0.33760644854E+03  0.15500000000E+01 0. -1.
<mgrwt>
<rscale>  2 0.12499835E+03</rscale>
<asrwt>0</asrwt>
<pdfrwt beam="1">  1       21 0.10031489E+00 0.12499835E+03</pdfrwt>
<pdfrwt beam="2">  1       21 0.92162958E-03 0.12499835E+03</pdfrwt>
<totfact> 0.34592784E+06</totfact>
</mgrwt>
</event>
<event>
 5    0  0.1297132E+000  0.1250067E+03  0.7546771E-02  0.1235059E+00
         21   -1    0    0  503  502  0.00000000000E+00  0.00000000000E+00  0.73010873458E+01  0.73010873458E+01  0.00000000000E+00 0.  1.
         21   -1    0    0  502  503 -0.00000000000E+00 -0.00000000000E+00 -0.53508005174E+03  0.53508005174E+03  0.00000000000E+00 0.  1.
         25    2    1    2    0    0  0.00000000000E+00  0.00000000000E+00 -0.52777896439E+03  0.54238113908E+03  0.12500665894E+03 0.  0.
          4    1    3    3  501    0  0.15150965384E+02  0.22391378081E+02 -0.50830546737E+03  0.50902630209E+03  0.15500000000E+01 0.  1.
         -4    1    3    3    0  501 -0.15150965384E+02 -0.22391378081E+02 -0.19473497024E+02  0.33354836992E+02  0.15500000000E+01 0.  1.
<mgrwt>
<rscale>  2 0.12500666E+03</rscale>
<asrwt>0</asrwt>
<pdfrwt beam="1">  1       21 0.11232440E-02 0.12500666E+03</pdfrwt>
<pdfrwt beam="2">  1       21 0.82320025E-01 0.12500666E+03</pdfrwt>
<totfact> 0.39828524E+06</totfact>
</mgrwt>
</event>
<event>
 5    0  0.1222151E+000  0.1249992E+03  0.7546771E-02  0.1235071E+00
         21   -1    0    0  503  502  0.00000000000E+00  0.00000000000E+00  0.19752222838E+01  0.19752222838E+01  0.00000000000E+00 0.  1.
         21   -1    0    0  502  503 -0.00000000000E+00 -0.00000000000E+00 -0.19775992302E+04  0.19775992302E+04  0.00000000000E+00 0.  1.
         25    2    1    2    0    0  0.00000000000E+00  0.00000000000E+00 -0.19756240079E+04  0.19795744524E+04  0.12499916908E+03 0.  0.
          4    1    3    3  501    0  0.44008690018E+02 -0.14171892946E+02 -0.16533658636E+04  0.16540129046E+04  0.15500000000E+01 0.  1.
         -4    1    3    3    0  501 -0.44008690018E+02  0.14171892946E+02 -0.32225814432E+03  0.32556154784E+03  0.15500000000E+01 0.  1.
<mgrwt>
<rscale>  2 0.12499917E+03</rscale>
<asrwt>0</asrwt>
<pdfrwt beam="1">  1       21 0.30388147E-03 0.12499917E+03</pdfrwt>
<pdfrwt beam="2">  1       21 0.30424491E+00 0.12499917E+03</pdfrwt>
<totfact> 0.81491376E+05</totfact>
</mgrwt>
</event>
<event>
 5    0  0.1277956E+000  0.1250028E+03  0.7546771E-02  0.1235065E+00
         21   -1    0    0  503  502  0.00000000000E+00  0.00000000000E+00  0.75620335812E+01  0.75620335812E+01  0.00000000000E+00 0.  1.
         21   -1    0    0  502  503 -0.00000000000E+00 -0.00000000000E+00 -0.51658354349E+03  0.51658354349E+03  0.00000000000E+00 0.  1.
         25    2    1    2    0    0  0.00000000000E+00  0.00000000000E+00 -0.50902150991E+03  0.52414557707E+03  0.12500275362E+03 0.  0.
          4    1    3    3  501    0  0.37757007489E+01  0.47349758598E+02 -0.42471871115E+03  0.42736944399E+03  0.15500000000E+01 0.  1.
         -4    1    3    3    0  501 -0.37757007489E+01 -0.47349758598E+02 -0.84302798751E+02  0.96776133074E+02  0.15500000000E+01 0.  1.
<mgrwt>
<rscale>  2 0.12500275E+03</rscale>
<asrwt>0</asrwt>
<pdfrwt beam="1">  1       21 0.11633896E-02 0.12500275E+03</pdfrwt>
<pdfrwt beam="2">  1       21 0.79474401E-01 0.12500275E+03</pdfrwt>
<totfact> 0.40761366E+06</totfact>
</mgrwt>
</event>
<event>
 5    0  0.1222151E+000  0.1249972E+03  0.7546771E-02  0.1235074E+00
         21   -1    0    0  503  502  0.00000000000E+00  0.00000000000E+00  0.15637153218E+04  0.15637153218E+04  0.00000000000E+00 0.  1.
         21   -1    0    0  502  503 -0.00000000000E+00 -0.00000000000E+00 -0.24979438575E+01  0.24979438575E+01  0.00000000000E+00 0.  1.
         25    2    1    2    0    0  0.00000000000E+00  0.00000000000E+00  0.15612173780E+04  0.15662132657E+04  0.12499716930E+03 0.  0.
          4    1    3    3  501    0 -0.54036054004E+02  0.13281573807E+02  0.11366401984E+04  0.11380024773E+04  0.15500000000E+01 0.  1.
         -4    1    3    3    0  501  0.54036054004E+02 -0.13281573807E+02  0.42457717956E+03  0.42821078832E+03  0.15500000000E+01 0.  1.
<mgrwt>
<rscale>  2 0.12499717E+03</rscale>
<asrwt>0</asrwt>
<pdfrwt beam="1">  1       21 0.24057080E+00 0.12499717E+03</pdfrwt>
<pdfrwt beam="2">  1       21 0.38430031E-03 0.12499717E+03</pdfrwt>
<totfact> 0.13040102E+06</totfact>
</mgrwt>
</event>
<event>
 5    0  0.1554182E+000  0.1250003E+03  0.7546771E-02  0.1235069E+00
         21   -1    0    0  503  502  0.00000000000E+00  0.00000000000E+00  0.11579584371E+03  0.11579584371E+03  0.00000000000E+00 0.  1.
         21   -1    0    0  502  503 -0.00000000000E+00 -0.00000000000E+00 -0.33734095322E+02  0.33734095322E+02  0.00000000000E+00 0.  1.
         25    2    1    2    0    0  0.00000000000E+00  0.00000000000E+00  0.82061748391E+02  0.14952993904E+03  0.12500028848E+03 0.  0.
          4    1    3    3  501    0  0.12597753057E+02 -0.56134777460E+02  0.70186894341E+02  0.90765738359E+02  0.15500000000E+01 0. -1.
         -4    1    3    3    0  501 -0.12597753057E+02  0.56134777460E+02  0.11874854050E+02  0.58764200677E+02  0.15500000000E+01 0. -1.
<mgrwt>
<rscale>  2 0.12500029E+03</rscale>
<asrwt>0</asrwt>
<pdfrwt beam="1">  1       21 0.17814745E-01 0.12500029E+03</pdfrwt>
<pdfrwt beam="2">  1       21 0.51898609E-02 0.12500029E+03</pdfrwt>
<totfact> 0.70817779E+06</totfact>
</mgrwt>
</event>
<event>
 5    0  0.1636303E+000  0.1249996E+03  0.7546771E-02  0.1235070E+00
         21   -1    0    0  503  502  0.00000000000E+00  0.00000000000E+00  0.12288651408E+03  0.12288651408E+03  0.00000000000E+00 0. -1.
         21   -1    0    0  502  503 -0.00000000000E+00 -0.00000000000E+00 -0.31787235523E+02  0.31787235523E+02  0.00000000000E+00 0. -1.
         25    2    1    2    0    0  0.00000000000E+00  0.00000000000E+00  0.91099278555E+02  0.15467374960E+03  0.12499956105E+03 0.  0.
          4    1    3    3  501    0  0.28345240301E+02 -0.51916785686E+02  0.20647104059E+02  0.62669854712E+02  0.15500000000E+01 0.  1.
         -4    1    3    3    0  501 -0.28345240301E+02  0.51916785686E+02  0.70452174496E+02  0.92003894890E+02  0.15500000000E+01 0.  1.
<mgrwt>
<rscale>  2 0.12499956E+03</rscale>
<asrwt>0</asrwt>
<pdfrwt beam="1">  1       21 0.18905617E-01 0.12499956E+03</pdfrwt>
<pdfrwt beam="2">  1       21 0.48903440E-02 0.12499956E+03</pdfrwt>
<totfact> 0.70177014E+06</totfact>
</mgrwt>
</event>
<event>
 5    0  0.1401933E+000  0.1249996E+03  0.7546771E-02  0.1235070E+00
         21   -1    0    0  503  502  0.00000000000E+00  0.00000000000E+00  0.53799077324E+03  0.53799077324E+03  0.00000000000E+00 0. -1.
         21   -1    0    0  502  503 -0.00000000000E+00 -0.00000000000E+00 -0.72607701188E+01  0.72607701188E+01  0.00000000000E+00 0. -1.
         25    2    1    2    0    0  0.00000000000E+00  0.00000000000E+00  0.53073000312E+03  0.54525154336E+03  0.12499963729E+03 0.  0.
          4    1    3    3  501    0  0.19753758358E+01 -0.38935584882E+02  0.47834365646E+03  0.47993222236E+03  0.15500000000E+01 0.  1.
         -4    1    3    3    0  501 -0.19753758358E+01  0.38935584882E+02  0.52386346661E+02  0.65319321002E+02  0.15500000000E+01 0.  1.
<mgrwt>
<rscale>  2 0.12499964E+03</rscale>
<asrwt>0</asrwt>
<pdfrwt beam="1">  1       21 0.82767780E-01 0.12499964E+03</pdfrwt>
<pdfrwt beam="2">  1       21 0.11170420E-02 0.12499964E+03</pdfrwt>
<totfact> 0.39692077E+06</totfact>
</mgrwt>
</event>
<event>
 5    0  0.1557974E+000  0.1250092E+03  0.7546771E-02  0.1235055E+00
         21   -1    0    0  503  502  0.00000000000E+00  0.00000000000E+00  0.65870090255E+02  0.65870090255E+02  0.00000000000E+00 0. -1.
         21   -1    0    0  502  503 -0.00000000000E+00 -0.00000000000E+00 -0.59311078998E+02  0.59311078998E+02  0.00000000000E+00 0. -1.
         25    2    1    2    0    0  0.00000000000E+00  0.00000000000E+00  0.65590112570E+01  0.12518116925E+03  0.12500921769E+03 0.  0.
          4    1    3    3  501    0 -0.56635551496E+02 -0.10307928248E+02 -0.21055867336E+02  0.61315504787E+02  0.15500000000E+01 0.  1.
         -4    1    3    3    0  501  0.56635551496E+02  0.10307928248E+02  0.27614878593E+02  0.63865664466E+02  0.15500000000E+01 0.  1.
<mgrwt>
<rscale>  2 0.12500922E+03</rscale>
<asrwt>0</asrwt>
<pdfrwt beam="1">  1       21 0.10133860E-01 0.12500922E+03</pdfrwt>
<pdfrwt beam="2">  1       21 0.91247813E-02 0.12500922E+03</pdfrwt>
<totfact> 0.74001674E+06</totfact>
</mgrwt>
</event>
<event>
 5    0  0.1337648E+000  0.1250030E+03  0.7546771E-02  0.1235065E+00
         21   -1    0    0  503  502  0.00000000000E+00  0.00000000000E+00  0.67535118439E+03  0.67535118439E+03  0.00000000000E+00 0. -1.
         21   -1    0    0  502  503 -0.00000000000E+00 -0.00000000000E+00 -0.57843033424E+01  0.57843033424E+01  0.00000000000E+00 0. -1.
         25    2    1    2    0    0  0.00000000000E+00  0.00000000000E+00  0.66956688105E+03  0.68113548773E+03  0.12500297777E+03 0.  0.
          4    1    3    3  501    0 -0.54673189532E+02 -0.26830003727E+02  0.41087918374E+03  0.41537105446E+03  0.15500000000E+01 0. -1.
         -4    1    3    3    0  501  0.54673189532E+02  0.26830003727E+02  0.25868769731E+03  0.26576443328E+03  0.15500000000E+01 0. -1.
<mgrwt>
<rscale>  2 0.12500298E+03</rscale>
<asrwt>0</asrwt>
<pdfrwt beam="1">  1       21 0.10390012E+00 0.12500298E+03</pdfrwt>
<pdfrwt beam="2">  1       21 0.88989336E-03 0.12500298E+03</pdfrwt>
<totfact> 0.33647734E+06</totfact>
</mgrwt>
</event>
<event>
 5    0  0.1373563E+000  0.1250014E+03  0.7546771E-02  0.1235067E+00
         21   -1    0    0  503  502  0.00000000000E+00  0.00000000000E+00  0.97458381503E+01  0.97458381503E+01  0.00000000000E+00 0.  1.
         21   -1    0    0  502  503 -0.00000000000E+00 -0.00000000000E+00 -0.40082139901E+03  0.40082139901E+03  0.00000000000E+00 0.  1.
         25    2    1    2    0    0  0.00000000000E+00  0.00000000000E+00 -0.39107556086E+03  0.41056723716E+03  0.12500144770E+03 0.  0.
          4    1    3    3  501    0  0.44983283319E+02 -0.42926647730E+02 -0.21571678058E+03  0.22450462086E+03  0.15500000000E+01 0. -1.
         -4    1    3    3    0  501 -0.44983283319E+02  0.42926647730E+02 -0.17535878028E+03  0.18606261630E+03  0.15500000000E+01 0. -1.
<mgrwt>
<rscale>  2 0.12500145E+03</rscale>
<asrwt>0</asrwt>
<pdfrwt beam="1">  1       21 0.14993599E-02 0.12500145E+03</pdfrwt>
<pdfrwt beam="2">  1       21 0.61664821E-01 0.12500145E+03</pdfrwt>
<totfact> 0.47346537E+06</totfact>
</mgrwt>
</event>
<event>
 5    0  0.1432876E+000  0.1250025E+03  0.7546771E-02  0.1235065E+00
         21   -1    0    0  503  502  0.00000000000E+00  0.00000000000E+00  0.41472572126E+03  0.41472572126E+03  0.00000000000E+00 0. -1.
         21   -1    0    0  502  503 -0.00000000000E+00 -0.00000000000E+00 -0.94192522422E+01  0.94192522422E+01  0.00000000000E+00 0. -1.
         25    2    1    2    0    0  0.00000000000E+00  0.00000000000E+00  0.40530646902E+03  0.42414497350E+03  0.12500249885E+03 0.  0.
          4    1    3    3  501    0 -0.27817531263E+01  0.60218827480E+02  0.25840312381E+03  0.26534623085E+03  0.15500000000E+01 0. -1.
         -4    1    3    3    0  501  0.27817531263E+01 -0.60218827480E+02  0.14690334521E+03  0.15879874265E+03  0.15500000000E+01 0. -1.
<mgrwt>
<rscale>  2 0.12500250E+03</rscale>
<asrwt>0</asrwt>
<pdfrwt beam="1">  1       21 0.63803943E-01 0.12500250E+03</pdfrwt>
<pdfrwt beam="2">  1       21 0.14491160E-02 0.12500250E+03</pdfrwt>
<totfact> 0.46477123E+06</totfact>
</mgrwt>
</event>
<event>
 5    0  0.1617194E+000  0.1249971E+03  0.7546771E-02  0.1235074E+00
         21   -1    0    0  503  502  0.00000000000E+00  0.00000000000E+00  0.20429133083E+02  0.20429133083E+02  0.00000000000E+00 0.  1.
         21   -1    0    0  502  503 -0.00000000000E+00 -0.00000000000E+00 -0.19120086679E+03  0.19120086679E+03  0.00000000000E+00 0.  1.
         25    2    1    2    0    0  0.00000000000E+00  0.00000000000E+00 -0.17077173370E+03  0.21162999987E+03  0.12499708722E+03 0.  0.
          4    1    3    3  501    0  0.34659062695E+02  0.51703845876E+02 -0.94523344337E+02  0.11318835377E+03  0.15500000000E+01 0. -1.
         -4    1    3    3    0  501 -0.34659062695E+02 -0.51703845876E+02 -0.76248389366E+02  0.98441646096E+02  0.15500000000E+01 0. -1.
<mgrwt>
<rscale>  2 0.12499709E+03</rscale>
<asrwt>0</asrwt>
<pdfrwt beam="1">  1       21 0.31429435E-02 0.12499709E+03</pdfrwt>
<pdfrwt beam="2">  1       21 0.29415518E-01 0.12499709E+03</pdfrwt>
<totfact> 0.63693140E+06</totfact>
</mgrwt>
</event>
<event>
 5    0  0.1222151E+000  0.1249982E+03  0.7546771E-02  0.1235072E+00
         21   -1    0    0  503  502  0.00000000000E+00  0.00000000000E+00  0.36483846711E+01  0.36483846711E+01  0.00000000000E+00 0. -1.
         21   -1    0    0  502  503 -0.00000000000E+00 -0.00000000000E+00 -0.10706483807E+04  0.10706483807E+04  0.00000000000E+00 0. -1.
         25    2    1    2    0    0  0.00000000000E+00  0.00000000000E+00 -0.10669999961E+04  0.10742967654E+04  0.12499819423E+03 0.  0.
          4    1    3    3  501    0 -0.59689269235E+02 -0.14389919294E+02 -0.43406495809E+03  0.43838871904E+03  0.15500000000E+01 0.  1.
         -4    1    3    3    0  501  0.59689269235E+02  0.14389919294E+02 -0.63293503798E+03  0.63590804638E+03  0.15500000000E+01 0.  1.
<mgrwt>
<rscale>  2 0.12499819E+03</rscale>
<asrwt>0</asrwt>
<pdfrwt beam="1">  1       21 0.56128916E-03 0.12499819E+03</pdfrwt>
<pdfrwt beam="2">  1       21 0.16471537E+00 0.12499819E+03</pdfrwt>
<totfact> 0.21833230E+06</totfact>
</mgrwt>
</event>
<event>
 5    0  0.1608431E+000  0.1249869E+03  0.7546771E-02  0.1235090E+00
         21   -1    0    0  503  502  0.00000000000E+00  0.00000000000E+00  0.14157346884E+03  0.14157346884E+03  0.00000000000E+00 0.  1.
         21   -1    0    0  502  503 -0.00000000000E+00 -0.00000000000E+00 -0.27585899950E+02  0.27585899950E+02  0.00000000000E+00 0.  1.
         25    2    1    2    0    0  0.00000000000E+00  0.00000000000E+00  0.11398756889E+03  0.16915936879E+03  0.12498690407E+03 0.  0.
          4    1    3    3  501    0  0.48196712902E+02 -0.30766413950E+02  0.22928156337E+02  0.61624655901E+02  0.15500000000E+01 0. -1.
         -4    1    3    3    0  501 -0.48196712902E+02  0.30766413950E+02  0.91059412557E+02  0.10753471289E+03  0.15500000000E+01 0. -1.
<mgrwt>
<rscale>  2 0.12498690E+03</rscale>
<asrwt>0</asrwt>
<pdfrwt beam="1">  1       21 0.21780533E-01 0.12498690E+03</pdfrwt>
<pdfrwt beam="2">  1       21 0.42439847E-02 0.12498690E+03</pdfrwt>
<totfact> 0.68440041E+06</totfact>
</mgrwt>
</event>
<event>
 4    0  0.1643540E+000  0.1253628E+03  0.7546771E-02  0.1234503E+00
         21   -1    0    0  503  502  0.00000000000E+00  0.00000000000E+00  0.42286040024E+02  0.42286040024E+02  0.00000000000E+00 0. -1.
         21   -1    0    0  502  503 -0.00000000000E+00 -0.00000000000E+00 -0.92913867212E+02  0.92913867212E+02  0.00000000000E+00 0. -1.
          4    1    1    2  501    0  0.54122246798E+02  0.27839789156E+02 -0.92347580546E+01  0.61578849575E+02  0.15500000000E+01 0.  1.
         -4    1    1    2    0  501 -0.54122246798E+02 -0.27839789156E+02 -0.41393069134E+02  0.73621057660E+02  0.15500000000E+01 0.  1.
<mgrwt>
<rscale>  2 0.12536283E+03</rscale>
<asrwt>0</asrwt>
<pdfrwt beam="1">  1       21 0.65055447E-02 0.12536283E+03</pdfrwt>
<pdfrwt beam="2">  1       21 0.14294441E-01 0.12536283E+03</pdfrwt>
<totfact> 0.72001500E+06</totfact>
</mgrwt>
</event>
<event>
 5    0  0.1472725E+000  0.1250044E+03  0.7546771E-02  0.1235062E+00
         21   -1    0    0  503  502  0.00000000000E+00  0.00000000000E+00  0.35412420681E+02  0.35412420681E+02  0.00000000000E+00 0. -1.
         21   -1    0    0  502  503 -0.00000000000E+00 -0.00000000000E+00 -0.11031510298E+03  0.11031510298E+03  0.00000000000E+00 0. -1.
         25    2    1    2    0    0  0.00000000000E+00  0.00000000000E+00 -0.74902682303E+02  0.14572752367E+03  0.12500439727E+03 0.  0.
          4    1    3    3  501    0  0.47086414037E+02 -0.47170817692E+01  0.10113893525E+02  0.48415644058E+02  0.15500000000E+01 0. -1.
         -4    1    3    3    0  501 -0.47086414037E+02  0.47170817692E+01 -0.85016575828E+02  0.97311879608E+02  0.15500000000E+01 0. -1.
<mgrwt>
<rscale>  2 0.12500440E+03</rscale>
<asrwt>0</asrwt>
<pdfrwt beam="1">  1       21 0.54480647E-02 0.12500440E+03</pdfrwt>
<pdfrwt beam="2">  1       21 0.16971554E-01 0.12500440E+03</pdfrwt>
<totfact> 0.71292140E+06</totfact>
</mgrwt>
</event>
<event>
 5    0  0.1445627E+000  0.1250001E+03  0.7546771E-02  0.1235069E+00
         21   -1    0    0  503  502  0.00000000000E+00  0.00000000000E+00  0.69470860479E+02  0.69470860479E+02  0.00000000000E+00 0.  1.
         21   -1    0    0  502  503 -0.00000000000E+00 -0.00000000000E+00 -0.56228704913E+02  0.56228704913E+02  0.00000000000E+00 0.  1.
         25    2    1    2    0    0  0.00000000000E+00  0.00000000000E+00  0.13242155566E+02  0.12569956539E+03  0.12500010422E+03 0.  0.
          4    1    3    3  501    0 -0.26995983391E+02  0.36924719593E+02 -0.36180410397E+02  0.58340745905E+02  0.15500000000E+01 0.  1.
         -4    1    3    3    0  501  0.26995983391E+02 -0.36924719593E+02  0.49422565964E+02  0.67358819487E+02  0.15500000000E+01 0.  1.
<mgrwt>
<rscale>  2 0.12500010E+03</rscale>
<asrwt>0</asrwt>
<pdfrwt beam="1">  1       21 0.10687825E-01 0.12500010E+03</pdfrwt>
<pdfrwt beam="2">  1       21 0.86505700E-02 0.12500010E+03</pdfrwt>
<totfact> 0.73947401E+06</totfact>
</mgrwt>
</event>
<event>
 5    0  0.1425810E+000  0.1250019E+03  0.7546771E-02  0.1235066E+00
         21   -1    0    0  503  502  0.00000000000E+00  0.00000000000E+00  0.28563411986E+03  0.28563411986E+03  0.00000000000E+00 0.  1.
         21   -1    0    0  502  503 -0.00000000000E+00 -0.00000000000E+00 -0.13676120854E+02  0.13676120854E+02  0.00000000000E+00 0.  1.
         25    2    1    2    0    0  0.00000000000E+00  0.00000000000E+00  0.27195799901E+03  0.29931024071E+03  0.12500186788E+03 0.  0.
          4    1    3    3  501    0  0.85865917790E+01  0.56488765558E+02  0.75439082973E+02  0.94647598662E+02  0.15500000000E+01 0.  1.
         -4    1    3    3    0  501 -0.85865917790E+01 -0.56488765558E+02  0.19651891603E+03  0.20466264205E+03  0.15500000000E+01 0.  1.
<mgrwt>
<rscale>  2 0.12500187E+03</rscale>
<asrwt>0</asrwt>
<pdfrwt beam="1">  1       21 0.43943706E-01 0.12500187E+03</pdfrwt>
<pdfrwt beam="2">  1       21 0.21040188E-02 0.12500187E+03</pdfrwt>
<totfact> 0.55510941E+06</totfact>
</mgrwt>
</event>
<event>
 5    0  0.1530403E+000  0.1249961E+03  0.7546771E-02  0.1235075E+00
         21   -1    0    0  503  502  0.00000000000E+00  0.00000000000E+00  0.12352599462E+03  0.12352599462E+03  0.00000000000E+00 0.  1.
         21   -1    0    0  502  503 -0.00000000000E+00 -0.00000000000E+00 -0.31620910454E+02  0.31620910454E+02  0.00000000000E+00 0.  1.
         25    2    1    2    0    0  0.00000000000E+00  0.00000000000E+00  0.91905084166E+02  0.15514690507E+03  0.12499607057E+03 0.  0.
          4    1    3    3  501    0  0.44845545967E+01  0.45141234746E+02 -0.73728828825E+01  0.45984825827E+02  0.15500000000E+01 0.  1.
         -4    1    3    3    0  501 -0.44845545967E+01 -0.45141234746E+02  0.99277967048E+02  0.10916207925E+03  0.15500000000E+01 0.  1.
<mgrwt>
<rscale>  2 0.12499607E+03</rscale>
<asrwt>0</asrwt>
<pdfrwt beam="1">  1       21 0.19003999E-01 0.12499607E+03</pdfrwt>
<pdfrwt beam="2">  1       21 0.48647555E-02 0.12499607E+03</pdfrwt>
<totfact> 0.70124414E+06</totfact>
</mgrwt>
</event>
<event>
 5    0  0.1222151E+000  0.1250031E+03  0.7546771E-02  0.1235064E+00
         21   -1    0    0  503  502  0.00000000000E+00  0.00000000000E+00  0.16890526466E+01  0.16890526466E+01  0.00000000000E+00 0. -1.
         21   -1    0    0  502  503 -0.00000000000E+00 -0.00000000000E+00 -0.23128015585E+04  0.23128015585E+04  0.00000000000E+00 0. -1.
         25    2    1    2    0    0  0.00000000000E+00  0.00000000000E+00 -0.23111125058E+04  0.23144906111E+04  0.12500309746E+03 0.  0.
          4    1    3    3  501    0  0.28710954292E+02 -0.52917857070E+02 -0.84605286043E+03  0.84819364748E+03  0.15500000000E+01 0.  1.
         -4    1    3    3    0  501 -0.28710954292E+02  0.52917857070E+02 -0.14650596454E+04  0.14662969637E+04  0.15500000000E+01 0.  1.
<mgrwt>
<rscale>  2 0.12500310E+03</rscale>
<asrwt>0</asrwt>
<pdfrwt beam="1">  1       21 0.25985478E-03 0.12500310E+03</pdfrwt>
<pdfrwt beam="2">  1       21 0.35581490E+00 0.12500310E+03</pdfrwt>
<totfact> 0.52674141E+05</totfact>
</mgrwt>
</event>
<event>
 5    0  0.1529265E+000  0.1249988E+03  0.7546771E-02  0.1235071E+00
         21   -1    0    0  503  502  0.00000000000E+00  0.00000000000E+00  0.22937681254E+03  0.22937681254E+03  0.00000000000E+00 0.  1.
         21   -1    0    0  502  503 -0.00000000000E+00 -0.00000000000E+00 -0.17029519782E+02  0.17029519782E+02  0.00000000000E+00 0.  1.
         25    2    1    2    0    0  0.00000000000E+00  0.00000000000E+00  0.21234729276E+03  0.24640633232E+03  0.12499883146E+03 0.  0.
          4    1    3    3  501    0 -0.48778396909E+02 -0.33403678543E+02  0.66324905167E+02  0.88862440269E+02  0.15500000000E+01 0. -1.
         -4    1    3    3    0  501  0.48778396909E+02  0.33403678543E+02  0.14602238759E+03  0.15754389205E+03  0.15500000000E+01 0. -1.
<mgrwt>
<rscale>  2 0.12499883E+03</rscale>
<asrwt>0</asrwt>
<pdfrwt beam="1">  1       21 0.35288738E-01 0.12499883E+03</pdfrwt>
<pdfrwt beam="2">  1       21 0.26199263E-02 0.12499883E+03</pdfrwt>
<totfact> 0.60219962E+06</totfact>
</mgrwt>
</event>
<event>
 5    0  0.1309246E+000  0.1250005E+03  0.7546771E-02  0.1235069E+00
         21   -1    0    0  503  502  0.00000000000E+00  0.00000000000E+00  0.91806431725E+01  0.91806431725E+01  0.00000000000E+00 0.  1.
         21   -1    0    0  502  503 -0.00000000000E+00 -0.00000000000E+00 -0.42549100146E+03  0.42549100146E+03  0.00000000000E+00 0.  1.
         25    2    1    2    0    0  0.00000000000E+00  0.00000000000E+00 -0.41631035829E+03  0.43467164463E+03  0.12500049692E+03 0.  0.
          4    1    3    3  501    0 -0.15774526414E+01 -0.36790083234E+02 -0.38368020825E+03  0.38544636889E+03  0.15500000000E+01 0.  1.
         -4    1    3    3    0  501  0.15774526414E+01  0.36790083234E+02 -0.32630150035E+02  0.49225275749E+02  0.15500000000E+01 0.  1.
<mgrwt>
<rscale>  2 0.12500050E+03</rscale>
<asrwt>0</asrwt>
<pdfrwt beam="1">  1       21 0.14124066E-02 0.12500050E+03</pdfrwt>
<pdfrwt beam="2">  1       21 0.65460157E-01 0.12500050E+03</pdfrwt>
<totfact> 0.45822974E+06</totfact>
</mgrwt>
</event>
<event>
 5    0  0.1456870E+000  0.1249971E+03  0.7546771E-02  0.1235074E+00
         21   -1    0    0  503  502  0.00000000000E+00  0.00000000000E+00  0.99206635007E+01  0.99206635007E+01  0.00000000000E+00 0. -1.
         21   -1    0    0  502  503 -0.00000000000E+00 -0.00000000000E+00 -0.39373079724E+03  0.39373079724E+03  0.00000000000E+00 0. -1.
         25    2    1    2    0    0  0.00000000000E+00  0.00000000000E+00 -0.38381013374E+03  0.40365146074E+03  0.12499713195E+03 0.  0.
          4    1    3    3  501    0 -0.53649280433E+02  0.19657495740E+02 -0.11027335823E+03  0.12420659590E+03  0.15500000000E+01 0.  1.
         -4    1    3    3    0  501  0.53649280433E+02 -0.19657495740E+02 -0.27353677551E+03  0.27944486484E+03  0.15500000000E+01 0.  1.
<mgrwt>
<rscale>  2 0.12499713E+03</rscale>
<asrwt>0</asrwt>
<pdfrwt beam="1">  1       21 0.15262558E-02 0.12499713E+03</pdfrwt>
<pdfrwt beam="2">  1       21 0.60573976E-01 0.12499713E+03</pdfrwt>
<totfact> 0.47803516E+06</totfact>
</mgrwt>
</event>
<event>
 5    0  0.1630342E+000  0.1250010E+03  0.7546771E-02  0.1235068E+00
         21   -1    0    0  503  502  0.00000000000E+00  0.00000000000E+00  0.68681638128E+02  0.68681638128E+02  0.00000000000E+00 0. -1.
         21   -1    0    0  502  503 -0.00000000000E+00 -0.00000000000E+00 -0.56875611663E+02  0.56875611663E+02  0.00000000000E+00 0. -1.
         25    2    1    2    0    0  0.00000000000E+00  0.00000000000E+00  0.11806026464E+02  0.12555724979E+03  0.12500096285E+03 0.  0.
          4    1    3    3  501    0 -0.57042961657E+02  0.59040428423E+01 -0.19009590520E+02  0.60436116919E+02  0.15500000000E+01 0.  1.
         -4    1    3    3    0  501  0.57042961657E+02 -0.59040428423E+01  0.30815616984E+02  0.65121132872E+02  0.15500000000E+01 0.  1.
<mgrwt>
<rscale>  2 0.12500096E+03</rscale>
<asrwt>0</asrwt>
<pdfrwt beam="1">  1       21 0.10566406E-01 0.12500096E+03</pdfrwt>
<pdfrwt beam="2">  1       21 0.87500940E-02 0.12500096E+03</pdfrwt>
<totfact> 0.73965586E+06</totfact>
</mgrwt>
</event>
<event>
 5    0  0.1222151E+000  0.1250142E+03  0.7546771E-02  0.1235047E+00
         21   -1    0    0  503  502  0.00000000000E+00  0.00000000000E+00  0.10497426776E+04  0.10497426776E+04  0.00000000000E+00 0. -1.
         21   -1    0    0  502  503 -0.00000000000E+00 -0.00000000000E+00 -0.37219984778E+01  0.37219984778E+01  0.00000000000E+00 0. -1.
         25    2    1    2    0    0  0.00000000000E+00  0.00000000000E+00  0.10460206792E+04  0.10534646761E+04  0.12501424956E+03 0.  0.
          4    1    3    3  501    0 -0.43265849596E+02  0.21391126974E+02  0.18856000672E+03  0.19464529968E+03  0.15500000000E+01 0. -1.
         -4    1    3    3    0  501  0.43265849596E+02 -0.21391126974E+02  0.85746067245E+03  0.85881937644E+03  0.15500000000E+01 0. -1.
<mgrwt>
<rscale>  2 0.12501425E+03</rscale>
<asrwt>0</asrwt>
<pdfrwt beam="1">  1       21 0.16149864E+00 0.12501425E+03</pdfrwt>
<pdfrwt beam="2">  1       21 0.57261599E-03 0.12501425E+03</pdfrwt>
<totfact> 0.22309292E+06</totfact>
</mgrwt>
</event>
<event>
 5    0  0.1601134E+000  0.1249974E+03  0.7546771E-02  0.1235073E+00
         21   -1    0    0  503  502  0.00000000000E+00  0.00000000000E+00  0.76508178619E+02  0.76508178619E+02  0.00000000000E+00 0.  1.
         21   -1    0    0  502  503 -0.00000000000E+00 -0.00000000000E+00 -0.51054518217E+02  0.51054518217E+02  0.00000000000E+00 0.  1.
         25    2    1    2    0    0  0.00000000000E+00  0.00000000000E+00  0.25453660402E+02  0.12756269684E+03  0.12499741116E+03 0.  0.
          4    1    3    3  501    0  0.62379488082E+02  0.55486032953E+00  0.91656159699E+01  0.63070749317E+02  0.15500000000E+01 0.  1.
         -4    1    3    3    0  501 -0.62379488082E+02 -0.55486032953E+00  0.16288044432E+02  0.64491947519E+02  0.15500000000E+01 0.  1.
<mgrwt>
<rscale>  2 0.12499741E+03</rscale>
<asrwt>0</asrwt>
<pdfrwt beam="1">  1       21 0.11770489E-01 0.12499741E+03</pdfrwt>
<pdfrwt beam="2">  1       21 0.78545413E-02 0.12499741E+03</pdfrwt>
<totfact> 0.73697591E+06</totfact>
</mgrwt>
</event>
<event>
 4    0  0.1517452E+000  0.1253337E+03  0.7546771E-02  0.1234549E+00
         21   -1    0    0  503  502  0.00000000000E+00  0.00000000000E+00  0.48572786816E+02  0.48572786816E+02  0.00000000000E+00 0.  1.
         21   -1    0    0  502  503 -0.00000000000E+00 -0.00000000000E+00 -0.80850442550E+02  0.80850442550E+02  0.00000000000E+00 0.  1.
          4    1    1    2  501    0  0.10912263127E+02 -0.37989443177E+02 -0.66329864131E+02  0.77229066128E+02  0.15500000000E+01 0. -1.
         -4    1    1    2    0  501 -0.10912263127E+02  0.37989443177E+02  0.34052208396E+02  0.52194163238E+02  0.15500000000E+01 0. -1.
<mgrwt>
<rscale>  2 0.12533366E+03</rscale>
<asrwt>0</asrwt>
<pdfrwt beam="1">  1       21 0.74727365E-02 0.12533366E+03</pdfrwt>
<pdfrwt beam="2">  1       21 0.12438529E-01 0.12533366E+03</pdfrwt>
<totfact> 0.72819896E+06</totfact>
</mgrwt>
</event>
<event>
 5    0  0.1447453E+000  0.1249990E+03  0.7546771E-02  0.1235071E+00
         21   -1    0    0  503  502  0.00000000000E+00  0.00000000000E+00  0.15147420167E+02  0.15147420167E+02  0.00000000000E+00 0. -1.
         21   -1    0    0  502  503 -0.00000000000E+00 -0.00000000000E+00 -0.25787811681E+03  0.25787811681E+03  0.00000000000E+00 0. -1.
         25    2    1    2    0    0  0.00000000000E+00  0.00000000000E+00 -0.24273069665E+03  0.27302553698E+03  0.12499901099E+03 0.  0.
          4    1    3    3  501    0 -0.12780342516E+02 -0.26371781178E+02 -0.24189357049E+03  0.24366721146E+03  0.15500000000E+01 0.  1.
         -4    1    3    3    0  501  0.12780342516E+02  0.26371781178E+02 -0.83712616157E+00  0.29358325523E+02  0.15500000000E+01 0.  1.
<mgrwt>
<rscale>  2 0.12499901E+03</rscale>
<asrwt>0</asrwt>
<pdfrwt beam="1">  1       21 0.23303724E-02 0.12499901E+03</pdfrwt>
<pdfrwt beam="2">  1       21 0.39673555E-01 0.12499901E+03</pdfrwt>
<totfact> 0.57776533E+06</totfact>
</mgrwt>
</event>
<event>
 5    0  0.1222151E+000  0.1250258E+03  0.7546771E-02  0.1235029E+00
         21   -1    0    0  503  502  0.00000000000E+00  0.00000000000E+00  0.41875957939E+01  0.41875957939E+01  0.00000000000E+00 0. -1.
         21   -1    0    0  502  503 -0.00000000000E+00 -0.00000000000E+00 -0.93319982852E+03  0.93319982852E+03  0.00000000000E+00 0. -1.
         25    2    1    2    0    0  0.00000000000E+00  0.00000000000E+00 -0.92901223272E+03  0.93738742431E+03  0.12502581616E+03 0.  0.
          4    1    3    3  501    0 -0.50337877243E+02  0.36144007748E+02 -0.40397993577E+03  0.40870830942E+03  0.15500000000E+01 0. -1.
         -4    1    3    3    0  501  0.50337877243E+02 -0.36144007748E+02 -0.52503229695E+03  0.52867911489E+03  0.15500000000E+01 0. -1.
<mgrwt>
<rscale>  2 0.12502582E+03</rscale>
<asrwt>0</asrwt>
<pdfrwt beam="1">  1       21 0.64424532E-03 0.12502582E+03</pdfrwt>
<pdfrwt beam="2">  1       21 0.14356925E+00 0.12502582E+03</pdfrwt>
<totfact> 0.25236028E+06</totfact>
</mgrwt>
</event>
<event>
 4    0  0.1251074E+000  0.1260625E+03  0.7546771E-02  0.1233418E+00
         21   -1    0    0  503  502  0.00000000000E+00  0.00000000000E+00  0.61573816979E+01  0.61573816979E+01  0.00000000000E+00 0.  1.
         21   -1    0    0  502  503 -0.00000000000E+00 -0.00000000000E+00 -0.64523164472E+03  0.64523164472E+03  0.00000000000E+00 0.  1.
          4    1    1    2  501    0  0.18938973815E+02 -0.55432516740E+02 -0.43951019648E+03  0.44339944063E+03  0.15500000000E+01 0.  1.
         -4    1    1    2    0  501 -0.18938973815E+02  0.55432516740E+02 -0.19956406654E+03  0.20798958579E+03  0.15500000000E+01 0.  1.
<mgrwt>
<rscale>  2 0.12606248E+03</rscale>
<asrwt>0</asrwt>
<pdfrwt beam="1">  1       21 0.94728998E-03 0.12606248E+03</pdfrwt>
<pdfrwt beam="2">  1       21 0.99266356E-01 0.12606248E+03</pdfrwt>
<totfact> 0.33963187E+06</totfact>
</mgrwt>
</event>
<event>
 5    0  0.1821672E+000  0.1250013E+03  0.7546771E-02  0.1235067E+00
         21   -1    0    0  503  502  0.00000000000E+00  0.00000000000E+00  0.37922119413E+02  0.37922119413E+02  0.00000000000E+00 0. -1.
         21   -1    0    0  502  503 -0.00000000000E+00 -0.00000000000E+00 -0.10300925152E+03  0.10300925152E+03  0.00000000000E+00 0. -1.
         25    2    1    2    0    0  0.00000000000E+00  0.00000000000E+00 -0.65087132112E+02  0.14093137094E+03  0.12500126618E+03 0.  0.
          4    1    3    3  501    0 -0.61987672900E+02 -0.17135168242E+01 -0.23918918402E+02  0.66482515664E+02  0.15500000000E+01 0. -1.
         -4    1    3    3    0  501  0.61987672900E+02  0.17135168242E+01 -0.41168213709E+02  0.74448855273E+02  0.15500000000E+01 0. -1.
<mgrwt>
<rscale>  2 0.12500127E+03</rscale>
<asrwt>0</asrwt>
<pdfrwt beam="1">  1       21 0.58341722E-02 0.12500127E+03</pdfrwt>
<pdfrwt beam="2">  1       21 0.15847577E-01 0.12500127E+03</pdfrwt>
<totfact> 0.71915632E+06</totfact>
</mgrwt>
</event>
<event>
 5    0  0.1563495E+000  0.1250024E+03  0.7546771E-02  0.1235066E+00
         21   -1    0    0  503  502  0.00000000000E+00  0.00000000000E+00  0.14604886667E+03  0.14604886667E+03  0.00000000000E+00 0.  1.
         21   -1    0    0  502  503 -0.00000000000E+00 -0.00000000000E+00 -0.26747197468E+02  0.26747197468E+02  0.00000000000E+00 0.  1.
         25    2    1    2    0    0  0.00000000000E+00  0.00000000000E+00  0.11930166920E+03  0.17279606413E+03  0.12500236600E+03 0.  0.
          4    1    3    3  501    0  0.22780996841E+01 -0.55092760885E+02  0.19027997226E+02  0.58351257215E+02  0.15500000000E+01 0.  1.
         -4    1    3    3    0  501 -0.22780996841E+01  0.55092760885E+02  0.10027367197E+03  0.11444480692E+03  0.15500000000E+01 0.  1.
<mgrwt>
<rscale>  2 0.12500237E+03</rscale>
<asrwt>0</asrwt>
<pdfrwt beam="1">  1       21 0.22469056E-01 0.12500237E+03</pdfrwt>
<pdfrwt beam="2">  1       21 0.41149535E-02 0.12500237E+03</pdfrwt>
<totfact> 0.67983632E+06</totfact>
</mgrwt>
</event>
<event>
 5    0  0.1262445E+000  0.1250022E+03  0.7546771E-02  0.1235066E+00
         21   -1    0    0  503  502  0.00000000000E+00  0.00000000000E+00  0.64803617850E+01  0.64803617850E+01  0.00000000000E+00 0.  1.
         21   -1    0    0  502  503 -0.00000000000E+00 -0.00000000000E+00 -0.60280413283E+03  0.60280413283E+03  0.00000000000E+00 0.  1.
         25    2    1    2    0    0  0.00000000000E+00  0.00000000000E+00 -0.59632377105E+03  0.60928449462E+03  0.12500222184E+03 0.  0.
          4    1    3    3  501    0 -0.14435255532E+02 -0.44969668833E+02 -0.98776044406E+02  0.10949774959E+03  0.15500000000E+01 0. -1.
         -4    1    3    3    0  501  0.14435255532E+02  0.44969668833E+02 -0.49754772664E+03  0.49978674503E+03  0.15500000000E+01 0. -1.
<mgrwt>
<rscale>  2 0.12500222E+03</rscale>
<asrwt>0</asrwt>
<pdfrwt beam="1">  1       21 0.99697889E-03 0.12500222E+03</pdfrwt>
<pdfrwt beam="2">  1       21 0.92739083E-01 0.12500222E+03</pdfrwt>
<totfact> 0.36674070E+06</totfact>
</mgrwt>
</event>
<event>
 5    0  0.1222151E+000  0.1250040E+03  0.7546771E-02  0.1235063E+00
         21   -1    0    0  503  502  0.00000000000E+00  0.00000000000E+00  0.59261973101E+01  0.59261973101E+01  0.00000000000E+00 0. -1.
         21   -1    0    0  502  503 -0.00000000000E+00 -0.00000000000E+00 -0.65919200227E+03  0.65919200227E+03  0.00000000000E+00 0. -1.
         25    2    1    2    0    0  0.00000000000E+00  0.00000000000E+00 -0.65326580496E+03  0.66511819958E+03  0.12500402987E+03 0.  0.
          4    1    3    3  501    0  0.28636421830E+02 -0.44824085148E+02 -0.15219133455E+03  0.16122607753E+03  0.15500000000E+01 0. -1.
         -4    1    3    3    0  501 -0.28636421830E+02  0.44824085148E+02 -0.50107447041E+03  0.50389212205E+03  0.15500000000E+01 0. -1.
<mgrwt>
<rscale>  2 0.12500403E+03</rscale>
<asrwt>0</asrwt>
<pdfrwt beam="1">  1       21 0.91172333E-03 0.12500403E+03</pdfrwt>
<pdfrwt beam="2">  1       21 0.10141408E+00 0.12500403E+03</pdfrwt>
<totfact> 0.34295343E+06</totfact>
</mgrwt>
</event>
<event>
 5    0  0.1468837E+000  0.1249996E+03  0.7546771E-02  0.1235070E+00
         21   -1    0    0  503  502  0.00000000000E+00  0.00000000000E+00  0.11500728948E+02  0.11500728948E+02  0.00000000000E+00 0. -1.
         21   -1    0    0  502  503 -0.00000000000E+00 -0.00000000000E+00 -0.33965013135E+03  0.33965013135E+03  0.00000000000E+00 0. -1.
         25    2    1    2    0    0  0.00000000000E+00  0.00000000000E+00 -0.32814940241E+03  0.35115086030E+03  0.12499958557E+03 0.  0.
          4    1    3    3  501    0 -0.34775816185E+02 -0.50280892724E+02 -0.20030117884E+03  0.20942896244E+03  0.15500000000E+01 0.  1.
         -4    1    3    3    0  501  0.34775816185E+02  0.50280892724E+02 -0.12784822357E+03  0.14172189787E+03  0.15500000000E+01 0.  1.
<mgrwt>
<rscale>  2 0.12499959E+03</rscale>
<asrwt>0</asrwt>
<pdfrwt beam="1">  1       21 0.17693432E-02 0.12499959E+03</pdfrwt>
<pdfrwt beam="2">  1       21 0.52253858E-01 0.12499959E+03</pdfrwt>
<totfact> 0.51454088E+06</totfact>
</mgrwt>
</event>
<event>
 5    0  0.1222151E+000  0.1249979E+03  0.7546771E-02  0.1235073E+00
         21   -1    0    0  503  502  0.00000000000E+00  0.00000000000E+00  0.10262890079E+04  0.10262890079E+04  0.00000000000E+00 0. -1.
         21   -1    0    0  502  503 -0.00000000000E+00 -0.00000000000E+00 -0.38060633189E+01  0.38060633189E+01  0.00000000000E+00 0. -1.
         25    2    1    2    0    0  0.00000000000E+00  0.00000000000E+00  0.10224829446E+04  0.10300950712E+04  0.12499793514E+03 0.  0.
          4    1    3    3  501    0 -0.48176558402E+02 -0.38136063547E+02  0.41786868500E+03  0.42236474821E+03  0.15500000000E+01 0. -1.
         -4    1    3    3    0  501  0.48176558402E+02  0.38136063547E+02  0.60461425956E+03  0.60773032299E+03  0.15500000000E+01 0. -1.
<mgrwt>
<rscale>  2 0.12499794E+03</rscale>
<asrwt>0</asrwt>
<pdfrwt beam="1">  1       21 0.15789040E+00 0.12499794E+03</pdfrwt>
<pdfrwt beam="2">  1       21 0.58554902E-03 0.12499794E+03</pdfrwt>
<totfact> 0.22877779E+06</totfact>
</mgrwt>
</event>
<event>
 5    0  0.1469398E+000  0.1249962E+03  0.7546771E-02  0.1235075E+00
         21   -1    0    0  503  502  0.00000000000E+00  0.00000000000E+00  0.17625115246E+02  0.17625115246E+02  0.00000000000E+00 0.  1.
         21   -1    0    0  502  503 -0.00000000000E+00 -0.00000000000E+00 -0.22161623923E+03  0.22161623923E+03  0.00000000000E+00 0.  1.
         25    2    1    2    0    0  0.00000000000E+00  0.00000000000E+00 -0.20399112399E+03  0.23924135448E+03  0.12499618805E+03 0.  0.
          4    1    3    3  501    0 -0.24278421364E+02 -0.43839829521E+02 -0.17341164848E+03  0.18051419536E+03  0.15500000000E+01 0.  1.
         -4    1    3    3    0  501  0.24278421364E+02  0.43839829521E+02 -0.30579475504E+02  0.58727159121E+02  0.15500000000E+01 0.  1.
<mgrwt>
<rscale>  2 0.12499619E+03</rscale>
<asrwt>0</asrwt>
<pdfrwt beam="1">  1       21 0.27115562E-02 0.12499619E+03</pdfrwt>
<pdfrwt beam="2">  1       21 0.34094806E-01 0.12499619E+03</pdfrwt>
<totfact> 0.60912010E+06</totfact>
</mgrwt>
</event>
<event>
 5    0  0.1222151E+000  0.1249981E+03  0.7546771E-02  0.1235072E+00
         21   -1    0    0  503  502  0.00000000000E+00  0.00000000000E+00  0.80747088413E+03  0.80747088413E+03  0.00000000000E+00 0. -1.
         21   -1    0    0  502  503 -0.00000000000E+00 -0.00000000000E+00 -0.48374892969E+01  0.48374892969E+01  0.00000000000E+00 0. -1.
         25    2    1    2    0    0  0.00000000000E+00  0.00000000000E+00  0.80263339483E+03  0.81230837342E+03  0.12499810814E+03 0.  0.
          4    1    3    3  501    0 -0.47238807882E+00 -0.44829733324E+02  0.68412012871E+03  0.68558929481E+03  0.15500000000E+01 0.  1.
         -4    1    3    3    0  501  0.47238807882E+00  0.44829733324E+02  0.11851326612E+03  0.12671907862E+03  0.15500000000E+01 0.  1.
<mgrwt>
<rscale>  2 0.12499811E+03</rscale>
<asrwt>0</asrwt>
<pdfrwt beam="1">  1       21 0.12422618E+00 0.12499811E+03</pdfrwt>
<pdfrwt beam="2">  1       21 0.74422976E-03 0.12499811E+03</pdfrwt>
<totfact> 0.28960425E+06</totfact>
</mgrwt>
</event>
<event>
 5    0  0.1222151E+000  0.1250077E+03  0.7546771E-02  0.1235057E+00
         21   -1    0    0  503  502  0.00000000000E+00  0.00000000000E+00  0.50530678368E+01  0.50530678368E+01  0.00000000000E+00 0. -1.
         21   -1    0    0  502  503 -0.00000000000E+00 -0.00000000000E+00 -0.77314053359E+03  0.77314053359E+03  0.00000000000E+00 0. -1.
         25    2    1    2    0    0  0.00000000000E+00  0.00000000000E+00 -0.76808746576E+03  0.77819360143E+03  0.12500770478E+03 0.  0.
          4    1    3    3  501    0 -0.31890208146E+02  0.21960784924E+02 -0.68933509692E+03  0.69042344963E+03  0.15500000000E+01 0.  1.
         -4    1    3    3    0  501  0.31890208146E+02 -0.21960784924E+02 -0.78752368836E+02  0.87770151802E+02  0.15500000000E+01 0.  1.
<mgrwt>
<rscale>  2 0.12500770E+03</rscale>
<asrwt>0</asrwt>
<pdfrwt beam="1">  1       21 0.77739552E-03 0.12500770E+03</pdfrwt>
<pdfrwt beam="2">  1       21 0.11894463E+00 0.12500770E+03</pdfrwt>
<totfact> 0.30092409E+06</totfact>
</mgrwt>
</event>
<event>
 5    0  0.1434313E+000  0.1249977E+03  0.7546771E-02  0.1235073E+00
         21   -1    0    0  503  502  0.00000000000E+00  0.00000000000E+00  0.10153711576E+02  0.10153711576E+02  0.00000000000E+00 0.  1.
         21   -1    0    0  502  503 -0.00000000000E+00 -0.00000000000E+00 -0.38469766344E+03  0.38469766344E+03  0.00000000000E+00 0.  1.
         25    2    1    2    0    0  0.00000000000E+00  0.00000000000E+00 -0.37454395186E+03  0.39485137502E+03  0.12499774588E+03 0.  0.
          4    1    3    3  501    0 -0.31193317286E+02  0.53950952016E+02 -0.17315273654E+03  0.18403260836E+03  0.15500000000E+01 0.  1.
         -4    1    3    3    0  501  0.31193317286E+02 -0.53950952016E+02 -0.20139121532E+03  0.21081876666E+03  0.15500000000E+01 0.  1.
<mgrwt>
<rscale>  2 0.12499775E+03</rscale>
<asrwt>0</asrwt>
<pdfrwt beam="1">  1       21 0.15621097E-02 0.12499775E+03</pdfrwt>
<pdfrwt beam="2">  1       21 0.59184248E-01 0.12499775E+03</pdfrwt>
<totfact> 0.48387469E+06</totfact>
</mgrwt>
</event>
<event>
 5    0  0.1481103E+000  0.1249992E+03  0.7546771E-02  0.1235071E+00
         21   -1    0    0  503  502  0.00000000000E+00  0.00000000000E+00  0.29923673490E+03  0.29923673490E+03  0.00000000000E+00 0. -1.
         21   -1    0    0  502  503 -0.00000000000E+00 -0.00000000000E+00 -0.13053878723E+02  0.13053878723E+02  0.00000000000E+00 0. -1.
         25    2    1    2    0    0  0.00000000000E+00  0.00000000000E+00  0.28618285618E+03  0.31229061362E+03  0.12499920075E+03 0.  0.
          4    1    3    3  501    0 -0.46370225725E+02  0.29703507986E+02  0.69345867298E+02  0.88564936808E+02  0.15500000000E+01 0. -1.
         -4    1    3    3    0  501  0.46370225725E+02 -0.29703507986E+02  0.21683698888E+03  0.22372567681E+03  0.15500000000E+01 0. -1.
<mgrwt>
<rscale>  2 0.12499920E+03</rscale>
<asrwt>0</asrwt>
<pdfrwt beam="1">  1       21 0.46036416E-01 0.12499920E+03</pdfrwt>
<pdfrwt beam="2">  1       21 0.20082893E-02 0.12499920E+03</pdfrwt>
<totfact> 0.54451077E+06</totfact>
</mgrwt>
</event>
<event>
 5    0  0.1222151E+000  0.1249953E+03  0.7546771E-02  0.1235077E+00
         21   -1    0    0  503  502  0.00000000000E+00  0.00000000000E+00  0.16950698488E+04  0.16950698488E+04  0.00000000000E+00 0.  1.
         21   -1    0    0  502  503 -0.00000000000E+00 -0.00000000000E+00 -0.23043049307E+01  0.23043049307E+01  0.00000000000E+00 0.  1.
         25    2    1    2    0    0  0.00000000000E+00  0.00000000000E+00  0.16927655439E+04  0.16973741537E+04  0.12499532488E+03 0.  0.
          4    1    3    3  501    0  0.35833332361E+02 -0.16059081135E+02  0.18646463138E+03  0.19056070700E+03  0.15500000000E+01 0. -1.
         -4    1    3    3    0  501 -0.35833332361E+02  0.16059081135E+02  0.15063009125E+04  0.15068134467E+04  0.15500000000E+01 0. -1.
<mgrwt>
<rscale>  2 0.12499532E+03</rscale>
<asrwt>0</asrwt>
<pdfrwt beam="1">  1       21 0.26077898E+00 0.12499532E+03</pdfrwt>
<pdfrwt beam="2">  1       21 0.35450981E-03 0.12499532E+03</pdfrwt>
<totfact> 0.11303970E+06</totfact>
</mgrwt>
</event>
<event>
 5    0  0.1504565E+000  0.1250075E+03  0.7546771E-02  0.1235058E+00
         21   -1    0    0  503  502  0.00000000000E+00  0.00000000000E+00  0.89535514683E+02  0.89535514683E+02  0.00000000000E+00 0.  1.
         21   -1    0    0  502  503 -0.00000000000E+00 -0.00000000000E+00 -0.43633157192E+02  0.43633157192E+02  0.00000000000E+00 0.  1.
         25    2    1    2    0    0  0.00000000000E+00  0.00000000000E+00  0.45902357491E+02  0.13316867187E+03  0.12500747476E+03 0.  0.
          4    1    3    3  501    0  0.36498926196E+02 -0.45082015380E+02  0.47700563546E+02  0.75115284641E+02  0.15500000000E+01 0.  1.
         -4    1    3    3    0  501 -0.36498926196E+02  0.45082015380E+02 -0.17982060546E+01  0.58053387233E+02  0.15500000000E+01 0.  1.
<mgrwt>
<rscale>  2 0.12500747E+03</rscale>
<asrwt>0</asrwt>
<pdfrwt beam="1">  1       21 0.13774695E-01 0.12500747E+03</pdfrwt>
<pdfrwt beam="2">  1       21 0.67127934E-02 0.12500747E+03</pdfrwt>
<totfact> 0.72925977E+06</totfact>
</mgrwt>
</event>
<event>
 5    0  0.1578681E+000  0.1249984E+03  0.7546771E-02  0.1235072E+00
         21   -1    0    0  503  502  0.00000000000E+00  0.00000000000E+00  0.30008238725E+02  0.30008238725E+02  0.00000000000E+00 0. -1.
         21   -1    0    0  502  503 -0.00000000000E+00 -0.00000000000E+00 -0.13016927972E+03  0.13016927972E+03  0.00000000000E+00 0. -1.
         25    2    1    2    0    0  0.00000000000E+00  0.00000000000E+00 -0.10016104100E+03  0.16017751845E+03  0.12499841312E+03 0.  0.
          4    1    3    3  501    0  0.31759727887E+02  0.23559614565E+02 -0.11206831096E+03  0.11885051357E+03  0.15500000000E+01 0.  1.
         -4    1    3    3    0  501 -0.31759727887E+02 -0.23559614565E+02  0.11907269967E+02  0.41327004875E+02  0.15500000000E+01 0.  1.
<mgrwt>
<rscale>  2 0.12499841E+03</rscale>
<asrwt>0</asrwt>
<pdfrwt beam="1">  1       21 0.46166522E-02 0.12499841E+03</pdfrwt>
<pdfrwt beam="2">  1       21 0.20026043E-01 0.12499841E+03</pdfrwt>
<totfact> 0.69500616E+06</totfact>
</mgrwt>
</event>
<event>
 5    0  0.1710603E+000  0.1249973E+03  0.7546771E-02  0.1235074E+00
         21   -1    0    0  503  502  0.00000000000E+00  0.00000000000E+00  0.32895702562E+02  0.32895702562E+02  0.00000000000E+00 0.  1.
         21   -1    0    0  502  503 -0.00000000000E+00 -0.00000000000E+00 -0.11874131999E+03  0.11874131999E+03  0.00000000000E+00 0.  1.
         25    2    1    2    0    0  0.00000000000E+00  0.00000000000E+00 -0.85845617432E+02  0.15163702256E+03  0.12499726628E+03 0.  0.
          4    1    3    3  501    0 -0.61321704398E+02  0.10294149416E+02 -0.35508286279E+02  0.71620959481E+02  0.15500000000E+01 0. -1.
         -4    1    3    3    0  501  0.61321704398E+02 -0.10294149416E+02 -0.50337331153E+02  0.80016063075E+02  0.15500000000E+01 0. -1.
<mgrwt>
<rscale>  2 0.12499727E+03</rscale>
<asrwt>0</asrwt>
<pdfrwt beam="1">  1       21 0.50608774E-02 0.12499727E+03</pdfrwt>
<pdfrwt beam="2">  1       21 0.18267895E-01 0.12499727E+03</pdfrwt>
<totfact> 0.70559072E+06</totfact>
</mgrwt>
</event>
<event>
 5    0  0.1555808E+000  0.1249996E+03  0.7546771E-02  0.1235070E+00
         21   -1    0    0  503  502  0.00000000000E+00  0.00000000000E+00  0.31166929677E+03  0.31166929677E+03  0.00000000000E+00 0. -1.
         21   -1    0    0  502  503 -0.00000000000E+00 -0.00000000000E+00 -0.12533228532E+02  0.12533228532E+02  0.00000000000E+00 0. -1.
         25    2    1    2    0    0  0.00000000000E+00  0.00000000000E+00  0.29913606824E+03  0.32420252531E+03  0.12499956037E+03 0.  0.
          4    1    3    3  501    0  0.40204483113E+02  0.47112984018E+02  0.12821405252E+03  0.14239831280E+03  0.15500000000E+01 0.  1.
         -4    1    3    3    0  501 -0.40204483113E+02 -0.47112984018E+02  0.17092201573E+03  0.18180421251E+03  0.15500000000E+01 0.  1.
<mgrwt>
<rscale>  2 0.12499956E+03</rscale>
<asrwt>0</asrwt>
<pdfrwt beam="1">  1       21 0.47949117E-01 0.12499956E+03</pdfrwt>
<pdfrwt beam="2">  1       21 0.19281892E-02 0.12499956E+03</pdfrwt>
<totfact> 0.53502578E+06</totfact>
</mgrwt>
</event>
<event>
 5    0  0.1257744E+000  0.1250179E+03  0.7546771E-02  0.1235041E+00
         21   -1    0    0  503  502  0.00000000000E+00  0.00000000000E+00  0.66913046272E+03  0.66913046272E+03  0.00000000000E+00 0. -1.
         21   -1    0    0  502  503 -0.00000000000E+00 -0.00000000000E+00 -0.58394688903E+01  0.58394688903E+01  0.00000000000E+00 0. -1.
         25    2    1    2    0    0  0.00000000000E+00  0.00000000000E+00  0.66329099383E+03  0.67496993161E+03  0.12501786305E+03 0.  0.
          4    1    3    3  501    0 -0.33569333942E+02  0.39960365685E+02  0.51720369366E+03  0.51983246748E+03  0.15500000000E+01 0.  1.
         -4    1    3    3    0  501  0.33569333942E+02 -0.39960365685E+02  0.14608730017E+03  0.15513746413E+03  0.15500000000E+01 0.  1.
<mgrwt>
<rscale>  2 0.12501786E+03</rscale>
<asrwt>0</asrwt>
<pdfrwt beam="1">  1       21 0.10294309E+00 0.12501786E+03</pdfrwt>
<pdfrwt beam="2">  1       21 0.89838036E-03 0.12501786E+03</pdfrwt>
<totfact> 0.33882655E+06</totfact>
</mgrwt>
</event>
<event>
 5    0  0.1535087E+000  0.1250025E+03  0.7546771E-02  0.1235065E+00
         21   -1    0    0  503  502  0.00000000000E+00  0.00000000000E+00  0.14443066204E+02  0.14443066204E+02  0.00000000000E+00 0.  1.
         21   -1    0    0  502  503 -0.00000000000E+00 -0.00000000000E+00 -0.27046923074E+03  0.27046923074E+03  0.00000000000E+00 0.  1.
         25    2    1    2    0    0  0.00000000000E+00  0.00000000000E+00 -0.25602616454E+03  0.28491229694E+03  0.12500248007E+03 0.  0.
          4    1    3    3  501    0 -0.11881306762E+02 -0.60089194457E+02 -0.99900939372E+02  0.11719418470E+03  0.15500000000E+01 0.  1.
         -4    1    3    3    0  501  0.11881306762E+02  0.60089194457E+02 -0.15612522516E+03  0.16771811224E+03  0.15500000000E+01 0.  1.
<mgrwt>
<rscale>  2 0.12500248E+03</rscale>
<asrwt>0</asrwt>
<pdfrwt beam="1">  1       21 0.22220101E-02 0.12500248E+03</pdfrwt>
<pdfrwt beam="2">  1       21 0.41610652E-01 0.12500248E+03</pdfrwt>
<totfact> 0.56730262E+06</totfact>
</mgrwt>
</event>
<event>
 5    0  0.1602176E+000  0.1249991E+03  0.7546771E-02  0.1235071E+00
         21   -1    0    0  503  502  0.00000000000E+00  0.00000000000E+00  0.78903465503E+02  0.78903465503E+02  0.00000000000E+00 0. -1.
         21   -1    0    0  502  503 -0.00000000000E+00 -0.00000000000E+00 -0.49505977766E+02  0.49505977766E+02  0.00000000000E+00 0. -1.
         25    2    1    2    0    0  0.00000000000E+00  0.00000000000E+00  0.29397487737E+02  0.12840944327E+03  0.12499909134E+03 0.  0.
          4    1    3    3  501    0  0.35860474849E+02  0.11690541278E+02 -0.36471380012E+02  0.52490060695E+02  0.15500000000E+01 0.  1.
         -4    1    3    3    0  501 -0.35860474849E+02 -0.11690541278E+02  0.65868867750E+02  0.75919382574E+02  0.15500000000E+01 0.  1.
<mgrwt>
<rscale>  2 0.12499909E+03</rscale>
<asrwt>0</asrwt>
<pdfrwt beam="1">  1       21 0.12138995E-01 0.12499909E+03</pdfrwt>
<pdfrwt beam="2">  1       21 0.76163043E-02 0.12499909E+03</pdfrwt>
<totfact> 0.73580028E+06</totfact>
</mgrwt>
</event>
<event>
 5    0  0.1536579E+000  0.1250042E+03  0.7546771E-02  0.1235063E+00
         21   -1    0    0  503  502  0.00000000000E+00  0.00000000000E+00  0.29660082808E+02  0.29660082808E+02  0.00000000000E+00 0.  1.
         21   -1    0    0  502  503 -0.00000000000E+00 -0.00000000000E+00 -0.13170934393E+03  0.13170934393E+03  0.00000000000E+00 0.  1.
         25    2    1    2    0    0  0.00000000000E+00  0.00000000000E+00 -0.10204926112E+03  0.16136942674E+03  0.12500416069E+03 0.  0.
          4    1    3    3  501    0 -0.56941350412E+02  0.23790718111E+02 -0.63659220893E+02  0.88674768450E+02  0.15500000000E+01 0.  1.
         -4    1    3    3    0  501  0.56941350412E+02 -0.23790718111E+02 -0.38390040230E+02  0.72694658289E+02  0.15500000000E+01 0.  1.
<mgrwt>
<rscale>  2 0.12500416E+03</rscale>
<asrwt>0</asrwt>
<pdfrwt beam="1">  1       21 0.45630897E-02 0.12500416E+03</pdfrwt>
<pdfrwt beam="2">  1       21 0.20262976E-01 0.12500416E+03</pdfrwt>
<totfact> 0.69345218E+06</totfact>
</mgrwt>
</event>
<event>
 5    0  0.1222151E+000  0.1249954E+03  0.7546771E-02  0.1235076E+00
         21   -1    0    0  503  502  0.00000000000E+00  0.00000000000E+00  0.53115799680E+01  0.53115799680E+01  0.00000000000E+00 0.  1.
         21   -1    0    0  502  503 -0.00000000000E+00 -0.00000000000E+00 -0.73536785428E+03  0.73536785428E+03  0.00000000000E+00 0.  1.
         25    2    1    2    0    0  0.00000000000E+00  0.00000000000E+00 -0.73005627431E+03  0.74067943425E+03  0.12499544254E+03 0.  0.
          4    1    3    3  501    0  0.26975013525E+02  0.48767270032E+02 -0.19767020946E+03  0.20538211263E+03  0.15500000000E+01 0. -1.
         -4    1    3    3    0  501 -0.26975013525E+02 -0.48767270032E+02 -0.53238606485E+03  0.53529732161E+03  0.15500000000E+01 0. -1.
<mgrwt>
<rscale>  2 0.12499544E+03</rscale>
<asrwt>0</asrwt>
<pdfrwt beam="1">  1       21 0.81716664E-03 0.12499544E+03</pdfrwt>
<pdfrwt beam="2">  1       21 0.11313345E+00 0.12499544E+03</pdfrwt>
<totfact> 0.31402986E+06</totfact>
</mgrwt>
</event>
<event>
 5    0  0.1626708E+000  0.1249988E+03  0.7546771E-02  0.1235071E+00
         21   -1    0    0  503  502  0.00000000000E+00  0.00000000000E+00  0.39878725950E+02  0.39878725950E+02  0.00000000000E+00 0.  1.
         21   -1    0    0  502  503 -0.00000000000E+00 -0.00000000000E+00 -0.97951300304E+02  0.97951300304E+02  0.00000000000E+00 0.  1.
         25    2    1    2    0    0  0.00000000000E+00  0.00000000000E+00 -0.58072574354E+02  0.13783002625E+03  0.12499876897E+03 0.  0.
          4    1    3    3  501    0 -0.60587231085E+02  0.14504920907E+02 -0.23798374245E+02  0.66708098592E+02  0.15500000000E+01 0.  1.
         -4    1    3    3    0  501  0.60587231085E+02 -0.14504920907E+02 -0.34274200109E+02  0.71121927661E+02  0.15500000000E+01 0.  1.
<mgrwt>
<rscale>  2 0.12499877E+03</rscale>
<asrwt>0</asrwt>
<pdfrwt beam="1">  1       21 0.61351887E-02 0.12499877E+03</pdfrwt>
<pdfrwt beam="2">  1       21 0.15069431E-01 0.12499877E+03</pdfrwt>
<totfact> 0.72326144E+06</totfact>
</mgrwt>
</event>
<event>
 5    0  0.1656041E+000  0.1250029E+03  0.7546771E-02  0.1235065E+00
         21   -1    0    0  503  502  0.00000000000E+00  0.00000000000E+00  0.31954736011E+02  0.31954736011E+02  0.00000000000E+00 0. -1.
         21   -1    0    0  502  503 -0.00000000000E+00 -0.00000000000E+00 -0.12224895737E+03  0.12224895737E+03  0.00000000000E+00 0. -1.
         25    2    1    2    0    0  0.00000000000E+00  0.00000000000E+00 -0.90294221356E+02  0.15420369338E+03  0.12500293053E+03 0.  0.
          4    1    3    3  501    0  0.53103876970E+02 -0.27665585020E+02 -0.23127276729E+02  0.64208097407E+02  0.15500000000E+01 0.  1.
         -4    1    3    3    0  501 -0.53103876970E+02  0.27665585020E+02 -0.67166944627E+02  0.89995595971E+02  0.15500000000E+01 0.  1.
<mgrwt>
<rscale>  2 0.12500293E+03</rscale>
<asrwt>0</asrwt>
<pdfrwt beam="1">  1       21 0.49161132E-02 0.12500293E+03</pdfrwt>
<pdfrwt beam="2">  1       21 0.18807532E-01 0.12500293E+03</pdfrwt>
<totfact> 0.70229529E+06</totfact>
</mgrwt>
</event>
<event>
 5    0  0.1265819E+000  0.1250026E+03  0.7546771E-02  0.1235065E+00
         21   -1    0    0  503  502  0.00000000000E+00  0.00000000000E+00  0.54268264712E+03  0.54268264712E+03  0.00000000000E+00 0. -1.
         21   -1    0    0  502  503 -0.00000000000E+00 -0.00000000000E+00 -0.71983347834E+01  0.71983347834E+01  0.00000000000E+00 0. -1.
         25    2    1    2    0    0  0.00000000000E+00  0.00000000000E+00  0.53548431233E+03  0.54988098190E+03  0.12500258197E+03 0.  0.
          4    1    3    3  501    0  0.62422450844E+02  0.24447786718E+01  0.27307481518E+03  0.28013353333E+03  0.15500000000E+01 0. -1.
         -4    1    3    3    0  501 -0.62422450844E+02 -0.24447786718E+01  0.26240949715E+03  0.26974744857E+03  0.15500000000E+01 0. -1.
<mgrwt>
<rscale>  2 0.12500258E+03</rscale>
<asrwt>0</asrwt>
<pdfrwt beam="1">  1       21 0.83489606E-01 0.12500258E+03</pdfrwt>
<pdfrwt beam="2">  1       21 0.11074365E-02 0.12500258E+03</pdfrwt>
<totfact> 0.39459433E+06</totfact>
</mgrwt>
</event>
<event>
 5    0  0.1222151E+000  0.1250038E+03  0.7546771E-02  0.1235063E+00
         21   -1    0    0  503  502  0.00000000000E+00  0.00000000000E+00  0.53432873434E+01  0.53432873434E+01  0.00000000000E+00 0. -1.
         21   -1    0    0  502  503 -0.00000000000E+00 -0.00000000000E+00 -0.73110188991E+03  0.73110188991E+03  0.00000000000E+00 0. -1.
         25    2    1    2    0    0  0.00000000000E+00  0.00000000000E+00 -0.72575860257E+03  0.73644517726E+03  0.12500379954E+03 0.  0.
          4    1    3    3  501    0 -0.33422986553E+02 -0.33885982437E+02 -0.12438895905E+03  0.13319298581E+03  0.15500000000E+01 0.  1.
         -4    1    3    3    0  501  0.33422986553E+02  0.33885982437E+02 -0.60136964353E+03  0.60325219145E+03  0.15500000000E+01 0.  1.
<mgrwt>
<rscale>  2 0.12500380E+03</rscale>
<asrwt>0</asrwt>
<pdfrwt beam="1">  1       21 0.82204443E-03 0.12500380E+03</pdfrwt>
<pdfrwt beam="2">  1       21 0.11247718E+00 0.12500380E+03</pdfrwt>
<totfact> 0.31548483E+06</totfact>
</mgrwt>
</event>
<event>
 5    0  0.1488912E+000  0.1250083E+03  0.7546771E-02  0.1235056E+00
         21   -1    0    0  503  502  0.00000000000E+00  0.00000000000E+00  0.13781504526E+03  0.13781504526E+03  0.00000000000E+00 0.  1.
         21   -1    0    0  502  503 -0.00000000000E+00 -0.00000000000E+00 -0.28347919255E+02  0.28347919255E+02  0.00000000000E+00 0.  1.
         25    2    1    2    0    0  0.00000000000E+00  0.00000000000E+00  0.10946712600E+03  0.16616296451E+03  0.12500831612E+03 0.  0.
          4    1    3    3  501    0  0.49131108344E+02 -0.17424467393E+02  0.89404199241E+01  0.52913244839E+02  0.15500000000E+01 0.  1.
         -4    1    3    3    0  501 -0.49131108344E+02  0.17424467393E+02  0.10052670608E+03  0.11324971967E+03  0.15500000000E+01 0.  1.
<mgrwt>
<rscale>  2 0.12500832E+03</rscale>
<asrwt>0</asrwt>
<pdfrwt beam="1">  1       21 0.21202314E-01 0.12500832E+03</pdfrwt>
<pdfrwt beam="2">  1       21 0.43612184E-02 0.12500832E+03</pdfrwt>
<totfact> 0.68759650E+06</totfact>
</mgrwt>
</event>
<event>
 5    0  0.1550972E+000  0.1250177E+03  0.7546771E-02  0.1235042E+00
         21   -1    0    0  503  502  0.00000000000E+00  0.00000000000E+00  0.22241668909E+03  0.22241668909E+03  0.00000000000E+00 0.  1.
         21   -1    0    0  502  503 -0.00000000000E+00 -0.00000000000E+00 -0.17567743392E+02  0.17567743392E+02  0.00000000000E+00 0.  1.
         25    2    1    2    0    0  0.00000000000E+00  0.00000000000E+00  0.20484894569E+03  0.23998443248E+03  0.12501774786E+03 0.  0.
          4    1    3    3  501    0  0.61481943584E+02  0.78830424137E+01  0.11763483692E+03  0.13297567109E+03  0.15500000000E+01 0. -1.
         -4    1    3    3    0  501 -0.61481943584E+02 -0.78830424137E+01  0.87214108769E+02  0.10700876138E+03  0.15500000000E+01 0. -1.
<mgrwt>
<rscale>  2 0.12501775E+03</rscale>
<asrwt>0</asrwt>
<pdfrwt beam="1">  1       21 0.34217950E-01 0.12501775E+03</pdfrwt>
<pdfrwt beam="2">  1       21 0.27027299E-02 0.12501775E+03</pdfrwt>
<totfact> 0.60806942E+06</totfact>
</mgrwt>
</event>
<event>
 5    0  0.1463963E+000  0.1249887E+03  0.7546771E-02  0.1235087E+00
         21   -1    0    0  503  502  0.00000000000E+00  0.00000000000E+00  0.43712733823E+02  0.43712733823E+02  0.00000000000E+00 0.  1.
         21   -1    0    0  502  503 -0.00000000000E+00 -0.00000000000E+00 -0.89345615639E+02  0.89345615639E+02  0.00000000000E+00 0.  1.
         25    2    1    2    0    0  0.00000000000E+00  0.00000000000E+00 -0.45632881816E+02  0.13305834946E+03  0.12498865732E+03 0.  0.
          4    1    3    3  501    0 -0.28858370619E+02 -0.13780591384E+02  0.34318274486E+02  0.46934600428E+02  0.15500000000E+01 0.  1.
         -4    1    3    3    0  501  0.28858370619E+02  0.13780591384E+02 -0.79951156302E+02  0.86123749034E+02  0.15500000000E+01 0.  1.
<mgrwt>
<rscale>  2 0.12498866E+03</rscale>
<asrwt>0</asrwt>
<pdfrwt beam="1">  1       21 0.67250361E-02 0.12498866E+03</pdfrwt>
<pdfrwt beam="2">  1       21 0.13745479E-01 0.12498866E+03</pdfrwt>
<totfact> 0.72975720E+06</totfact>
</mgrwt>
</event>
<event>
 5    0  0.1419555E+000  0.1250050E+03  0.7546771E-02  0.1235062E+00
         21   -1    0    0  503  502  0.00000000000E+00  0.00000000000E+00  0.20020294072E+03  0.20020294072E+03  0.00000000000E+00 0. -1.
         21   -1    0    0  502  503 -0.00000000000E+00 -0.00000000000E+00 -0.19512999315E+02  0.19512999315E+02  0.00000000000E+00 0. -1.
         25    2    1    2    0    0  0.00000000000E+00  0.00000000000E+00  0.18068994141E+03  0.21971594004E+03  0.12500495742E+03 0.  0.
          4    1    3    3  501    0  0.48107549746E+02  0.62106799846E+01  0.21118050635E+02  0.52927152305E+02  0.15500000000E+01 0. -1.
         -4    1    3    3    0  501 -0.48107549746E+02 -0.62106799846E+01  0.15957189077E+03  0.16678878773E+03  0.15500000000E+01 0. -1.
<mgrwt>
<rscale>  2 0.12500496E+03</rscale>
<asrwt>0</asrwt>
<pdfrwt beam="1">  1       21 0.30800451E-01 0.12500496E+03</pdfrwt>
<pdfrwt beam="2">  1       21 0.30020000E-02 0.12500496E+03</pdfrwt>
<totfact> 0.62843708E+06</totfact>
</mgrwt>
</event>
<event>
 5    0  0.1222151E+000  0.1249981E+03  0.7546771E-02  0.1235072E+00
         21   -1    0    0  503  502  0.00000000000E+00  0.00000000000E+00  0.29679286813E+03  0.29679286813E+03  0.00000000000E+00 0.  1.
         21   -1    0    0  502  503 -0.00000000000E+00 -0.00000000000E+00 -0.13161126550E+02  0.13161126550E+02  0.00000000000E+00 0.  1.
         25    2    1    2    0    0  0.00000000000E+00  0.00000000000E+00  0.28363174158E+03  0.30995399468E+03  0.12499805593E+03 0.  0.
          4    1    3    3  501    0  0.24411387322E+02 -0.49300473057E+01  0.28390563941E+03  0.28500006278E+03  0.15500000000E+01 0. -1.
         -4    1    3    3    0  501 -0.24411387322E+02  0.49300473057E+01 -0.27389782369E+00  0.24953931903E+02  0.15500000000E+01 0. -1.
<mgrwt>
<rscale>  2 0.12499806E+03</rscale>
<asrwt>0</asrwt>
<pdfrwt beam="1">  1       21 0.45660436E-01 0.12499806E+03</pdfrwt>
<pdfrwt beam="2">  1       21 0.20247889E-02 0.12499806E+03</pdfrwt>
<totfact> 0.54641640E+06</totfact>
</mgrwt>
</event>
<event>
 5    0  0.1480155E+000  0.1250011E+03  0.7546771E-02  0.1235068E+00
         21   -1    0    0  503  502  0.00000000000E+00  0.00000000000E+00  0.42144395776E+02  0.42144395776E+02  0.00000000000E+00 0. -1.
         21   -1    0    0  502  503 -0.00000000000E+00 -0.00000000000E+00 -0.92688898074E+02  0.92688898074E+02  0.00000000000E+00 0. -1.
         25    2    1    2    0    0  0.00000000000E+00  0.00000000000E+00 -0.50544502298E+02  0.13483329385E+03  0.12500108167E+03 0.  0.
          4    1    3    3  501    0  0.31718973901E+02 -0.77139157857E+01 -0.82738631807E+02  0.88958875304E+02  0.15500000000E+01 0. -1.
         -4    1    3    3    0  501 -0.31718973901E+02  0.77139157857E+01  0.32194129509E+02  0.45874418546E+02  0.15500000000E+01 0. -1.
<mgrwt>
<rscale>  2 0.12500108E+03</rscale>
<asrwt>0</asrwt>
<pdfrwt beam="1">  1       21 0.64837533E-02 0.12500108E+03</pdfrwt>
<pdfrwt beam="2">  1       21 0.14259830E-01 0.12500108E+03</pdfrwt>
<totfact> 0.72716546E+06</totfact>
</mgrwt>
</event>
<event>
 5    0  0.1511552E+000  0.1249960E+03  0.7546771E-02  0.1235076E+00
         21   -1    0    0  503  502  0.00000000000E+00  0.00000000000E+00  0.15529259459E+02  0.15529259459E+02  0.00000000000E+00 0.  1.
         21   -1    0    0  502  503 -0.00000000000E+00 -0.00000000000E+00 -0.25152509831E+03  0.25152509831E+03  0.00000000000E+00 0.  1.
         25    2    1    2    0    0  0.00000000000E+00  0.00000000000E+00 -0.23599583885E+03  0.26705435777E+03  0.12499597613E+03 0.  0.
          4    1    3    3  501    0  0.50771014328E+02 -0.29986466762E+02 -0.16213168948E+03  0.17252817543E+03  0.15500000000E+01 0. -1.
         -4    1    3    3    0  501 -0.50771014328E+02  0.29986466762E+02 -0.73864149376E+02  0.94526182340E+02  0.15500000000E+01 0. -1.
<mgrwt>
<rscale>  2 0.12499598E+03</rscale>
<asrwt>0</asrwt>
<pdfrwt beam="1">  1       21 0.23891170E-02 0.12499598E+03</pdfrwt>
<pdfrwt beam="2">  1       21 0.38696167E-01 0.12499598E+03</pdfrwt>
<totfact> 0.58314583E+06</totfact>
</mgrwt>
</event>
<event>
 5    0  0.1515567E+000  0.1250050E+03  0.7546771E-02  0.1235061E+00
         21   -1    0    0  503  502  0.00000000000E+00  0.00000000000E+00  0.17977445474E+02  0.17977445474E+02  0.00000000000E+00 0. -1.
         21   -1    0    0  502  503 -0.00000000000E+00 -0.00000000000E+00 -0.21730348087E+03  0.21730348087E+03  0.00000000000E+00 0. -1.
         25    2    1    2    0    0  0.00000000000E+00  0.00000000000E+00 -0.19932603539E+03  0.23528092634E+03  0.12500498356E+03 0.  0.
          4    1    3    3  501    0  0.52116081313E+02  0.33701236277E+02 -0.86051420820E+02  0.10610894771E+03  0.15500000000E+01 0. -1.
         -4    1    3    3    0  501 -0.52116081313E+02 -0.33701236277E+02 -0.11327461457E+03  0.12917197864E+03  0.15500000000E+01 0. -1.
<mgrwt>
<rscale>  2 0.12500498E+03</rscale>
<asrwt>0</asrwt>
<pdfrwt beam="1">  1       21 0.27657609E-02 0.12500498E+03</pdfrwt>
<pdfrwt beam="2">  1       21 0.33431304E-01 0.12500498E+03</pdfrwt>
<totfact> 0.61284622E+06</totfact>
</mgrwt>
</event>
<event>
 5    0  0.1615146E+000  0.1250163E+03  0.7546771E-02  0.1235044E+00
         21   -1    0    0  503  502  0.00000000000E+00  0.00000000000E+00  0.40233589541E+02  0.40233589541E+02  0.00000000000E+00 0.  1.
         21   -1    0    0  502  503 -0.00000000000E+00 -0.00000000000E+00 -0.97114672100E+02  0.97114672100E+02  0.00000000000E+00 0.  1.
         25    2    1    2    0    0  0.00000000000E+00  0.00000000000E+00 -0.56881082559E+02  0.13734826164E+03  0.12501634862E+03 0.  0.
          4    1    3    3  501    0 -0.12770775922E+02  0.51539288810E+02  0.77559887670E+01  0.53683785917E+02  0.15500000000E+01 0. -1.
         -4    1    3    3    0  501  0.12770775922E+02 -0.51539288810E+02 -0.64637071326E+02  0.83664475724E+02  0.15500000000E+01 0. -1.
<mgrwt>
<rscale>  2 0.12501635E+03</rscale>
<asrwt>0</asrwt>
<pdfrwt beam="1">  1       21 0.61897831E-02 0.12501635E+03</pdfrwt>
<pdfrwt beam="2">  1       21 0.14940719E-01 0.12501635E+03</pdfrwt>
<totfact> 0.72356845E+06</totfact>
</mgrwt>
</event>
<event>
 5    0  0.1298230E+000  0.1249917E+03  0.7546771E-02  0.1235082E+00
         21   -1    0    0  503  502  0.00000000000E+00  0.00000000000E+00  0.45584009023E+03  0.45584009023E+03  0.00000000000E+00 0. -1.
         21   -1    0    0  502  503 -0.00000000000E+00 -0.00000000000E+00 -0.85682040661E+01  0.85682040661E+01  0.00000000000E+00 0. -1.
         25    2    1    2    0    0  0.00000000000E+00  0.00000000000E+00  0.44727188617E+03  0.46440829430E+03  0.12499169436E+03 0.  0.
          4    1    3    3  501    0 -0.48695741127E+02  0.47755459699E+00  0.36905569870E+03  0.37225799455E+03  0.15500000000E+01 0. -1.
         -4    1    3    3    0  501  0.48695741127E+02 -0.47755459699E+00  0.78216187468E+02  0.92150299752E+02  0.15500000000E+01 0. -1.
<mgrwt>
<rscale>  2 0.12499169E+03</rscale>
<asrwt>0</asrwt>
<pdfrwt beam="1">  1       21 0.70129226E-01 0.12499169E+03</pdfrwt>
<pdfrwt beam="2">  1       21 0.13181856E-02 0.12499169E+03</pdfrwt>
<totfact> 0.44051602E+06</totfact>
</mgrwt>
</event>
<event>
 5    0  0.1545474E+000  0.1250048E+03  0.7546771E-02  0.1235062E+00
         21   -1    0    0  503  502  0.00000000000E+00  0.00000000000E+00  0.15196362691E+02  0.15196362691E+02  0.00000000000E+00 0. -1.
         21   -1    0    0  502  503 -0.00000000000E+00 -0.00000000000E+00 -0.25707126021E+03  0.25707126021E+03  0.00000000000E+00 0. -1.
         25    2    1    2    0    0  0.00000000000E+00  0.00000000000E+00 -0.24187489752E+03  0.27226762290E+03  0.12500476963E+03 0.  0.
          4    1    3    3  501    0 -0.37939125009E+02  0.48783378465E+02 -0.10086260862E+03  0.11829988816E+03  0.15500000000E+01 0.  1.
         -4    1    3    3    0  501  0.37939125009E+02 -0.48783378465E+02 -0.14101228891E+03  0.15396773475E+03  0.15500000000E+01 0.  1.
<mgrwt>
<rscale>  2 0.12500477E+03</rscale>
<asrwt>0</asrwt>
<pdfrwt beam="1">  1       21 0.23379021E-02 0.12500477E+03</pdfrwt>
<pdfrwt beam="2">  1       21 0.39549423E-01 0.12500477E+03</pdfrwt>
<totfact> 0.57835623E+06</totfact>
</mgrwt>
</event>
<event>
 5    0  0.1485911E+000  0.1250008E+03  0.7546771E-02  0.1235068E+00
         21   -1    0    0  503  502  0.00000000000E+00  0.00000000000E+00  0.16712818067E+02  0.16712818067E+02  0.00000000000E+00 0.  1.
         21   -1    0    0  502  503 -0.00000000000E+00 -0.00000000000E+00 -0.23373096630E+03  0.23373096630E+03  0.00000000000E+00 0.  1.
         25    2    1    2    0    0  0.00000000000E+00  0.00000000000E+00 -0.21701814823E+03  0.25044378437E+03  0.12500084986E+03 0.  0.
          4    1    3    3  501    0 -0.59914129172E+02 -0.17366617995E+02 -0.10139769829E+03  0.11905964058E+03  0.15500000000E+01 0.  1.
         -4    1    3    3    0  501  0.59914129172E+02  0.17366617995E+02 -0.11562044994E+03  0.13138414379E+03  0.15500000000E+01 0.  1.
<mgrwt>
<rscale>  2 0.12500085E+03</rscale>
<asrwt>0</asrwt>
<pdfrwt beam="1">  1       21 0.25712029E-02 0.12500085E+03</pdfrwt>
<pdfrwt beam="2">  1       21 0.35958608E-01 0.12500085E+03</pdfrwt>
<totfact> 0.59835152E+06</totfact>
</mgrwt>
</event>
<event>
 5    0  0.1622460E+000  0.1250000E+03  0.7546771E-02  0.1235069E+00
         21   -1    0    0  503  502  0.00000000000E+00  0.00000000000E+00  0.37852788474E+02  0.37852788474E+02  0.00000000000E+00 0. -1.
         21   -1    0    0  502  503 -0.00000000000E+00 -0.00000000000E+00 -0.10319585755E+03  0.10319585755E+03  0.00000000000E+00 0. -1.
         25    2    1    2    0    0  0.00000000000E+00  0.00000000000E+00 -0.65343069080E+02  0.14104864603E+03  0.12500001548E+03 0.  0.
          4    1    3    3  501    0 -0.13825882417E+02 -0.59140282931E+02 -0.16121472332E+02  0.62857238723E+02  0.15500000000E+01 0.  1.
         -4    1    3    3    0  501  0.13825882417E+02  0.59140282931E+02 -0.49221596748E+02  0.78191407305E+02  0.15500000000E+01 0.  1.
<mgrwt>
<rscale>  2 0.12500002E+03</rscale>
<asrwt>0</asrwt>
<pdfrwt beam="1">  1       21 0.58235061E-02 0.12500002E+03</pdfrwt>
<pdfrwt beam="2">  1       21 0.15876285E-01 0.12500002E+03</pdfrwt>
<totfact> 0.71902676E+06</totfact>
</mgrwt>
</event>
<event>
 5    0  0.1222151E+000  0.1249922E+03  0.7546771E-02  0.1235082E+00
         21   -1    0    0  503  502  0.00000000000E+00  0.00000000000E+00  0.47702587076E+01  0.47702587076E+01  0.00000000000E+00 0.  1.
         21   -1    0    0  502  503 -0.00000000000E+00 -0.00000000000E+00 -0.81877344413E+03  0.81877344413E+03  0.00000000000E+00 0.  1.
         25    2    1    2    0    0  0.00000000000E+00  0.00000000000E+00 -0.81400318543E+03  0.82354370284E+03  0.12499217818E+03 0.  0.
          4    1    3    3  501    0 -0.29092255348E+02 -0.53398649885E+02 -0.50147247338E+03  0.50514831405E+03  0.15500000000E+01 0. -1.
         -4    1    3    3    0  501  0.29092255348E+02  0.53398649885E+02 -0.31253071205E+03  0.31839538879E+03  0.15500000000E+01 0. -1.
<mgrwt>
<rscale>  2 0.12499218E+03</rscale>
<asrwt>0</asrwt>
<pdfrwt beam="1">  1       21 0.73388631E-03 0.12499218E+03</pdfrwt>
<pdfrwt beam="2">  1       21 0.12596508E+00 0.12499218E+03</pdfrwt>
<totfact> 0.28603026E+06</totfact>
</mgrwt>
</event>
<event>
 5    0  0.1541407E+000  0.1250133E+03  0.7546771E-02  0.1235048E+00
         21   -1    0    0  503  502  0.00000000000E+00  0.00000000000E+00  0.15415433019E+03  0.15415433019E+03  0.00000000000E+00 0.  1.
         21   -1    0    0  502  503 -0.00000000000E+00 -0.00000000000E+00 -0.25345277093E+02  0.25345277093E+02  0.00000000000E+00 0.  1.
         25    2    1    2    0    0  0.00000000000E+00  0.00000000000E+00  0.12880905310E+03  0.17949960728E+03  0.12501334671E+03 0.  0.
          4    1    3    3  501    0  0.51447741120E+02  0.27558332851E+02  0.32351110158E+02  0.66748247949E+02  0.15500000000E+01 0. -1.
         -4    1    3    3    0  501 -0.51447741120E+02 -0.27558332851E+02  0.96457942940E+02  0.11275135934E+03  0.15500000000E+01 0. -1.
<mgrwt>
<rscale>  2 0.12501335E+03</rscale>
<asrwt>0</asrwt>
<pdfrwt beam="1">  1       21 0.23716050E-01 0.12501335E+03</pdfrwt>
<pdfrwt beam="2">  1       21 0.38992735E-02 0.12501335E+03</pdfrwt>
<totfact> 0.67186239E+06</totfact>
</mgrwt>
</event>
<event>
 5    0  0.1558364E+000  0.1250271E+03  0.7546771E-02  0.1235027E+00
         21   -1    0    0  503  502  0.00000000000E+00  0.00000000000E+00  0.14922757178E+03  0.14922757178E+03  0.00000000000E+00 0. -1.
         21   -1    0    0  502  503 -0.00000000000E+00 -0.00000000000E+00 -0.26187804205E+02  0.26187804205E+02  0.00000000000E+00 0. -1.
         25    2    1    2    0    0  0.00000000000E+00  0.00000000000E+00  0.12303976758E+03  0.17541537599E+03  0.12502707598E+03 0.  0.
          4    1    3    3  501    0  0.21766526805E+02 -0.54224724023E+02  0.30417208118E+02  0.65891664376E+02  0.15500000000E+01 0.  1.
         -4    1    3    3    0  501 -0.21766526805E+02  0.54224724023E+02  0.92622559458E+02  0.10952371161E+03  0.15500000000E+01 0.  1.
<mgrwt>
<rscale>  2 0.12502708E+03</rscale>
<asrwt>0</asrwt>
<pdfrwt beam="1">  1       21 0.22958087E-01 0.12502708E+03</pdfrwt>
<pdfrwt beam="2">  1       21 0.40288930E-02 0.12502708E+03</pdfrwt>
<totfact> 0.67634923E+06</totfact>
</mgrwt>
</event>
<event>
 5    0  0.1409064E+000  0.1250046E+03  0.7546771E-02  0.1235062E+00
         21   -1    0    0  503  502  0.00000000000E+00  0.00000000000E+00  0.21611076764E+02  0.21611076764E+02  0.00000000000E+00 0. -1.
         21   -1    0    0  502  503 -0.00000000000E+00 -0.00000000000E+00 -0.18076540488E+03  0.18076540488E+03  0.00000000000E+00 0. -1.
         25    2    1    2    0    0  0.00000000000E+00  0.00000000000E+00 -0.15915432812E+03  0.20237648165E+03  0.12500456058E+03 0.  0.
          4    1    3    3  501    0 -0.15611221037E+02  0.41313423552E+02 -0.15113457235E+03  0.15746291832E+03  0.15500000000E+01 0. -1.
         -4    1    3    3    0  501  0.15611221037E+02 -0.41313423552E+02 -0.80197557726E+01  0.44913563325E+02  0.15500000000E+01 0. -1.
<mgrwt>
<rscale>  2 0.12500456E+03</rscale>
<asrwt>0</asrwt>
<pdfrwt beam="1">  1       21 0.33247811E-02 0.12500456E+03</pdfrwt>
<pdfrwt beam="2">  1       21 0.27810062E-01 0.12500456E+03</pdfrwt>
<totfact> 0.64663187E+06</totfact>
</mgrwt>
</event>
<event>
 5    0  0.1222151E+000  0.1249987E+03  0.7546771E-02  0.1235071E+00
         21   -1    0    0  503  502  0.00000000000E+00  0.00000000000E+00  0.45187143769E+01  0.45187143769E+01  0.00000000000E+00 0.  1.
         21   -1    0    0  502  503 -0.00000000000E+00 -0.00000000000E+00 -0.86444239901E+03  0.86444239901E+03  0.00000000000E+00 0.  1.
         25    2    1    2    0    0  0.00000000000E+00  0.00000000000E+00 -0.85992368464E+03  0.86896111339E+03  0.12499869274E+03 0.  0.
          4    1    3    3  501    0  0.13272549078E+02 -0.19501376246E+02 -0.27761634275E+02  0.36463338741E+02  0.15500000000E+01 0.  1.
         -4    1    3    3    0  501 -0.13272549078E+02  0.19501376246E+02 -0.83216205036E+03  0.83249777465E+03  0.15500000000E+01 0.  1.
<mgrwt>
<rscale>  2 0.12499869E+03</rscale>
<asrwt>0</asrwt>
<pdfrwt beam="1">  1       21 0.69518756E-03 0.12499869E+03</pdfrwt>
<pdfrwt beam="2">  1       21 0.13299100E+00 0.12499869E+03</pdfrwt>
<totfact> 0.27202011E+06</totfact>
</mgrwt>
</event>
<event>
 5    0  0.1531423E+000  0.1249990E+03  0.7546771E-02  0.1235071E+00
         21   -1    0    0  503  502  0.00000000000E+00  0.00000000000E+00  0.72161680306E+02  0.72161680306E+02  0.00000000000E+00 0. -1.
         21   -1    0    0  502  503 -0.00000000000E+00 -0.00000000000E+00 -0.54131048975E+02  0.54131048975E+02  0.00000000000E+00 0. -1.
         25    2    1    2    0    0  0.00000000000E+00  0.00000000000E+00  0.18030631330E+02  0.12629272928E+03  0.12499899921E+03 0.  0.
          4    1    3    3  501    0 -0.29377897471E+01 -0.26691660647E+02 -0.47984088982E+02  0.55008641613E+02  0.15500000000E+01 0.  1.
         -4    1    3    3    0  501  0.29377897471E+01  0.26691660647E+02  0.66014720312E+02  0.71284087668E+02  0.15500000000E+01 0.  1.
<mgrwt>
<rscale>  2 0.12499900E+03</rscale>
<asrwt>0</asrwt>
<pdfrwt beam="1">  1       21 0.11101797E-01 0.12499900E+03</pdfrwt>
<pdfrwt beam="2">  1       21 0.83278537E-02 0.12499900E+03</pdfrwt>
<totfact> 0.73867663E+06</totfact>
</mgrwt>
</event>
<event>
 5    0  0.1474376E+000  0.1249945E+03  0.7546771E-02  0.1235078E+00
         21   -1    0    0  503  502  0.00000000000E+00  0.00000000000E+00  0.13253348117E+02  0.13253348117E+02  0.00000000000E+00 0. -1.
         21   -1    0    0  502  503 -0.00000000000E+00 -0.00000000000E+00 -0.29471108548E+03  0.29471108548E+03  0.00000000000E+00 0. -1.
         25    2    1    2    0    0  0.00000000000E+00  0.00000000000E+00 -0.28145773737E+03  0.30796443360E+03  0.12499453764E+03 0.  0.
          4    1    3    3  501    0  0.37636795286E+02 -0.10731073958E+02 -0.20737347989E+02  0.44318443218E+02  0.15500000000E+01 0.  1.
         -4    1    3    3    0  501 -0.37636795286E+02  0.10731073958E+02 -0.26072038938E+03  0.26364599038E+03  0.15500000000E+01 0.  1.
<mgrwt>
<rscale>  2 0.12499454E+03</rscale>
<asrwt>0</asrwt>
<pdfrwt beam="1">  1       21 0.20389767E-02 0.12499454E+03</pdfrwt>
<pdfrwt beam="2">  1       21 0.45340165E-01 0.12499454E+03</pdfrwt>
<totfact> 0.54808244E+06</totfact>
</mgrwt>
</event>
<event>
 5    0  0.1544784E+000  0.1249951E+03  0.7546771E-02  0.1235077E+00
         21   -1    0    0  503  502  0.00000000000E+00  0.00000000000E+00  0.39433368120E+02  0.39433368120E+02  0.00000000000E+00 0.  1.
         21   -1    0    0  502  503 -0.00000000000E+00 -0.00000000000E+00 -0.99051674150E+02  0.99051674150E+02  0.00000000000E+00 0.  1.
         25    2    1    2    0    0  0.00000000000E+00  0.00000000000E+00 -0.59618306030E+02  0.13848504227E+03  0.12499505798E+03 0.  0.
          4    1    3    3  501    0 -0.33791082975E+02  0.49633051277E+02 -0.48943280778E+02  0.77479831576E+02  0.15500000000E+01 0.  1.
         -4    1    3    3    0  501  0.33791082975E+02 -0.49633051277E+02 -0.10675025253E+02  0.61005210694E+02  0.15500000000E+01 0.  1.
<mgrwt>
<rscale>  2 0.12499506E+03</rscale>
<asrwt>0</asrwt>
<pdfrwt beam="1">  1       21 0.60666720E-02 0.12499506E+03</pdfrwt>
<pdfrwt beam="2">  1       21 0.15238719E-01 0.12499506E+03</pdfrwt>
<totfact> 0.72246802E+06</totfact>
</mgrwt>
</event>
<event>
 5    0  0.1279417E+000  0.1249961E+03  0.7546771E-02  0.1235075E+00
         21   -1    0    0  503  502  0.00000000000E+00  0.00000000000E+00  0.60339305753E+03  0.60339305753E+03  0.00000000000E+00 0. -1.
         21   -1    0    0  502  503 -0.00000000000E+00 -0.00000000000E+00 -0.64734071503E+01  0.64734071503E+01  0.00000000000E+00 0. -1.
         25    2    1    2    0    0  0.00000000000E+00  0.00000000000E+00  0.59691965038E+03  0.60986646468E+03  0.12499614287E+03 0.  0.
          4    1    3    3  501    0 -0.47890066130E+02  0.28809421133E+02  0.43473961128E+03  0.43831994399E+03  0.15500000000E+01 0. -1.
         -4    1    3    3    0  501  0.47890066130E+02 -0.28809421133E+02  0.16218003910E+03  0.17154652069E+03  0.15500000000E+01 0. -1.
<mgrwt>
<rscale>  2 0.12499614E+03</rscale>
<asrwt>0</asrwt>
<pdfrwt beam="1">  1       21 0.92829657E-01 0.12499614E+03</pdfrwt>
<pdfrwt beam="2">  1       21 0.99590927E-03 0.12499614E+03</pdfrwt>
<totfact> 0.36653724E+06</totfact>
</mgrwt>
</event>
<event>
 5    0  0.1500408E+000  0.1249989E+03  0.7546771E-02  0.1235071E+00
         21   -1    0    0  503  502  0.00000000000E+00  0.00000000000E+00  0.26077016763E+02  0.26077016763E+02  0.00000000000E+00 0.  1.
         21   -1    0    0  502  503 -0.00000000000E+00 -0.00000000000E+00 -0.14979409146E+03  0.14979409146E+03  0.00000000000E+00 0.  1.
         25    2    1    2    0    0  0.00000000000E+00  0.00000000000E+00 -0.12371707470E+03  0.17587110822E+03  0.12499892854E+03 0.  0.
          4    1    3    3  501    0 -0.56857602734E+01  0.40412113401E+02 -0.12842395966E+03  0.13476120619E+03  0.15500000000E+01 0. -1.
         -4    1    3    3    0  501  0.56857602734E+01 -0.40412113401E+02  0.47068849584E+01  0.41109902036E+02  0.15500000000E+01 0. -1.
<mgrwt>
<rscale>  2 0.12499893E+03</rscale>
<asrwt>0</asrwt>
<pdfrwt beam="1">  1       21 0.40118487E-02 0.12499893E+03</pdfrwt>
<pdfrwt beam="2">  1       21 0.23045245E-01 0.12499893E+03</pdfrwt>
<totfact> 0.67630214E+06</totfact>
</mgrwt>
</event>
<event>
 5    0  0.1600196E+000  0.1249884E+03  0.7546771E-02  0.1235087E+00
         21   -1    0    0  503  502  0.00000000000E+00  0.00000000000E+00  0.97646158821E+02  0.97646158821E+02  0.00000000000E+00 0. -1.
         21   -1    0    0  502  503 -0.00000000000E+00 -0.00000000000E+00 -0.39996730093E+02  0.39996730093E+02  0.00000000000E+00 0. -1.
         25    2    1    2    0    0  0.00000000000E+00  0.00000000000E+00  0.57649428728E+02  0.13764288891E+03  0.12498843241E+03 0.  0.
          4    1    3    3  501    0 -0.50773398722E+02  0.40596921579E+01 -0.11013963043E+02  0.52135678763E+02  0.15500000000E+01 0.  1.
         -4    1    3    3    0  501  0.50773398722E+02 -0.40596921579E+01  0.68663391771E+02  0.85507210150E+02  0.15500000000E+01 0.  1.
<mgrwt>
<rscale>  2 0.12498843E+03</rscale>
<asrwt>0</asrwt>
<pdfrwt beam="1">  1       21 0.15022486E-01 0.12498843E+03</pdfrwt>
<pdfrwt beam="2">  1       21 0.61533431E-02 0.12498843E+03</pdfrwt>
<totfact> 0.72369734E+06</totfact>
</mgrwt>
</event>
<event>
 5    0  0.1348763E+000  0.1250003E+03  0.7546771E-02  0.1235069E+00
         21   -1    0    0  503  502  0.00000000000E+00  0.00000000000E+00  0.32686586798E+03  0.32686586798E+03  0.00000000000E+00 0.  1.
         21   -1    0    0  502  503 -0.00000000000E+00 -0.00000000000E+00 -0.11950679066E+02  0.11950679066E+02  0.00000000000E+00 0.  1.
         25    2    1    2    0    0  0.00000000000E+00  0.00000000000E+00  0.31491518891E+03  0.33881654704E+03  0.12500030537E+03 0.  0.
          4    1    3    3  501    0  0.20685711243E+02  0.39887899230E+02  0.39778208192E+02  0.60030421467E+02  0.15500000000E+01 0.  1.
         -4    1    3    3    0  501 -0.20685711243E+02 -0.39887899230E+02  0.27513698072E+03  0.27878612558E+03  0.15500000000E+01 0.  1.
<mgrwt>
<rscale>  2 0.12500031E+03</rscale>
<asrwt>0</asrwt>
<pdfrwt beam="1">  1       21 0.50287050E-01 0.12500031E+03</pdfrwt>
<pdfrwt beam="2">  1       21 0.18385663E-02 0.12500031E+03</pdfrwt>
<totfact> 0.52374720E+06</totfact>
</mgrwt>
</event>
<event>
 5    0  0.1514937E+000  0.1249957E+03  0.7546771E-02  0.1235076E+00
         21   -1    0    0  503  502  0.00000000000E+00  0.00000000000E+00  0.13471242282E+03  0.13471242282E+03  0.00000000000E+00 0.  1.
         21   -1    0    0  502  503 -0.00000000000E+00 -0.00000000000E+00 -0.28994950487E+02  0.28994950487E+02  0.00000000000E+00 0.  1.
         25    2    1    2    0    0  0.00000000000E+00  0.00000000000E+00  0.10571747233E+03  0.16370737330E+03  0.12499568040E+03 0.  0.
          4    1    3    3  501    0 -0.15201979238E+01 -0.52500166886E+02  0.85411814081E+01  0.53234695496E+02  0.15500000000E+01 0.  1.
         -4    1    3    3    0  501  0.15201979238E+01  0.52500166886E+02  0.97176290921E+02  0.11047267781E+03  0.15500000000E+01 0.  1.
<mgrwt>
<rscale>  2 0.12499568E+03</rscale>
<asrwt>0</asrwt>
<pdfrwt beam="1">  1       21 0.20724988E-01 0.12499568E+03</pdfrwt>
<pdfrwt beam="2">  1       21 0.44607617E-02 0.12499568E+03</pdfrwt>
<totfact> 0.69076892E+06</totfact>
</mgrwt>
</event>
<event>
 5    0  0.1566481E+000  0.1250105E+03  0.7546771E-02  0.1235053E+00
         21   -1    0    0  503  502  0.00000000000E+00  0.00000000000E+00  0.16555116324E+03  0.16555116324E+03  0.00000000000E+00 0. -1.
         21   -1    0    0  502  503 -0.00000000000E+00 -0.00000000000E+00 -0.23599392653E+02  0.23599392653E+02  0.00000000000E+00 0. -1.
         25    2    1    2    0    0  0.00000000000E+00  0.00000000000E+00  0.14195177059E+03  0.18915055589E+03  0.12501051005E+03 0.  0.
          4    1    3    3  501    0  0.82579958498E+01  0.45657969045E+02  0.76493142161E+01  0.47050601917E+02  0.15500000000E+01 0.  1.
         -4    1    3    3    0  501 -0.82579958498E+01 -0.45657969045E+02  0.13430245637E+03  0.14209995397E+03  0.15500000000E+01 0.  1.
<mgrwt>
<rscale>  2 0.12501051E+03</rscale>
<asrwt>0</asrwt>
<pdfrwt beam="1">  1       21 0.25469409E-01 0.12501051E+03</pdfrwt>
<pdfrwt beam="2">  1       21 0.36306759E-02 0.12501051E+03</pdfrwt>
<totfact> 0.66099389E+06</totfact>
</mgrwt>
</event>
<event>
 5    0  0.1526451E+000  0.1249947E+03  0.7546771E-02  0.1235078E+00
         21   -1    0    0  503  502  0.00000000000E+00  0.00000000000E+00  0.16537036997E+02  0.16537036997E+02  0.00000000000E+00 0. -1.
         21   -1    0    0  502  503 -0.00000000000E+00 -0.00000000000E+00 -0.23619214815E+03  0.23619214815E+03  0.00000000000E+00 0. -1.
         25    2    1    2    0    0  0.00000000000E+00  0.00000000000E+00 -0.21965511116E+03  0.25272918515E+03  0.12499469256E+03 0.  0.
          4    1    3    3  501    0 -0.58429481370E+02 -0.22123655590E+02 -0.10935181334E+03  0.12595110961E+03  0.15500000000E+01 0.  1.
         -4    1    3    3    0  501  0.58429481370E+02  0.22123655590E+02 -0.11030329782E+03  0.12677807554E+03  0.15500000000E+01 0.  1.
<mgrwt>
<rscale>  2 0.12499469E+03</rscale>
<asrwt>0</asrwt>
<pdfrwt beam="1">  1       21 0.25441597E-02 0.12499469E+03</pdfrwt>
<pdfrwt beam="2">  1       21 0.36337252E-01 0.12499469E+03</pdfrwt>
<totfact> 0.59630165E+06</totfact>
</mgrwt>
</event>
<event>
 5    0  0.1508794E+000  0.1249795E+03  0.7546771E-02  0.1235101E+00
         21   -1    0    0  503  502  0.00000000000E+00  0.00000000000E+00  0.21316187103E+02  0.21316187103E+02  0.00000000000E+00 0.  1.
         21   -1    0    0  502  503 -0.00000000000E+00 -0.00000000000E+00 -0.18319278160E+03  0.18319278160E+03  0.00000000000E+00 0.  1.
         25    2    1    2    0    0  0.00000000000E+00  0.00000000000E+00 -0.16187659450E+03  0.20450896870E+03  0.12497954406E+03 0.  0.
          4    1    3    3  501    0  0.33216420493E+02 -0.50603764571E+02 -0.55667708219E+02  0.82251856012E+02  0.15500000000E+01 0.  1.
         -4    1    3    3    0  501 -0.33216420493E+02  0.50603764571E+02 -0.10620888628E+03  0.12225711269E+03  0.15500000000E+01 0.  1.
<mgrwt>
<rscale>  2 0.12497954E+03</rscale>
<asrwt>0</asrwt>
<pdfrwt beam="1">  1       21 0.32794133E-02 0.12497954E+03</pdfrwt>
<pdfrwt beam="2">  1       21 0.28183506E-01 0.12497954E+03</pdfrwt>
<totfact> 0.64475296E+06</totfact>
</mgrwt>
</event>
<event>
 5    0  0.1471091E+000  0.1249948E+03  0.7546771E-02  0.1235077E+00
         21   -1    0    0  503  502  0.00000000000E+00  0.00000000000E+00  0.32986061565E+03  0.32986061565E+03  0.00000000000E+00 0.  1.
         21   -1    0    0  502  503 -0.00000000000E+00 -0.00000000000E+00 -0.11841143206E+02  0.11841143206E+02  0.00000000000E+00 0.  1.
         25    2    1    2    0    0  0.00000000000E+00  0.00000000000E+00  0.31801947244E+03  0.34170175886E+03  0.12499482850E+03 0.  0.
          4    1    3    3  501    0  0.36465721045E+02  0.45625567464E+02  0.98367615433E+02  0.11441167547E+03  0.15500000000E+01 0.  1.
         -4    1    3    3    0  501 -0.36465721045E+02 -0.45625567464E+02  0.21965185701E+03  0.22729008339E+03  0.15500000000E+01 0.  1.
<mgrwt>
<rscale>  2 0.12499483E+03</rscale>
<asrwt>0</asrwt>
<pdfrwt beam="1">  1       21 0.50747780E-01 0.12499483E+03</pdfrwt>
<pdfrwt beam="2">  1       21 0.18217146E-02 0.12499483E+03</pdfrwt>
<totfact> 0.52163944E+06</totfact>
</mgrwt>
</event>
<event>
 5    0  0.1665317E+000  0.1249878E+03  0.7546771E-02  0.1235088E+00
         21   -1    0    0  503  502  0.00000000000E+00  0.00000000000E+00  0.10688778064E+03  0.10688778064E+03  0.00000000000E+00 0.  1.
         21   -1    0    0  502  503 -0.00000000000E+00 -0.00000000000E+00 -0.36538221493E+02  0.36538221493E+02  0.00000000000E+00 0.  1.
         25    2    1    2    0    0  0.00000000000E+00  0.00000000000E+00  0.70349559152E+02  0.14342600214E+03  0.12498782987E+03 0.  0.
          4    1    3    3  501    0  0.59579685176E+01 -0.61270425438E+02  0.47401357766E+02  0.77710061384E+02  0.15500000000E+01 0.  1.
         -4    1    3    3    0  501 -0.59579685176E+01  0.61270425438E+02  0.22948201386E+02  0.65715940753E+02  0.15500000000E+01 0.  1.
<mgrwt>
<rscale>  2 0.12498783E+03</rscale>
<asrwt>0</asrwt>
<pdfrwt beam="1">  1       21 0.16444274E-01 0.12498783E+03</pdfrwt>
<pdfrwt beam="2">  1       21 0.56212649E-02 0.12498783E+03</pdfrwt>
<totfact> 0.71617343E+06</totfact>
</mgrwt>
</event>
<event>
 5    0  0.1516254E+000  0.1250874E+03  0.7546771E-02  0.1234933E+00
         21   -1    0    0  503  502  0.00000000000E+00  0.00000000000E+00  0.58721001437E+02  0.58721001437E+02  0.00000000000E+00 0.  1.
         21   -1    0    0  502  503 -0.00000000000E+00 -0.00000000000E+00 -0.66615202993E+02  0.66615202993E+02  0.00000000000E+00 0.  1.
         25    2    1    2    0    0  0.00000000000E+00  0.00000000000E+00 -0.78942015558E+01  0.12533620443E+03  0.12508735237E+03 0.  0.
          4    1    3    3  501    0 -0.43540090102E+02 -0.37845554607E+02 -0.28104886746E+02  0.64189661228E+02  0.15500000000E+01 0. -1.
         -4    1    3    3    0  501  0.43540090102E+02  0.37845554607E+02  0.20210685190E+02  0.61146543201E+02  0.15500000000E+01 0. -1.
<mgrwt>
<rscale>  2 0.12508735E+03</rscale>
<asrwt>0</asrwt>
<pdfrwt beam="1">  1       21 0.90340002E-02 0.12508735E+03</pdfrwt>
<pdfrwt beam="2">  1       21 0.10248493E-01 0.12508735E+03</pdfrwt>
<totfact> 0.73833172E+06</totfact>
</mgrwt>
</event>
<event>
 5    0  0.1582669E+000  0.1250382E+03  0.7546771E-02  0.1235010E+00
         21   -1    0    0  503  502  0.00000000000E+00  0.00000000000E+00  0.19776841878E+02  0.19776841878E+02  0.00000000000E+00 0. -1.
         21   -1    0    0  502  503 -0.00000000000E+00 -0.00000000000E+00 -0.19763725483E+03  0.19763725483E+03  0.00000000000E+00 0. -1.
         25    2    1    2    0    0  0.00000000000E+00  0.00000000000E+00 -0.17786041295E+03  0.21741409671E+03  0.12503824596E+03 0.  0.
          4    1    3    3  501    0  0.54679052439E+02 -0.25163673630E+02 -0.11819285830E+03  0.13264600823E+03  0.15500000000E+01 0.  1.
         -4    1    3    3    0  501 -0.54679052439E+02  0.25163673630E+02 -0.59667554650E+02  0.84768088477E+02  0.15500000000E+01 0.  1.
<mgrwt>
<rscale>  2 0.12503825E+03</rscale>
<asrwt>0</asrwt>
<pdfrwt beam="1">  1       21 0.30425911E-02 0.12503825E+03</pdfrwt>
<pdfrwt beam="2">  1       21 0.30405731E-01 0.12503825E+03</pdfrwt>
<totfact> 0.63026874E+06</totfact>
</mgrwt>
</event>
<event>
 5    0  0.1775689E+000  0.1250422E+03  0.7546771E-02  0.1235003E+00
         21   -1    0    0  503  502  0.00000000000E+00  0.00000000000E+00  0.26306511870E+02  0.26306511870E+02  0.00000000000E+00 0. -1.
         21   -1    0    0  502  503 -0.00000000000E+00 -0.00000000000E+00 -0.14859023283E+03  0.14859023283E+03  0.00000000000E+00 0. -1.
         25    2    1    2    0    0  0.00000000000E+00  0.00000000000E+00 -0.12228372096E+03  0.17489674470E+03  0.12504224444E+03 0.  0.
          4    1    3    3  501    0 -0.62197895417E+02 -0.17120989326E+01 -0.69414175927E+02  0.93232182194E+02  0.15500000000E+01 0.  1.
         -4    1    3    3    0  501  0.62197895417E+02  0.17120989326E+01 -0.52869545031E+02  0.81664562504E+02  0.15500000000E+01 0.  1.
<mgrwt>
<rscale>  2 0.12504224E+03</rscale>
<asrwt>0</asrwt>
<pdfrwt beam="1">  1       21 0.40471556E-02 0.12504224E+03</pdfrwt>
<pdfrwt beam="2">  1       21 0.22860036E-01 0.12504224E+03</pdfrwt>
<totfact> 0.67669275E+06</totfact>
</mgrwt>
</event>
<event>
 5    0  0.1470926E+000  0.1249838E+03  0.7546771E-02  0.1235095E+00
         21   -1    0    0  503  502  0.00000000000E+00  0.00000000000E+00  0.25431028127E+03  0.25431028127E+03  0.00000000000E+00 0.  1.
         21   -1    0    0  502  503 -0.00000000000E+00 -0.00000000000E+00 -0.15356202779E+02  0.15356202779E+02  0.00000000000E+00 0.  1.
         25    2    1    2    0    0  0.00000000000E+00  0.00000000000E+00  0.23895407849E+03  0.26966648405E+03  0.12498384292E+03 0.  0.
          4    1    3    3  501    0 -0.24578549430E+02  0.53297259795E+02  0.16565871825E+03  0.17575527425E+03  0.15500000000E+01 0. -1.
         -4    1    3    3    0  501  0.24578549430E+02 -0.53297259795E+02  0.73295360243E+02  0.93911209804E+02  0.15500000000E+01 0. -1.
<mgrwt>
<rscale>  2 0.12498384E+03</rscale>
<asrwt>0</asrwt>
<pdfrwt beam="1">  1       21 0.39124656E-01 0.12498384E+03</pdfrwt>
<pdfrwt beam="2">  1       21 0.23624929E-02 0.12498384E+03</pdfrwt>
<totfact> 0.58098084E+06</totfact>
</mgrwt>
</event>
<event>
 4    0  0.1222151E+000  0.1251154E+03  0.7546771E-02  0.1234889E+00
         21   -1    0    0  503  502  0.00000000000E+00  0.00000000000E+00  0.16487174652E+04  0.16487174652E+04  0.00000000000E+00 0. -1.
         21   -1    0    0  502  503 -0.00000000000E+00 -0.00000000000E+00 -0.23736410416E+01  0.23736410416E+01  0.00000000000E+00 0. -1.
          4    1    1    2  501    0 -0.59830970355E+02 -0.17235525780E+02  0.74593817691E+03  0.74853388342E+03  0.15500000000E+01 0. -1.
         -4    1    1    2    0  501  0.59830970355E+02  0.17235525780E+02  0.90040564726E+03  0.90255722283E+03  0.15500000000E+01 0. -1.
<mgrwt>
<rscale>  2 0.12511536E+03</rscale>
<asrwt>0</asrwt>
<pdfrwt beam="1">  1       21 0.25364793E+00 0.12511536E+03</pdfrwt>
<pdfrwt beam="2">  1       21 0.36517686E-03 0.12511536E+03</pdfrwt>
<totfact> 0.11859551E+06</totfact>
</mgrwt>
</event>
<event>
 5    0  0.1222151E+000  0.1249985E+03  0.7546771E-02  0.1235072E+00
         21   -1    0    0  503  502  0.00000000000E+00  0.00000000000E+00  0.90039265905E+03  0.90039265905E+03  0.00000000000E+00 0.  1.
         21   -1    0    0  502  503 -0.00000000000E+00 -0.00000000000E+00 -0.43382785698E+01  0.43382785698E+01  0.00000000000E+00 0.  1.
         25    2    1    2    0    0  0.00000000000E+00  0.00000000000E+00  0.89605438048E+03  0.90473093762E+03  0.12499846683E+03 0.  0.
          4    1    3    3  501    0 -0.89180923386E+01  0.43314289678E+02  0.12856501543E+03  0.13596700245E+03  0.15500000000E+01 0.  1.
         -4    1    3    3    0  501  0.89180923386E+01 -0.43314289678E+02  0.76748936505E+03  0.76876393517E+03  0.15500000000E+01 0.  1.
<mgrwt>
<rscale>  2 0.12499847E+03</rscale>
<asrwt>0</asrwt>
<pdfrwt beam="1">  1       21 0.13852180E+00 0.12499847E+03</pdfrwt>
<pdfrwt beam="2">  1       21 0.66742819E-03 0.12499847E+03</pdfrwt>
<totfact> 0.26164561E+06</totfact>
</mgrwt>
</event>
<event>
 5    0  0.1481136E+000  0.1250070E+03  0.7546771E-02  0.1235058E+00
         21   -1    0    0  503  502  0.00000000000E+00  0.00000000000E+00  0.18627683497E+03  0.18627683497E+03  0.00000000000E+00 0. -1.
         21   -1    0    0  502  503 -0.00000000000E+00 -0.00000000000E+00 -0.20972470590E+02  0.20972470590E+02  0.00000000000E+00 0. -1.
         25    2    1    2    0    0  0.00000000000E+00  0.00000000000E+00  0.16530436438E+03  0.20724930556E+03  0.12500696690E+03 0.  0.
          4    1    3    3  501    0  0.60821302549E+02 -0.40917419821E+00  0.10638304916E+03  0.12255265773E+03  0.15500000000E+01 0. -1.
         -4    1    3    3    0  501 -0.60821302549E+02  0.40917419821E+00  0.58921315220E+02  0.84696647835E+02  0.15500000000E+01 0. -1.
<mgrwt>
<rscale>  2 0.12500697E+03</rscale>
<asrwt>0</asrwt>
<pdfrwt beam="1">  1       21 0.28657973E-01 0.12500697E+03</pdfrwt>
<pdfrwt beam="2">  1       21 0.32265341E-02 0.12500697E+03</pdfrwt>
<totfact> 0.64138801E+06</totfact>
</mgrwt>
</event>
<event>
 5    0  0.1633807E+000  0.1249985E+03  0.7546771E-02  0.1235072E+00
         21   -1    0    0  503  502  0.00000000000E+00  0.00000000000E+00  0.35284953106E+02  0.35284953106E+02  0.00000000000E+00 0. -1.
         21   -1    0    0  502  503 -0.00000000000E+00 -0.00000000000E+00 -0.11070314323E+03  0.11070314323E+03  0.00000000000E+00 0. -1.
         25    2    1    2    0    0  0.00000000000E+00  0.00000000000E+00 -0.75418190128E+02  0.14598809634E+03  0.12499848347E+03 0.  0.
          4    1    3    3  501    0  0.53750941924E+02 -0.21879158714E+02 -0.10672556765E+02  0.59026835521E+02  0.15500000000E+01 0. -1.
         -4    1    3    3    0  501 -0.53750941924E+02  0.21879158714E+02 -0.64745633362E+02  0.86961260819E+02  0.15500000000E+01 0. -1.
<mgrwt>
<rscale>  2 0.12499848E+03</rscale>
<asrwt>0</asrwt>
<pdfrwt beam="1">  1       21 0.54284544E-02 0.12499848E+03</pdfrwt>
<pdfrwt beam="2">  1       21 0.17031253E-01 0.12499848E+03</pdfrwt>
<totfact> 0.71269638E+06</totfact>
</mgrwt>
</event>
<event>
 5    0  0.1448883E+000  0.1250013E+03  0.7546771E-02  0.1235067E+00
         21   -1    0    0  503  502  0.00000000000E+00  0.00000000000E+00  0.16743628593E+03  0.16743628593E+03  0.00000000000E+00 0. -1.
         21   -1    0    0  502  503 -0.00000000000E+00 -0.00000000000E+00 -0.23330238143E+02  0.23330238143E+02  0.00000000000E+00 0. -1.
         25    2    1    2    0    0  0.00000000000E+00  0.00000000000E+00  0.14410604779E+03  0.19076652408E+03  0.12500125479E+03 0.  0.
          4    1    3    3  501    0 -0.27235668589E+02 -0.29906635311E+02 -0.62183206067E+00  0.40484288980E+02  0.15500000000E+01 0. -1.
         -4    1    3    3    0  501  0.27235668589E+02  0.29906635311E+02  0.14472787985E+03  0.15028223510E+03  0.15500000000E+01 0. -1.
<mgrwt>
<rscale>  2 0.12500125E+03</rscale>
<asrwt>0</asrwt>
<pdfrwt beam="1">  1       21 0.25759428E-01 0.12500125E+03</pdfrwt>
<pdfrwt beam="2">  1       21 0.35892675E-02 0.12500125E+03</pdfrwt>
<totfact> 0.65935277E+06</totfact>
</mgrwt>
</event>
<event>
 5    0  0.1468342E+000  0.1250014E+03  0.7546771E-02  0.1235067E+00
         21   -1    0    0  503  502  0.00000000000E+00  0.00000000000E+00  0.20347812746E+03  0.20347812746E+03  0.00000000000E+00 0.  1.
         21   -1    0    0  502  503 -0.00000000000E+00 -0.00000000000E+00 -0.19197833513E+02  0.19197833513E+02  0.00000000000E+00 0.  1.
         25    2    1    2    0    0  0.00000000000E+00  0.00000000000E+00  0.18428029395E+03  0.22267596097E+03  0.12500142742E+03 0.  0.
          4    1    3    3  501    0 -0.37907983851E+02  0.10551219141E+02  0.56814843535E+01  0.39787249584E+02  0.15500000000E+01 0.  1.
         -4    1    3    3    0  501  0.37907983851E+02 -0.10551219141E+02  0.17859880959E+03  0.18288871139E+03  0.15500000000E+01 0.  1.
<mgrwt>
<rscale>  2 0.12500143E+03</rscale>
<asrwt>0</asrwt>
<pdfrwt beam="1">  1       21 0.31304326E-01 0.12500143E+03</pdfrwt>
<pdfrwt beam="2">  1       21 0.29535130E-02 0.12500143E+03</pdfrwt>
<totfact> 0.62547804E+06</totfact>
</mgrwt>
</event>
<event>
 5    0  0.1367357E+000  0.1249876E+03  0.7546771E-02  0.1235089E+00
         21   -1    0    0  503  502  0.00000000000E+00  0.00000000000E+00  0.42038648312E+03  0.42038648312E+03  0.00000000000E+00 0. -1.
         21   -1    0    0  502  503 -0.00000000000E+00 -0.00000000000E+00 -0.92901965284E+01  0.92901965284E+01  0.00000000000E+00 0. -1.
         25    2    1    2    0    0  0.00000000000E+00  0.00000000000E+00  0.41109628659E+03  0.42967667965E+03  0.12498756812E+03 0.  0.
          4    1    3    3  501    0 -0.25961702818E+02 -0.40514764659E+02  0.68571197986E+02  0.83784651708E+02  0.15500000000E+01 0.  1.
         -4    1    3    3    0  501  0.25961702818E+02  0.40514764659E+02  0.34252508860E+03  0.34589202794E+03  0.15500000000E+01 0.  1.
<mgrwt>
<rscale>  2 0.12498757E+03</rscale>
<asrwt>0</asrwt>
<pdfrwt beam="1">  1       21 0.64674829E-01 0.12498757E+03</pdfrwt>
<pdfrwt beam="2">  1       21 0.14292613E-02 0.12498757E+03</pdfrwt>
<totfact> 0.46147594E+06</totfact>
</mgrwt>
</event>
<event>
 5    0  0.1315198E+000  0.1250041E+03  0.7546771E-02  0.1235063E+00
         21   -1    0    0  503  502  0.00000000000E+00  0.00000000000E+00  0.11277734305E+02  0.11277734305E+02  0.00000000000E+00 0.  1.
         21   -1    0    0  502  503 -0.00000000000E+00 -0.00000000000E+00 -0.34639131542E+03  0.34639131542E+03  0.00000000000E+00 0.  1.
         25    2    1    2    0    0  0.00000000000E+00  0.00000000000E+00 -0.33511358112E+03  0.35766904973E+03  0.12500414747E+03 0.  0.
          4    1    3    3  501    0  0.32930926156E+02 -0.68274692608E+01 -0.16883763531E+02  0.37663300506E+02  0.15500000000E+01 0. -1.
         -4    1    3    3    0  501 -0.32930926156E+02  0.68274692608E+01 -0.31822981759E+03  0.32000574922E+03  0.15500000000E+01 0. -1.
<mgrwt>
<rscale>  2 0.12500415E+03</rscale>
<asrwt>0</asrwt>
<pdfrwt beam="1">  1       21 0.17350363E-02 0.12500415E+03</pdfrwt>
<pdfrwt beam="2">  1       21 0.53290964E-01 0.12500415E+03</pdfrwt>
<totfact> 0.50971700E+06</totfact>
</mgrwt>
</event>
<event>
 5    0  0.1555032E+000  0.1250006E+03  0.7546771E-02  0.1235068E+00
         21   -1    0    0  503  502  0.00000000000E+00  0.00000000000E+00  0.23701268419E+03  0.23701268419E+03  0.00000000000E+00 0. -1.
         21   -1    0    0  502  503 -0.00000000000E+00 -0.00000000000E+00 -0.16481347115E+02  0.16481347115E+02  0.00000000000E+00 0. -1.
         25    2    1    2    0    0  0.00000000000E+00  0.00000000000E+00  0.22053133708E+03  0.25349403131E+03  0.12500061310E+03 0.  0.
          4    1    3    3  501    0  0.53604667659E+02  0.30809588038E+02  0.91992264386E+02  0.11084976462E+03  0.15500000000E+01 0.  1.
         -4    1    3    3    0  501 -0.53604667659E+02 -0.30809588038E+02  0.12853907269E+03  0.14264426669E+03  0.15500000000E+01 0.  1.
<mgrwt>
<rscale>  2 0.12500061E+03</rscale>
<asrwt>0</asrwt>
<pdfrwt beam="1">  1       21 0.36463487E-01 0.12500061E+03</pdfrwt>
<pdfrwt beam="2">  1       21 0.25355920E-02 0.12500061E+03</pdfrwt>
<totfact> 0.59549863E+06</totfact>
</mgrwt>
</event>
<event>
 5    0  0.1654910E+000  0.1249805E+03  0.7546771E-02  0.1235100E+00
         21   -1    0    0  503  502  0.00000000000E+00  0.00000000000E+00  0.12424128922E+03  0.12424128922E+03  0.00000000000E+00 0.  1.
         21   -1    0    0  502  503 -0.00000000000E+00 -0.00000000000E+00 -0.31431044969E+02  0.31431044969E+02  0.00000000000E+00 0.  1.
         25    2    1    2    0    0  0.00000000000E+00  0.00000000000E+00  0.92810244256E+02  0.15567233419E+03  0.12498053526E+03 0.  0.
          4    1    3    3  501    0  0.35209064506E+02  0.51522774202E+02  0.42804455444E+02  0.75689486659E+02  0.15500000000E+01 0. -1.
         -4    1    3    3    0  501 -0.35209064506E+02 -0.51522774202E+02  0.50005788812E+02  0.79982847534E+02  0.15500000000E+01 0. -1.
<mgrwt>
<rscale>  2 0.12498054E+03</rscale>
<asrwt>0</asrwt>
<pdfrwt beam="1">  1       21 0.19114044E-01 0.12498054E+03</pdfrwt>
<pdfrwt beam="2">  1       21 0.48355455E-02 0.12498054E+03</pdfrwt>
<totfact> 0.70086886E+06</totfact>
</mgrwt>
</event>
<event>
 5    0  0.1513630E+000  0.1249915E+03  0.7546771E-02  0.1235083E+00
         21   -1    0    0  503  502  0.00000000000E+00  0.00000000000E+00  0.86972155394E+02  0.86972155394E+02  0.00000000000E+00 0.  1.
         21   -1    0    0  502  503 -0.00000000000E+00 -0.00000000000E+00 -0.44907695665E+02  0.44907695665E+02  0.00000000000E+00 0.  1.
         25    2    1    2    0    0  0.00000000000E+00  0.00000000000E+00  0.42064459729E+02  0.13187985106E+03  0.12499150508E+03 0.  0.
          4    1    3    3  501    0  0.20052836905E+02 -0.58739772455E+02  0.13509103251E+02  0.63540345503E+02  0.15500000000E+01 0.  1.
         -4    1    3    3    0  501 -0.20052836905E+02  0.58739772455E+02  0.28555356479E+02  0.68339505556E+02  0.15500000000E+01 0.  1.
<mgrwt>
<rscale>  2 0.12499151E+03</rscale>
<asrwt>0</asrwt>
<pdfrwt beam="1">  1       21 0.13380332E-01 0.12499151E+03</pdfrwt>
<pdfrwt beam="2">  1       21 0.69088763E-02 0.12499151E+03</pdfrwt>
<totfact> 0.73128195E+06</totfact>
</mgrwt>
</event>
<event>
 5    0  0.1503323E+000  0.1249911E+03  0.7546771E-02  0.1235083E+00
         21   -1    0    0  503  502  0.00000000000E+00  0.00000000000E+00  0.30534556752E+02  0.30534556752E+02  0.00000000000E+00 0. -1.
         21   -1    0    0  502  503 -0.00000000000E+00 -0.00000000000E+00 -0.12791066360E+03  0.12791066360E+03  0.00000000000E+00 0. -1.
         25    2    1    2    0    0  0.00000000000E+00  0.00000000000E+00 -0.97376106844E+02  0.15844522035E+03  0.12499112635E+03 0.  0.
          4    1    3    3  501    0  0.48706358323E+01  0.38177100925E+02  0.13698945431E+02  0.40881263854E+02  0.15500000000E+01 0. -1.
         -4    1    3    3    0  501 -0.48706358323E+01 -0.38177100925E+02 -0.11107505227E+03  0.11756395649E+03  0.15500000000E+01 0. -1.
<mgrwt>
<rscale>  2 0.12499113E+03</rscale>
<asrwt>0</asrwt>
<pdfrwt beam="1">  1       21 0.46976242E-02 0.12499113E+03</pdfrwt>
<pdfrwt beam="2">  1       21 0.19678563E-01 0.12499113E+03</pdfrwt>
<totfact> 0.69725706E+06</totfact>
</mgrwt>
</event>
<event>
 5    0  0.1467384E+000  0.1249963E+03  0.7546771E-02  0.1235075E+00
         21   -1    0    0  503  502  0.00000000000E+00  0.00000000000E+00  0.13641035480E+02  0.13641035480E+02  0.00000000000E+00 0. -1.
         21   -1    0    0  502  503 -0.00000000000E+00 -0.00000000000E+00 -0.28634346229E+03  0.28634346229E+03  0.00000000000E+00 0. -1.
         25    2    1    2    0    0  0.00000000000E+00  0.00000000000E+00 -0.27270242681E+03  0.29998449777E+03  0.12499634120E+03 0.  0.
          4    1    3    3  501    0 -0.62405133423E+02  0.16483198311E+01 -0.14247046105E+03  0.15555498194E+03  0.15500000000E+01 0. -1.
         -4    1    3    3    0  501  0.62405133423E+02 -0.16483198311E+01 -0.13023196576E+03  0.14442951583E+03  0.15500000000E+01 0. -1.
<mgrwt>
<rscale>  2 0.12499634E+03</rscale>
<asrwt>0</asrwt>
<pdfrwt beam="1">  1       21 0.20986210E-02 0.12499634E+03</pdfrwt>
<pdfrwt beam="2">  1       21 0.44052838E-01 0.12499634E+03</pdfrwt>
<totfact> 0.55462561E+06</totfact>
</mgrwt>
</event>
<event>
 5    0  0.1453193E+000  0.1250087E+03  0.7546771E-02  0.1235056E+00
         21   -1    0    0  503  502  0.00000000000E+00  0.00000000000E+00  0.21262056905E+02  0.21262056905E+02  0.00000000000E+00 0.  1.
         21   -1    0    0  502  503 -0.00000000000E+00 -0.00000000000E+00 -0.18374500890E+03  0.18374500890E+03  0.00000000000E+00 0.  1.
         25    2    1    2    0    0  0.00000000000E+00  0.00000000000E+00 -0.16248295200E+03  0.20500706581E+03  0.12500874906E+03 0.  0.
          4    1    3    3  501    0 -0.44282265747E+02  0.15415609309E+02 -0.13509017835E+02  0.48820652729E+02  0.15500000000E+01 0.  1.
         -4    1    3    3    0  501  0.44282265747E+02 -0.15415609309E+02 -0.14897393416E+03  0.15618641308E+03  0.15500000000E+01 0.  1.
<mgrwt>
<rscale>  2 0.12500875E+03</rscale>
<asrwt>0</asrwt>
<pdfrwt beam="1">  1       21 0.32710856E-02 0.12500875E+03</pdfrwt>
<pdfrwt beam="2">  1       21 0.28268464E-01 0.12500875E+03</pdfrwt>
<totfact> 0.64374454E+06</totfact>
</mgrwt>
</event>
<event>
 5    0  0.1325702E+000  0.1250037E+03  0.7546771E-02  0.1235063E+00
         21   -1    0    0  503  502  0.00000000000E+00  0.00000000000E+00  0.78552375691E+01  0.78552375691E+01  0.00000000000E+00 0.  1.
         21   -1    0    0  502  503 -0.00000000000E+00 -0.00000000000E+00 -0.49730916327E+03  0.49730916327E+03  0.00000000000E+00 0.  1.
         25    2    1    2    0    0  0.00000000000E+00  0.00000000000E+00 -0.48945392570E+03  0.50516440084E+03  0.12500370591E+03 0.  0.
          4    1    3    3  501    0  0.36389278523E+02 -0.41736902957E+02 -0.12774636427E+03  0.13923966656E+03  0.15500000000E+01 0.  1.
         -4    1    3    3    0  501 -0.36389278523E+02  0.41736902957E+02 -0.36170756143E+03  0.36592473428E+03  0.15500000000E+01 0.  1.
<mgrwt>
<rscale>  2 0.12500371E+03</rscale>
<asrwt>0</asrwt>
<pdfrwt beam="1">  1       21 0.12084977E-02 0.12500371E+03</pdfrwt>
<pdfrwt beam="2">  1       21 0.76509125E-01 0.12500371E+03</pdfrwt>
<totfact> 0.41761510E+06</totfact>
</mgrwt>
</event>
