<event>
 3    0  0.1368989E+001  0.1250000E+03  0.7546771E-02  0.1235069E+00
         21   -1    0    0  502  501  0.00000000000E+00  0.00000000000E+00  0.79060703729E+03  0.79060703729E+03  0.00000000000E+00 0. -1.
         21   -1    0    0  501  502 -0.00000000000E+00 -0.00000000000E+00 -0.49408237162E+01  0.49408237162E+01  0.00000000000E+00 0. -1.
         25    1    1    2    0    0  0.00000000000E+00  0.00000000000E+00  0.78566621357E+03  0.79554786101E+03  0.12500000000E+03 0.  0.
<mgrwt>
<rscale>  2 0.12500000E+03</rscale>
<asrwt>0</asrwt>
<pdfrwt beam="1">  1       21 0.12163175E+00 0.12500000E+03</pdfrwt>
<pdfrwt beam="2">  1       21 0.76012735E-03 0.12500000E+03</pdfrwt>
<totfact> 0.29510881E+06</totfact>
</mgrwt>
</event>
<event>
 3    0  0.1368989E+001  0.1250000E+03  0.7546771E-02  0.1235069E+00
         21   -1    0    0  502  501  0.00000000000E+00  0.00000000000E+00  0.27581510563E+01  0.27581510563E+01  0.00000000000E+00 0. -1.
         21   -1    0    0  501  502 -0.00000000000E+00 -0.00000000000E+00 -0.14162567315E+04  0.14162567315E+04  0.00000000000E+00 0. -1.
         25    1    1    2    0    0  0.00000000000E+00  0.00000000000E+00 -0.14134985805E+04  0.14190148826E+04  0.12500000000E+03 0.  0.
<mgrwt>
<rscale>  2 0.12500000E+03</rscale>
<asrwt>0</asrwt>
<pdfrwt beam="1">  1       21 0.42433209E-03 0.12500000E+03</pdfrwt>
<pdfrwt beam="2">  1       21 0.21788506E+00 0.12500000E+03</pdfrwt>
<totfact> 0.15238248E+06</totfact>
</mgrwt>
</event>
<event>
 3    0  0.1494948E+001  0.1250000E+03  0.7546771E-02  0.1235069E+00
         21   -1    0    0  502  501  0.00000000000E+00  0.00000000000E+00  0.45158271858E+03  0.45158271858E+03  0.00000000000E+00 0. -1.
         21   -1    0    0  501  502 -0.00000000000E+00 -0.00000000000E+00 -0.86501317240E+01  0.86501317240E+01  0.00000000000E+00 0. -1.
         25    1    1    2    0    0  0.00000000000E+00  0.00000000000E+00  0.44293258685E+03  0.46023285030E+03  0.12500000000E+03 0.  0.
<mgrwt>
<rscale>  2 0.12500000E+03</rscale>
<asrwt>0</asrwt>
<pdfrwt beam="1">  1       21 0.69474246E-01 0.12500000E+03</pdfrwt>
<pdfrwt beam="2">  1       21 0.13307898E-02 0.12500000E+03</pdfrwt>
<totfact> 0.44286229E+06</totfact>
</mgrwt>
</event>
<event>
 3    0  0.1368989E+001  0.1250000E+03  0.7546771E-02  0.1235069E+00
         21   -1    0    0  502  501  0.00000000000E+00  0.00000000000E+00  0.83658988811E+03  0.83658988811E+03  0.00000000000E+00 0.  1.
         21   -1    0    0  501  502 -0.00000000000E+00 -0.00000000000E+00 -0.46692531855E+01  0.46692531855E+01  0.00000000000E+00 0.  1.
         25    1    1    2    0    0  0.00000000000E+00  0.00000000000E+00  0.83192063493E+03  0.84125914130E+03  0.12500000000E+03 0.  0.
<mgrwt>
<rscale>  2 0.12500000E+03</rscale>
<asrwt>0</asrwt>
<pdfrwt beam="1">  1       21 0.12870602E+00 0.12500000E+03</pdfrwt>
<pdfrwt beam="2">  1       21 0.71834731E-03 0.12500000E+03</pdfrwt>
<totfact> 0.28040658E+06</totfact>
</mgrwt>
</event>
<event>
 3    0  0.1670338E+001  0.1250000E+03  0.7546771E-02  0.1235069E+00
         21   -1    0    0  502  501  0.00000000000E+00  0.00000000000E+00  0.16604387849E+03  0.16604387849E+03  0.00000000000E+00 0. -1.
         21   -1    0    0  501  502 -0.00000000000E+00 -0.00000000000E+00 -0.23525408077E+02  0.23525408077E+02  0.00000000000E+00 0. -1.
         25    1    1    2    0    0  0.00000000000E+00  0.00000000000E+00  0.14251847041E+03  0.18956928656E+03  0.12500000000E+03 0.  0.
<mgrwt>
<rscale>  2 0.12500000E+03</rscale>
<asrwt>0</asrwt>
<pdfrwt beam="1">  1       21 0.25545211E-01 0.12500000E+03</pdfrwt>
<pdfrwt beam="2">  1       21 0.36192937E-02 0.12500000E+03</pdfrwt>
<totfact> 0.66070366E+06</totfact>
</mgrwt>
</event>
<event>
 3    0  0.1726023E+001  0.1250000E+03  0.7546771E-02  0.1235069E+00
         21   -1    0    0  502  501  0.00000000000E+00  0.00000000000E+00  0.92909572176E+02  0.92909572176E+02  0.00000000000E+00 0.  1.
         21   -1    0    0  501  502 -0.00000000000E+00 -0.00000000000E+00 -0.42043568908E+02  0.42043568908E+02  0.00000000000E+00 0.  1.
         25    1    1    2    0    0  0.00000000000E+00  0.00000000000E+00  0.50866003268E+02  0.13495314108E+03  0.12500000000E+03 0.  0.
<mgrwt>
<rscale>  2 0.12500000E+03</rscale>
<asrwt>0</asrwt>
<pdfrwt beam="1">  1       21 0.14293780E-01 0.12500000E+03</pdfrwt>
<pdfrwt beam="2">  1       21 0.64682414E-02 0.12500000E+03</pdfrwt>
<totfact> 0.72702677E+06</totfact>
</mgrwt>
</event>
<event>
 3    0  0.1445269E+001  0.1250000E+03  0.7546771E-02  0.1235069E+00
         21   -1    0    0  502  501  0.00000000000E+00  0.00000000000E+00  0.69181941935E+01  0.69181941935E+01  0.00000000000E+00 0. -1.
         21   -1    0    0  501  502 -0.00000000000E+00 -0.00000000000E+00 -0.56463433820E+03  0.56463433820E+03  0.00000000000E+00 0. -1.
         25    1    1    2    0    0  0.00000000000E+00  0.00000000000E+00 -0.55771614401E+03  0.57155253239E+03  0.12500000000E+03 0.  0.
<mgrwt>
<rscale>  2 0.12500000E+03</rscale>
<asrwt>0</asrwt>
<pdfrwt beam="1">  1       21 0.10643378E-02 0.12500000E+03</pdfrwt>
<pdfrwt beam="2">  1       21 0.86866806E-01 0.12500000E+03</pdfrwt>
<totfact> 0.38411571E+06</totfact>
</mgrwt>
</event>
<event>
 3    0  0.1705420E+001  0.1250000E+03  0.7546771E-02  0.1235069E+00
         21   -1    0    0  502  501  0.00000000000E+00  0.00000000000E+00  0.41142377244E+02  0.41142377244E+02  0.00000000000E+00 0. -1.
         21   -1    0    0  501  502 -0.00000000000E+00 -0.00000000000E+00 -0.94944683843E+02  0.94944683843E+02  0.00000000000E+00 0. -1.
         25    1    1    2    0    0  0.00000000000E+00  0.00000000000E+00 -0.53802306598E+02  0.13608706109E+03  0.12500000000E+03 0.  0.
<mgrwt>
<rscale>  2 0.12500000E+03</rscale>
<asrwt>0</asrwt>
<pdfrwt beam="1">  1       21 0.63295965E-02 0.12500000E+03</pdfrwt>
<pdfrwt beam="2">  1       21 0.14606874E-01 0.12500000E+03</pdfrwt>
<totfact> 0.72552856E+06</totfact>
</mgrwt>
</event>
<event>
 3    0  0.1368989E+001  0.1250000E+03  0.7546771E-02  0.1235069E+00
         21   -1    0    0  502  501  0.00000000000E+00  0.00000000000E+00  0.26435431753E+01  0.26435431753E+01  0.00000000000E+00 0.  1.
         21   -1    0    0  501  502 -0.00000000000E+00 -0.00000000000E+00 -0.14776569705E+04  0.14776569705E+04  0.00000000000E+00 0.  1.
         25    1    1    2    0    0  0.00000000000E+00  0.00000000000E+00 -0.14750134274E+04  0.14803005137E+04  0.12500000000E+03 0.  0.
<mgrwt>
<rscale>  2 0.12500000E+03</rscale>
<asrwt>0</asrwt>
<pdfrwt beam="1">  1       21 0.40669865E-03 0.12500000E+03</pdfrwt>
<pdfrwt beam="2">  1       21 0.22733201E+00 0.12500000E+03</pdfrwt>
<totfact> 0.14287716E+06</totfact>
</mgrwt>
</event>
<event>
 3    0  0.1368989E+001  0.1250000E+03  0.7546771E-02  0.1235069E+00
         21   -1    0    0  502  501  0.00000000000E+00  0.00000000000E+00  0.54808772502E+01  0.54808772502E+01  0.00000000000E+00 0. -1.
         21   -1    0    0  501  502 -0.00000000000E+00 -0.00000000000E+00 -0.71270525167E+03  0.71270525167E+03  0.00000000000E+00 0. -1.
         25    1    1    2    0    0  0.00000000000E+00  0.00000000000E+00 -0.70722437442E+03  0.71818612892E+03  0.12500000000E+03 0.  0.
<mgrwt>
<rscale>  2 0.12500000E+03</rscale>
<asrwt>0</asrwt>
<pdfrwt beam="1">  1       21 0.84321245E-03 0.12500000E+03</pdfrwt>
<pdfrwt beam="2">  1       21 0.10964689E+00 0.12500000E+03</pdfrwt>
<totfact> 0.32220711E+06</totfact>
</mgrwt>
</event>
<event>
 3    0  0.1607065E+001  0.1250000E+03  0.7546771E-02  0.1235069E+00
         21   -1    0    0  502  501  0.00000000000E+00  0.00000000000E+00  0.23251826917E+03  0.23251826917E+03  0.00000000000E+00 0. -1.
         21   -1    0    0  501  502 -0.00000000000E+00 -0.00000000000E+00 -0.16799755193E+02  0.16799755193E+02  0.00000000000E+00 0. -1.
         25    1    1    2    0    0  0.00000000000E+00  0.00000000000E+00  0.21571851398E+03  0.24931802436E+03  0.12500000000E+03 0.  0.
<mgrwt>
<rscale>  2 0.12500000E+03</rscale>
<asrwt>0</asrwt>
<pdfrwt beam="1">  1       21 0.35772039E-01 0.12500000E+03</pdfrwt>
<pdfrwt beam="2">  1       21 0.25845779E-02 0.12500000E+03</pdfrwt>
<totfact> 0.59942457E+06</totfact>
</mgrwt>
</event>
<event>
 3    0  0.1722946E+001  0.1250000E+03  0.7546771E-02  0.1235069E+00
         21   -1    0    0  502  501  0.00000000000E+00  0.00000000000E+00  0.10495127875E+03  0.10495127875E+03  0.00000000000E+00 0.  1.
         21   -1    0    0  501  502 -0.00000000000E+00 -0.00000000000E+00 -0.37219651313E+02  0.37219651313E+02  0.00000000000E+00 0.  1.
         25    1    1    2    0    0  0.00000000000E+00  0.00000000000E+00  0.67731627437E+02  0.14217093006E+03  0.12500000000E+03 0.  0.
<mgrwt>
<rscale>  2 0.12500000E+03</rscale>
<asrwt>0</asrwt>
<pdfrwt beam="1">  1       21 0.16146351E-01 0.12500000E+03</pdfrwt>
<pdfrwt beam="2">  1       21 0.57261002E-02 0.12500000E+03</pdfrwt>
<totfact> 0.71757150E+06</totfact>
</mgrwt>
</event>
<event>
 3    0  0.1672572E+001  0.1250000E+03  0.7546771E-02  0.1235069E+00
         21   -1    0    0  502  501  0.00000000000E+00  0.00000000000E+00  0.20734166983E+02  0.20734166983E+02  0.00000000000E+00 0.  1.
         21   -1    0    0  501  502 -0.00000000000E+00 -0.00000000000E+00 -0.18839676574E+03  0.18839676574E+03  0.00000000000E+00 0.  1.
         25    1    1    2    0    0  0.00000000000E+00  0.00000000000E+00 -0.16766259876E+03  0.20913093273E+03  0.12500000000E+03 0.  0.
<mgrwt>
<rscale>  2 0.12500000E+03</rscale>
<asrwt>0</asrwt>
<pdfrwt beam="1">  1       21 0.31898717E-02 0.12500000E+03</pdfrwt>
<pdfrwt beam="2">  1       21 0.28984119E-01 0.12500000E+03</pdfrwt>
<totfact> 0.63951087E+06</totfact>
</mgrwt>
</event>
<event>
 3    0  0.1682995E+001  0.1250000E+03  0.7546771E-02  0.1235069E+00
         21   -1    0    0  502  501  0.00000000000E+00  0.00000000000E+00  0.12671657000E+03  0.12671657000E+03  0.00000000000E+00 0. -1.
         21   -1    0    0  501  502 -0.00000000000E+00 -0.00000000000E+00 -0.30826670891E+02  0.30826670891E+02  0.00000000000E+00 0. -1.
         25    1    1    2    0    0  0.00000000000E+00  0.00000000000E+00  0.95889899113E+02  0.15754324090E+03  0.12500000000E+03 0.  0.
<mgrwt>
<rscale>  2 0.12500000E+03</rscale>
<asrwt>0</asrwt>
<pdfrwt beam="1">  1       21 0.19494857E-01 0.12500000E+03</pdfrwt>
<pdfrwt beam="2">  1       21 0.47425648E-02 0.12500000E+03</pdfrwt>
<totfact> 0.69820938E+06</totfact>
</mgrwt>
</event>
<event>
 3    0  0.1693091E+001  0.1250000E+03  0.7546771E-02  0.1235069E+00
         21   -1    0    0  502  501  0.00000000000E+00  0.00000000000E+00  0.10462633370E+03  0.10462633370E+03  0.00000000000E+00 0. -1.
         21   -1    0    0  501  502 -0.00000000000E+00 -0.00000000000E+00 -0.37335246891E+02  0.37335246891E+02  0.00000000000E+00 0. -1.
         25    1    1    2    0    0  0.00000000000E+00  0.00000000000E+00  0.67291086811E+02  0.14196158059E+03  0.12500000000E+03 0.  0.
<mgrwt>
<rscale>  2 0.12500000E+03</rscale>
<asrwt>0</asrwt>
<pdfrwt beam="1">  1       21 0.16096359E-01 0.12500000E+03</pdfrwt>
<pdfrwt beam="2">  1       21 0.57438842E-02 0.12500000E+03</pdfrwt>
<totfact> 0.71784252E+06</totfact>
</mgrwt>
</event>
<event>
 3    0  0.1664701E+001  0.1250000E+03  0.7546771E-02  0.1235069E+00
         21   -1    0    0  502  501  0.00000000000E+00  0.00000000000E+00  0.16837977603E+03  0.16837977603E+03  0.00000000000E+00 0. -1.
         21   -1    0    0  501  502 -0.00000000000E+00 -0.00000000000E+00 -0.23199044992E+02  0.23199044992E+02  0.00000000000E+00 0. -1.
         25    1    1    2    0    0  0.00000000000E+00  0.00000000000E+00  0.14518073104E+03  0.19157882103E+03  0.12500000000E+03 0.  0.
<mgrwt>
<rscale>  2 0.12500000E+03</rscale>
<asrwt>0</asrwt>
<pdfrwt beam="1">  1       21 0.25904580E-01 0.12500000E+03</pdfrwt>
<pdfrwt beam="2">  1       21 0.35690840E-02 0.12500000E+03</pdfrwt>
<totfact> 0.65847422E+06</totfact>
</mgrwt>
</event>
<event>
 3    0  0.1637860E+001  0.1250000E+03  0.7546771E-02  0.1235069E+00
         21   -1    0    0  502  501  0.00000000000E+00  0.00000000000E+00  0.16994429390E+02  0.16994429390E+02  0.00000000000E+00 0.  1.
         21   -1    0    0  501  502 -0.00000000000E+00 -0.00000000000E+00 -0.22985473124E+03  0.22985473124E+03  0.00000000000E+00 0.  1.
         25    1    1    2    0    0  0.00000000000E+00  0.00000000000E+00 -0.21286030185E+03  0.24684916063E+03  0.12500000000E+03 0.  0.
<mgrwt>
<rscale>  2 0.12500000E+03</rscale>
<asrwt>0</asrwt>
<pdfrwt beam="1">  1       21 0.26145275E-02 0.12500000E+03</pdfrwt>
<pdfrwt beam="2">  1       21 0.35362267E-01 0.12500000E+03</pdfrwt>
<totfact> 0.60176110E+06</totfact>
</mgrwt>
</event>
<event>
 3    0  0.1592105E+001  0.1250000E+03  0.7546771E-02  0.1235069E+00
         21   -1    0    0  502  501  0.00000000000E+00  0.00000000000E+00  0.13561514771E+02  0.13561514771E+02  0.00000000000E+00 0. -1.
         21   -1    0    0  501  502 -0.00000000000E+00 -0.00000000000E+00 -0.28803935741E+03  0.28803935741E+03  0.00000000000E+00 0. -1.
         25    1    1    2    0    0  0.00000000000E+00  0.00000000000E+00 -0.27447784264E+03  0.30160087218E+03  0.12500000000E+03 0.  0.
<mgrwt>
<rscale>  2 0.12500000E+03</rscale>
<asrwt>0</asrwt>
<pdfrwt beam="1">  1       21 0.20863869E-02 0.12500000E+03</pdfrwt>
<pdfrwt beam="2">  1       21 0.44313746E-01 0.12500000E+03</pdfrwt>
<totfact> 0.55323397E+06</totfact>
</mgrwt>
</event>
<event>
 3    0  0.1577588E+001  0.1250000E+03  0.7546771E-02  0.1235069E+00
         21   -1    0    0  502  501  0.00000000000E+00  0.00000000000E+00  0.33370242395E+03  0.33370242395E+03  0.00000000000E+00 0.  1.
         21   -1    0    0  501  502 -0.00000000000E+00 -0.00000000000E+00 -0.11705788510E+02  0.11705788510E+02  0.00000000000E+00 0.  1.
         25    1    1    2    0    0  0.00000000000E+00  0.00000000000E+00  0.32199663544E+03  0.34540821246E+03  0.12500000000E+03 0.  0.
<mgrwt>
<rscale>  2 0.12500000E+03</rscale>
<asrwt>0</asrwt>
<pdfrwt beam="1">  1       21 0.51338827E-01 0.12500000E+03</pdfrwt>
<pdfrwt beam="2">  1       21 0.18008908E-02 0.12500000E+03</pdfrwt>
<totfact> 0.51879349E+06</totfact>
</mgrwt>
</event>
<event>
 3    0  0.1551511E+001  0.1250000E+03  0.7546771E-02  0.1235069E+00
         21   -1    0    0  502  501  0.00000000000E+00  0.00000000000E+00  0.32475638743E+03  0.32475638743E+03  0.00000000000E+00 0. -1.
         21   -1    0    0  501  502 -0.00000000000E+00 -0.00000000000E+00 -0.12028246868E+02  0.12028246868E+02  0.00000000000E+00 0. -1.
         25    1    1    2    0    0  0.00000000000E+00  0.00000000000E+00  0.31272814056E+03  0.33678463429E+03  0.12500000000E+03 0.  0.
<mgrwt>
<rscale>  2 0.12500000E+03</rscale>
<asrwt>0</asrwt>
<pdfrwt beam="1">  1       21 0.49962515E-01 0.12500000E+03</pdfrwt>
<pdfrwt beam="2">  1       21 0.18504998E-02 0.12500000E+03</pdfrwt>
<totfact> 0.52529487E+06</totfact>
</mgrwt>
</event>
<event>
 3    0  0.1368989E+001  0.1250000E+03  0.7546771E-02  0.1235069E+00
         21   -1    0    0  502  501  0.00000000000E+00  0.00000000000E+00  0.24409787049E+01  0.24409787049E+01  0.00000000000E+00 0.  1.
         21   -1    0    0  501  502 -0.00000000000E+00 -0.00000000000E+00 -0.16002802450E+04  0.16002802450E+04  0.00000000000E+00 0.  1.
         25    1    1    2    0    0  0.00000000000E+00  0.00000000000E+00 -0.15978392663E+04  0.16027212237E+04  0.12500000000E+03 0.  0.
<mgrwt>
<rscale>  2 0.12500000E+03</rscale>
<asrwt>0</asrwt>
<pdfrwt beam="1">  1       21 0.37553362E-03 0.12500000E+03</pdfrwt>
<pdfrwt beam="2">  1       21 0.24619799E+00 0.12500000E+03</pdfrwt>
<totfact> 0.12536745E+06</totfact>
</mgrwt>
</event>
<event>
 3    0  0.1711874E+001  0.1250000E+03  0.7546771E-02  0.1235069E+00
         21   -1    0    0  502  501  0.00000000000E+00  0.00000000000E+00  0.75552476379E+02  0.75552476379E+02  0.00000000000E+00 0. -1.
         21   -1    0    0  501  502 -0.00000000000E+00 -0.00000000000E+00 -0.51702474720E+02  0.51702474720E+02  0.00000000000E+00 0. -1.
         25    1    1    2    0    0  0.00000000000E+00  0.00000000000E+00  0.23850001659E+02  0.12725495110E+03  0.12500000000E+03 0.  0.
<mgrwt>
<rscale>  2 0.12500000E+03</rscale>
<asrwt>0</asrwt>
<pdfrwt beam="1">  1       21 0.11623458E-01 0.12500000E+03</pdfrwt>
<pdfrwt beam="2">  1       21 0.79542269E-02 0.12500000E+03</pdfrwt>
<totfact> 0.73734469E+06</totfact>
</mgrwt>
</event>
<event>
 3    0  0.1565150E+001  0.1250000E+03  0.7546771E-02  0.1235069E+00
         21   -1    0    0  502  501  0.00000000000E+00  0.00000000000E+00  0.12276734336E+02  0.12276734336E+02  0.00000000000E+00 0. -1.
         21   -1    0    0  501  502 -0.00000000000E+00 -0.00000000000E+00 -0.31818314977E+03  0.31818314977E+03  0.00000000000E+00 0. -1.
         25    1    1    2    0    0  0.00000000000E+00  0.00000000000E+00 -0.30590641544E+03  0.33045988411E+03  0.12500000000E+03 0.  0.
<mgrwt>
<rscale>  2 0.12500000E+03</rscale>
<asrwt>0</asrwt>
<pdfrwt beam="1">  1       21 0.18887286E-02 0.12500000E+03</pdfrwt>
<pdfrwt beam="2">  1       21 0.48951247E-01 0.12500000E+03</pdfrwt>
<totfact> 0.53014725E+06</totfact>
</mgrwt>
</event>
<event>
 3    0  0.1672641E+001  0.1250000E+03  0.7546771E-02  0.1235069E+00
         21   -1    0    0  502  501  0.00000000000E+00  0.00000000000E+00  0.23642347693E+02  0.23642347693E+02  0.00000000000E+00 0. -1.
         21   -1    0    0  501  502 -0.00000000000E+00 -0.00000000000E+00 -0.16522259340E+03  0.16522259340E+03  0.00000000000E+00 0. -1.
         25    1    1    2    0    0  0.00000000000E+00  0.00000000000E+00 -0.14158024571E+03  0.18886494110E+03  0.12500000000E+03 0.  0.
<mgrwt>
<rscale>  2 0.12500000E+03</rscale>
<asrwt>0</asrwt>
<pdfrwt beam="1">  1       21 0.36372843E-02 0.12500000E+03</pdfrwt>
<pdfrwt beam="2">  1       21 0.25418860E-01 0.12500000E+03</pdfrwt>
<totfact> 0.66148838E+06</totfact>
</mgrwt>
</event>
<event>
 3    0  0.1685549E+001  0.1250000E+03  0.7546771E-02  0.1235069E+00
         21   -1    0    0  502  501  0.00000000000E+00  0.00000000000E+00  0.29761581425E+02  0.29761581425E+02  0.00000000000E+00 0. -1.
         21   -1    0    0  501  502 -0.00000000000E+00 -0.00000000000E+00 -0.13125142593E+03  0.13125142593E+03  0.00000000000E+00 0. -1.
         25    1    1    2    0    0  0.00000000000E+00  0.00000000000E+00 -0.10148984450E+03  0.16101300736E+03  0.12500000000E+03 0.  0.
<mgrwt>
<rscale>  2 0.12500000E+03</rscale>
<asrwt>0</asrwt>
<pdfrwt beam="1">  1       21 0.45787049E-02 0.12500000E+03</pdfrwt>
<pdfrwt beam="2">  1       21 0.20192527E-01 0.12500000E+03</pdfrwt>
<totfact> 0.69395929E+06</totfact>
</mgrwt>
</event>
<event>
 3    0  0.1728131E+001  0.1250000E+03  0.7546771E-02  0.1235069E+00
         21   -1    0    0  502  501  0.00000000000E+00  0.00000000000E+00  0.87548604675E+02  0.87548604675E+02  0.00000000000E+00 0.  1.
         21   -1    0    0  501  502 -0.00000000000E+00 -0.00000000000E+00 -0.44618072607E+02  0.44618072607E+02  0.00000000000E+00 0.  1.
         25    1    1    2    0    0  0.00000000000E+00  0.00000000000E+00  0.42930532068E+02  0.13216667728E+03  0.12500000000E+03 0.  0.
<mgrwt>
<rscale>  2 0.12500000E+03</rscale>
<asrwt>0</asrwt>
<pdfrwt beam="1">  1       21 0.13469016E-01 0.12500000E+03</pdfrwt>
<pdfrwt beam="2">  1       21 0.68643189E-02 0.12500000E+03</pdfrwt>
<totfact> 0.73073880E+06</totfact>
</mgrwt>
</event>
<event>
 3    0  0.1697197E+001  0.1250000E+03  0.7546771E-02  0.1235069E+00
         21   -1    0    0  502  501  0.00000000000E+00  0.00000000000E+00  0.38163928839E+02  0.38163928839E+02  0.00000000000E+00 0. -1.
         21   -1    0    0  501  502 -0.00000000000E+00 -0.00000000000E+00 -0.10235450382E+03  0.10235450382E+03  0.00000000000E+00 0. -1.
         25    1    1    2    0    0  0.00000000000E+00  0.00000000000E+00 -0.64190574979E+02  0.14051843266E+03  0.12500000000E+03 0.  0.
<mgrwt>
<rscale>  2 0.12500000E+03</rscale>
<asrwt>0</asrwt>
<pdfrwt beam="1">  1       21 0.58713738E-02 0.12500000E+03</pdfrwt>
<pdfrwt beam="2">  1       21 0.15746846E-01 0.12500000E+03</pdfrwt>
<totfact> 0.71971700E+06</totfact>
</mgrwt>
</event>
<event>
 3    0  0.1635127E+001  0.1250000E+03  0.7546771E-02  0.1235069E+00
         21   -1    0    0  502  501  0.00000000000E+00  0.00000000000E+00  0.19396849679E+03  0.19396849679E+03  0.00000000000E+00 0. -1.
         21   -1    0    0  501  502 -0.00000000000E+00 -0.00000000000E+00 -0.20138579536E+02  0.20138579536E+02  0.00000000000E+00 0. -1.
         25    1    1    2    0    0  0.00000000000E+00  0.00000000000E+00  0.17382991725E+03  0.21410707633E+03  0.12500000000E+03 0.  0.
<mgrwt>
<rscale>  2 0.12500000E+03</rscale>
<asrwt>0</asrwt>
<pdfrwt beam="1">  1       21 0.29841306E-01 0.12500000E+03</pdfrwt>
<pdfrwt beam="2">  1       21 0.30982431E-02 0.12500000E+03</pdfrwt>
<totfact> 0.63429999E+06</totfact>
</mgrwt>
</event>
<event>
 3    0  0.1619468E+001  0.1250000E+03  0.7546771E-02  0.1235069E+00
         21   -1    0    0  502  501  0.00000000000E+00  0.00000000000E+00  0.27131024438E+03  0.27131024438E+03  0.00000000000E+00 0.  1.
         21   -1    0    0  501  502 -0.00000000000E+00 -0.00000000000E+00 -0.14397723937E+02  0.14397723937E+02  0.00000000000E+00 0.  1.
         25    1    1    2    0    0  0.00000000000E+00  0.00000000000E+00  0.25691252044E+03  0.28570796832E+03  0.12500000000E+03 0.  0.
<mgrwt>
<rscale>  2 0.12500000E+03</rscale>
<asrwt>0</asrwt>
<pdfrwt beam="1">  1       21 0.41740034E-01 0.12500000E+03</pdfrwt>
<pdfrwt beam="2">  1       21 0.22150347E-02 0.12500000E+03</pdfrwt>
<totfact> 0.56665215E+06</totfact>
</mgrwt>
</event>
<event>
 3    0  0.1523423E+001  0.1250000E+03  0.7546771E-02  0.1235069E+00
         21   -1    0    0  502  501  0.00000000000E+00  0.00000000000E+00  0.11218615408E+02  0.11218615408E+02  0.00000000000E+00 0. -1.
         21   -1    0    0  501  502 -0.00000000000E+00 -0.00000000000E+00 -0.34819359235E+03  0.34819359235E+03  0.00000000000E+00 0. -1.
         25    1    1    2    0    0  0.00000000000E+00  0.00000000000E+00 -0.33697497695E+03  0.35941220776E+03  0.12500000000E+03 0.  0.
<mgrwt>
<rscale>  2 0.12500000E+03</rscale>
<asrwt>0</asrwt>
<pdfrwt beam="1">  1       21 0.17259408E-02 0.12500000E+03</pdfrwt>
<pdfrwt beam="2">  1       21 0.53568246E-01 0.12500000E+03</pdfrwt>
<totfact> 0.50850738E+06</totfact>
</mgrwt>
</event>
<event>
 3    0  0.1728218E+001  0.1250000E+03  0.7546771E-02  0.1235069E+00
         21   -1    0    0  502  501  0.00000000000E+00  0.00000000000E+00  0.87492547188E+02  0.87492547188E+02  0.00000000000E+00 0.  1.
         21   -1    0    0  501  502 -0.00000000000E+00 -0.00000000000E+00 -0.44646659922E+02  0.44646659922E+02  0.00000000000E+00 0.  1.
         25    1    1    2    0    0  0.00000000000E+00  0.00000000000E+00  0.42845887266E+02  0.13213920711E+03  0.12500000000E+03 0.  0.
<mgrwt>
<rscale>  2 0.12500000E+03</rscale>
<asrwt>0</asrwt>
<pdfrwt beam="1">  1       21 0.13460392E-01 0.12500000E+03</pdfrwt>
<pdfrwt beam="2">  1       21 0.68687169E-02 0.12500000E+03</pdfrwt>
<totfact> 0.73077563E+06</totfact>
</mgrwt>
</event>
<event>
 3    0  0.1368989E+001  0.1250000E+03  0.7546771E-02  0.1235069E+00
         21   -1    0    0  502  501  0.00000000000E+00  0.00000000000E+00  0.14045038720E+04  0.14045038720E+04  0.00000000000E+00 0. -1.
         21   -1    0    0  501  502 -0.00000000000E+00 -0.00000000000E+00 -0.27812312075E+01  0.27812312075E+01  0.00000000000E+00 0. -1.
         25    1    1    2    0    0  0.00000000000E+00  0.00000000000E+00  0.14017226408E+04  0.14072851033E+04  0.12500000000E+03 0.  0.
<mgrwt>
<rscale>  2 0.12500000E+03</rscale>
<asrwt>0</asrwt>
<pdfrwt beam="1">  1       21 0.21607695E+00 0.12500000E+03</pdfrwt>
<pdfrwt beam="2">  1       21 0.42788285E-03 0.12500000E+03</pdfrwt>
<totfact> 0.15426693E+06</totfact>
</mgrwt>
</event>
<event>
 3    0  0.1703621E+001  0.1250000E+03  0.7546771E-02  0.1235069E+00
         21   -1    0    0  502  501  0.00000000000E+00  0.00000000000E+00  0.12833090925E+03  0.12833090925E+03  0.00000000000E+00 0.  1.
         21   -1    0    0  501  502 -0.00000000000E+00 -0.00000000000E+00 -0.30438886647E+02  0.30438886647E+02  0.00000000000E+00 0.  1.
         25    1    1    2    0    0  0.00000000000E+00  0.00000000000E+00  0.97892022602E+02  0.15876979590E+03  0.12500000000E+03 0.  0.
<mgrwt>
<rscale>  2 0.12500000E+03</rscale>
<asrwt>0</asrwt>
<pdfrwt beam="1">  1       21 0.19743217E-01 0.12500000E+03</pdfrwt>
<pdfrwt beam="2">  1       21 0.46829057E-02 0.12500000E+03</pdfrwt>
<totfact> 0.69670127E+06</totfact>
</mgrwt>
</event>
<event>
 3    0  0.1717555E+001  0.1250000E+03  0.7546771E-02  0.1235069E+00
         21   -1    0    0  502  501  0.00000000000E+00  0.00000000000E+00  0.11443821030E+03  0.11443821030E+03  0.00000000000E+00 0.  1.
         21   -1    0    0  501  502 -0.00000000000E+00 -0.00000000000E+00 -0.34134140945E+02  0.34134140945E+02  0.00000000000E+00 0.  1.
         25    1    1    2    0    0  0.00000000000E+00  0.00000000000E+00  0.80304069359E+02  0.14857235125E+03  0.12500000000E+03 0.  0.
<mgrwt>
<rscale>  2 0.12500000E+03</rscale>
<asrwt>0</asrwt>
<pdfrwt beam="1">  1       21 0.17605878E-01 0.12500000E+03</pdfrwt>
<pdfrwt beam="2">  1       21 0.52514063E-02 0.12500000E+03</pdfrwt>
<totfact> 0.70939003E+06</totfact>
</mgrwt>
</event>
<event>
 3    0  0.1709577E+001  0.1250000E+03  0.7546771E-02  0.1235069E+00
         21   -1    0    0  502  501  0.00000000000E+00  0.00000000000E+00  0.74309886423E+02  0.74309886423E+02  0.00000000000E+00 0. -1.
         21   -1    0    0  501  502 -0.00000000000E+00 -0.00000000000E+00 -0.52567029611E+02  0.52567029611E+02  0.00000000000E+00 0. -1.
         25    1    1    2    0    0  0.00000000000E+00  0.00000000000E+00  0.21742856813E+02  0.12687691603E+03  0.12500000000E+03 0.  0.
<mgrwt>
<rscale>  2 0.12500000E+03</rscale>
<asrwt>0</asrwt>
<pdfrwt beam="1">  1       21 0.11432290E-01 0.12500000E+03</pdfrwt>
<pdfrwt beam="2">  1       21 0.80872353E-02 0.12500000E+03</pdfrwt>
<totfact> 0.73785901E+06</totfact>
</mgrwt>
</event>
<event>
 3    0  0.1500007E+001  0.1250000E+03  0.7546771E-02  0.1235069E+00
         21   -1    0    0  502  501  0.00000000000E+00  0.00000000000E+00  0.48116093621E+03  0.48116093621E+03  0.00000000000E+00 0.  1.
         21   -1    0    0  501  502 -0.00000000000E+00 -0.00000000000E+00 -0.81183855672E+01  0.81183855672E+01  0.00000000000E+00 0.  1.
         25    1    1    2    0    0  0.00000000000E+00  0.00000000000E+00  0.47304255064E+03  0.48927932178E+03  0.12500000000E+03 0.  0.
<mgrwt>
<rscale>  2 0.12500000E+03</rscale>
<asrwt>0</asrwt>
<pdfrwt beam="1">  1       21 0.74024737E-01 0.12500000E+03</pdfrwt>
<pdfrwt beam="2">  1       21 0.12489828E-02 0.12500000E+03</pdfrwt>
<totfact> 0.42631517E+06</totfact>
</mgrwt>
</event>
<event>
 3    0  0.1688805E+001  0.1250000E+03  0.7546771E-02  0.1235069E+00
         21   -1    0    0  502  501  0.00000000000E+00  0.00000000000E+00  0.13898669401E+03  0.13898669401E+03  0.00000000000E+00 0. -1.
         21   -1    0    0  501  502 -0.00000000000E+00 -0.00000000000E+00 -0.28105208401E+02  0.28105208401E+02  0.00000000000E+00 0. -1.
         25    1    1    2    0    0  0.00000000000E+00  0.00000000000E+00  0.11088148561E+03  0.16709190241E+03  0.12500000000E+03 0.  0.
<mgrwt>
<rscale>  2 0.12500000E+03</rscale>
<asrwt>0</asrwt>
<pdfrwt beam="1">  1       21 0.21382568E-01 0.12500000E+03</pdfrwt>
<pdfrwt beam="2">  1       21 0.43238783E-02 0.12500000E+03</pdfrwt>
<totfact> 0.68663158E+06</totfact>
</mgrwt>
</event>
<event>
 3    0  0.1546965E+001  0.1250000E+03  0.7546771E-02  0.1235069E+00
         21   -1    0    0  502  501  0.00000000000E+00  0.00000000000E+00  0.33749540160E+03  0.33749540160E+03  0.00000000000E+00 0. -1.
         21   -1    0    0  501  502 -0.00000000000E+00 -0.00000000000E+00 -0.11574231772E+02  0.11574231772E+02  0.00000000000E+00 0. -1.
         25    1    1    2    0    0  0.00000000000E+00  0.00000000000E+00  0.32592116982E+03  0.34906963337E+03  0.12500000000E+03 0.  0.
<mgrwt>
<rscale>  2 0.12500000E+03</rscale>
<asrwt>0</asrwt>
<pdfrwt beam="1">  1       21 0.51922362E-01 0.12500000E+03</pdfrwt>
<pdfrwt beam="2">  1       21 0.17806513E-02 0.12500000E+03</pdfrwt>
<totfact> 0.51607218E+06</totfact>
</mgrwt>
</event>
<event>
 3    0  0.1368989E+001  0.1250000E+03  0.7546771E-02  0.1235069E+00
         21   -1    0    0  502  501  0.00000000000E+00  0.00000000000E+00  0.10002270045E+04  0.10002270045E+04  0.00000000000E+00 0.  1.
         21   -1    0    0  501  502 -0.00000000000E+00 -0.00000000000E+00 -0.39053634650E+01  0.39053634650E+01  0.00000000000E+00 0.  1.
         25    1    1    2    0    0  0.00000000000E+00  0.00000000000E+00  0.99632164101E+03  0.10041323679E+04  0.12500000000E+03 0.  0.
<mgrwt>
<rscale>  2 0.12500000E+03</rscale>
<asrwt>0</asrwt>
<pdfrwt beam="1">  1       21 0.15388087E+00 0.12500000E+03</pdfrwt>
<pdfrwt beam="2">  1       21 0.60082594E-03 0.12500000E+03</pdfrwt>
<totfact> 0.23515794E+06</totfact>
</mgrwt>
</event>
<event>
 3    0  0.1388522E+001  0.1250000E+03  0.7546771E-02  0.1235069E+00
         21   -1    0    0  502  501  0.00000000000E+00  0.00000000000E+00  0.63773482502E+03  0.63773482502E+03  0.00000000000E+00 0. -1.
         21   -1    0    0  501  502 -0.00000000000E+00 -0.00000000000E+00 -0.61251947467E+01  0.61251947467E+01  0.00000000000E+00 0. -1.
         25    1    1    2    0    0  0.00000000000E+00  0.00000000000E+00  0.63160963028E+03  0.64386001977E+03  0.12500000000E+03 0.  0.
<mgrwt>
<rscale>  2 0.12500000E+03</rscale>
<asrwt>0</asrwt>
<pdfrwt beam="1">  1       21 0.98112998E-01 0.12500000E+03</pdfrwt>
<pdfrwt beam="2">  1       21 0.94233816E-03 0.12500000E+03</pdfrwt>
<totfact> 0.35181200E+06</totfact>
</mgrwt>
</event>
<event>
 3    0  0.1711777E+001  0.1250000E+03  0.7546771E-02  0.1235069E+00
         21   -1    0    0  502  501  0.00000000000E+00  0.00000000000E+00  0.66320684346E+02  0.66320684346E+02  0.00000000000E+00 0. -1.
         21   -1    0    0  501  502 -0.00000000000E+00 -0.00000000000E+00 -0.58899422383E+02  0.58899422383E+02  0.00000000000E+00 0. -1.
         25    1    1    2    0    0  0.00000000000E+00  0.00000000000E+00  0.74212619632E+01  0.12522010673E+03  0.12500000000E+03 0.  0.
<mgrwt>
<rscale>  2 0.12500000E+03</rscale>
<asrwt>0</asrwt>
<pdfrwt beam="1">  1       21 0.10203182E-01 0.12500000E+03</pdfrwt>
<pdfrwt beam="2">  1       21 0.90614496E-02 0.12500000E+03</pdfrwt>
<totfact> 0.74013857E+06</totfact>
</mgrwt>
</event>
<event>
 3    0  0.1734478E+001  0.1250000E+03  0.7546771E-02  0.1235069E+00
         21   -1    0    0  502  501  0.00000000000E+00  0.00000000000E+00  0.80531384825E+02  0.80531384825E+02  0.00000000000E+00 0.  1.
         21   -1    0    0  501  502 -0.00000000000E+00 -0.00000000000E+00 -0.48505933538E+02  0.48505933538E+02  0.00000000000E+00 0.  1.
         25    1    1    2    0    0  0.00000000000E+00  0.00000000000E+00  0.32025451287E+02  0.12903731836E+03  0.12500000000E+03 0.  0.
<mgrwt>
<rscale>  2 0.12500000E+03</rscale>
<asrwt>0</asrwt>
<pdfrwt beam="1">  1       21 0.12389444E-01 0.12500000E+03</pdfrwt>
<pdfrwt beam="2">  1       21 0.74624513E-02 0.12500000E+03</pdfrwt>
<totfact> 0.73493869E+06</totfact>
</mgrwt>
</event>
<event>
 3    0  0.1368989E+001  0.1250000E+03  0.7546771E-02  0.1235069E+00
         21   -1    0    0  502  501  0.00000000000E+00  0.00000000000E+00  0.41199577259E+01  0.41199577259E+01  0.00000000000E+00 0.  1.
         21   -1    0    0  501  502 -0.00000000000E+00 -0.00000000000E+00 -0.94812866051E+03  0.94812866051E+03  0.00000000000E+00 0.  1.
         25    1    1    2    0    0  0.00000000000E+00  0.00000000000E+00 -0.94400870278E+03  0.95224861823E+03  0.12500000000E+03 0.  0.
<mgrwt>
<rscale>  2 0.12500000E+03</rscale>
<asrwt>0</asrwt>
<pdfrwt beam="1">  1       21 0.63384036E-03 0.12500000E+03</pdfrwt>
<pdfrwt beam="2">  1       21 0.14586578E+00 0.12500000E+03</pdfrwt>
<totfact> 0.24851324E+06</totfact>
</mgrwt>
</event>
<event>
 3    0  0.1613461E+001  0.1250000E+03  0.7546771E-02  0.1235069E+00
         21   -1    0    0  502  501  0.00000000000E+00  0.00000000000E+00  0.24195312160E+03  0.24195312160E+03  0.00000000000E+00 0. -1.
         21   -1    0    0  501  502 -0.00000000000E+00 -0.00000000000E+00 -0.16144656346E+02  0.16144656346E+02  0.00000000000E+00 0. -1.
         25    1    1    2    0    0  0.00000000000E+00  0.00000000000E+00  0.22580846526E+03  0.25809777795E+03  0.12500000000E+03 0.  0.
<mgrwt>
<rscale>  2 0.12500000E+03</rscale>
<asrwt>0</asrwt>
<pdfrwt beam="1">  1       21 0.37223555E-01 0.12500000E+03</pdfrwt>
<pdfrwt beam="2">  1       21 0.24837935E-02 0.12500000E+03</pdfrwt>
<totfact> 0.59124063E+06</totfact>
</mgrwt>
</event>
<event>
 3    0  0.1630327E+001  0.1250000E+03  0.7546771E-02  0.1235069E+00
         21   -1    0    0  502  501  0.00000000000E+00  0.00000000000E+00  0.15941391508E+02  0.15941391508E+02  0.00000000000E+00 0.  1.
         21   -1    0    0  501  502 -0.00000000000E+00 -0.00000000000E+00 -0.24503820749E+03  0.24503820749E+03  0.00000000000E+00 0.  1.
         25    1    1    2    0    0  0.00000000000E+00  0.00000000000E+00 -0.22909681598E+03  0.26097959899E+03  0.12500000000E+03 0.  0.
<mgrwt>
<rscale>  2 0.12500000E+03</rscale>
<asrwt>0</asrwt>
<pdfrwt beam="1">  1       21 0.24525218E-02 0.12500000E+03</pdfrwt>
<pdfrwt beam="2">  1       21 0.37698186E-01 0.12500000E+03</pdfrwt>
<totfact> 0.58859601E+06</totfact>
</mgrwt>
</event>
<event>
 3    0  0.1703403E+001  0.1250000E+03  0.7546771E-02  0.1235069E+00
         21   -1    0    0  502  501  0.00000000000E+00  0.00000000000E+00  0.44789264056E+02  0.44789264056E+02  0.00000000000E+00 0. -1.
         21   -1    0    0  501  502 -0.00000000000E+00 -0.00000000000E+00 -0.87213980455E+02  0.87213980455E+02  0.00000000000E+00 0. -1.
         25    1    1    2    0    0  0.00000000000E+00  0.00000000000E+00 -0.42424716398E+02  0.13200324451E+03  0.12500000000E+03 0.  0.
<mgrwt>
<rscale>  2 0.12500000E+03</rscale>
<asrwt>0</asrwt>
<pdfrwt beam="1">  1       21 0.68906560E-02 0.12500000E+03</pdfrwt>
<pdfrwt beam="2">  1       21 0.13417535E-01 0.12500000E+03</pdfrwt>
<totfact> 0.73095794E+06</totfact>
</mgrwt>
</event>
<event>
 3    0  0.1540212E+001  0.1250000E+03  0.7546771E-02  0.1235069E+00
         21   -1    0    0  502  501  0.00000000000E+00  0.00000000000E+00  0.11139889314E+02  0.11139889314E+02  0.00000000000E+00 0.  1.
         21   -1    0    0  501  502 -0.00000000000E+00 -0.00000000000E+00 -0.35065429196E+03  0.35065429196E+03  0.00000000000E+00 0.  1.
         25    1    1    2    0    0  0.00000000000E+00  0.00000000000E+00 -0.33951440264E+03  0.36179418127E+03  0.12500000000E+03 0.  0.
<mgrwt>
<rscale>  2 0.12500000E+03</rscale>
<asrwt>0</asrwt>
<pdfrwt beam="1">  1       21 0.17138290E-02 0.12500000E+03</pdfrwt>
<pdfrwt beam="2">  1       21 0.53946818E-01 0.12500000E+03</pdfrwt>
<totfact> 0.50679019E+06</totfact>
</mgrwt>
</event>
<event>
 3    0  0.1535253E+001  0.1250000E+03  0.7546771E-02  0.1235069E+00
         21   -1    0    0  502  501  0.00000000000E+00  0.00000000000E+00  0.44216502949E+03  0.44216502949E+03  0.00000000000E+00 0.  1.
         21   -1    0    0  501  502 -0.00000000000E+00 -0.00000000000E+00 -0.88343711951E+01  0.88343711951E+01  0.00000000000E+00 0.  1.
         25    1    1    2    0    0  0.00000000000E+00  0.00000000000E+00  0.43333065829E+03  0.45099940068E+03  0.12500000000E+03 0.  0.
<mgrwt>
<rscale>  2 0.12500000E+03</rscale>
<asrwt>0</asrwt>
<pdfrwt beam="1">  1       21 0.68025372E-01 0.12500000E+03</pdfrwt>
<pdfrwt beam="2">  1       21 0.13591344E-02 0.12500000E+03</pdfrwt>
<totfact> 0.44832534E+06</totfact>
</mgrwt>
</event>
<event>
 3    0  0.1697952E+001  0.1250000E+03  0.7546771E-02  0.1235069E+00
         21   -1    0    0  502  501  0.00000000000E+00  0.00000000000E+00  0.26252027494E+02  0.26252027494E+02  0.00000000000E+00 0.  1.
         21   -1    0    0  501  502 -0.00000000000E+00 -0.00000000000E+00 -0.14879803097E+03  0.14879803097E+03  0.00000000000E+00 0.  1.
         25    1    1    2    0    0  0.00000000000E+00  0.00000000000E+00 -0.12254600348E+03  0.17505005846E+03  0.12500000000E+03 0.  0.
<mgrwt>
<rscale>  2 0.12500000E+03</rscale>
<asrwt>0</asrwt>
<pdfrwt beam="1">  1       21 0.40387734E-02 0.12500000E+03</pdfrwt>
<pdfrwt beam="2">  1       21 0.22892005E-01 0.12500000E+03</pdfrwt>
<totfact> 0.67723965E+06</totfact>
</mgrwt>
</event>
<event>
 3    0  0.1701330E+001  0.1250000E+03  0.7546771E-02  0.1235069E+00
         21   -1    0    0  502  501  0.00000000000E+00  0.00000000000E+00  0.44109907838E+02  0.44109907838E+02  0.00000000000E+00 0. -1.
         21   -1    0    0  501  502 -0.00000000000E+00 -0.00000000000E+00 -0.88557201579E+02  0.88557201579E+02  0.00000000000E+00 0. -1.
         25    1    1    2    0    0  0.00000000000E+00  0.00000000000E+00 -0.44447293742E+02  0.13266710942E+03  0.12500000000E+03 0.  0.
<mgrwt>
<rscale>  2 0.12500000E+03</rscale>
<asrwt>0</asrwt>
<pdfrwt beam="1">  1       21 0.67861397E-02 0.12500000E+03</pdfrwt>
<pdfrwt beam="2">  1       21 0.13624185E-01 0.12500000E+03</pdfrwt>
<totfact> 0.73006883E+06</totfact>
</mgrwt>
</event>
<event>
 3    0  0.1368989E+001  0.1250000E+03  0.7546771E-02  0.1235069E+00
         21   -1    0    0  502  501  0.00000000000E+00  0.00000000000E+00  0.59495431504E+01  0.59495431504E+01  0.00000000000E+00 0. -1.
         21   -1    0    0  501  502 -0.00000000000E+00 -0.00000000000E+00 -0.65656301690E+03  0.65656301690E+03  0.00000000000E+00 0. -1.
         25    1    1    2    0    0  0.00000000000E+00  0.00000000000E+00 -0.65061347375E+03  0.66251256005E+03  0.12500000000E+03 0.  0.
<mgrwt>
<rscale>  2 0.12500000E+03</rscale>
<asrwt>0</asrwt>
<pdfrwt beam="1">  1       21 0.91531433E-03 0.12500000E+03</pdfrwt>
<pdfrwt beam="2">  1       21 0.10100970E+00 0.12500000E+03</pdfrwt>
<totfact> 0.34406009E+06</totfact>
</mgrwt>
</event>
<event>
 3    0  0.1368989E+001  0.1250000E+03  0.7546771E-02  0.1235069E+00
         21   -1    0    0  502  501  0.00000000000E+00  0.00000000000E+00  0.51284742536E+01  0.51284742536E+01  0.00000000000E+00 0.  1.
         21   -1    0    0  501  502 -0.00000000000E+00 -0.00000000000E+00 -0.76167877751E+03  0.76167877751E+03  0.00000000000E+00 0.  1.
         25    1    1    2    0    0  0.00000000000E+00  0.00000000000E+00 -0.75655030326E+03  0.76680725177E+03  0.12500000000E+03 0.  0.
<mgrwt>
<rscale>  2 0.12500000E+03</rscale>
<asrwt>0</asrwt>
<pdfrwt beam="1">  1       21 0.78899595E-03 0.12500000E+03</pdfrwt>
<pdfrwt beam="2">  1       21 0.11718136E+00 0.12500000E+03</pdfrwt>
<totfact> 0.30486346E+06</totfact>
</mgrwt>
</event>
<event>
 3    0  0.1368989E+001  0.1250000E+03  0.7546771E-02  0.1235069E+00
         21   -1    0    0  502  501  0.00000000000E+00  0.00000000000E+00  0.38076350289E+01  0.38076350289E+01  0.00000000000E+00 0. -1.
         21   -1    0    0  501  502 -0.00000000000E+00 -0.00000000000E+00 -0.10258992709E+04  0.10258992709E+04  0.00000000000E+00 0. -1.
         25    1    1    2    0    0  0.00000000000E+00  0.00000000000E+00 -0.10220916359E+04  0.10297069059E+04  0.12500000000E+03 0.  0.
<mgrwt>
<rscale>  2 0.12500000E+03</rscale>
<asrwt>0</asrwt>
<pdfrwt beam="1">  1       21 0.58579020E-03 0.12500000E+03</pdfrwt>
<pdfrwt beam="2">  1       21 0.15783061E+00 0.12500000E+03</pdfrwt>
<totfact> 0.22886017E+06</totfact>
</mgrwt>
</event>
<event>
 3    0  0.1622112E+001  0.1250000E+03  0.7546771E-02  0.1235069E+00
         21   -1    0    0  502  501  0.00000000000E+00  0.00000000000E+00  0.27017719598E+03  0.27017719598E+03  0.00000000000E+00 0.  1.
         21   -1    0    0  501  502 -0.00000000000E+00 -0.00000000000E+00 -0.14458104008E+02  0.14458104008E+02  0.00000000000E+00 0.  1.
         25    1    1    2    0    0  0.00000000000E+00  0.00000000000E+00  0.25571909197E+03  0.28463529999E+03  0.12500000000E+03 0.  0.
<mgrwt>
<rscale>  2 0.12500000E+03</rscale>
<asrwt>0</asrwt>
<pdfrwt beam="1">  1       21 0.41565719E-01 0.12500000E+03</pdfrwt>
<pdfrwt beam="2">  1       21 0.22243239E-02 0.12500000E+03</pdfrwt>
<totfact> 0.56757713E+06</totfact>
</mgrwt>
</event>
<event>
 3    0  0.1694719E+001  0.1250000E+03  0.7546771E-02  0.1235069E+00
         21   -1    0    0  502  501  0.00000000000E+00  0.00000000000E+00  0.36554917160E+02  0.36554917160E+02  0.00000000000E+00 0. -1.
         21   -1    0    0  501  502 -0.00000000000E+00 -0.00000000000E+00 -0.10685976890E+03  0.10685976890E+03  0.00000000000E+00 0. -1.
         25    1    1    2    0    0  0.00000000000E+00  0.00000000000E+00 -0.70304851743E+02  0.14341468606E+03  0.12500000000E+03 0.  0.
<mgrwt>
<rscale>  2 0.12500000E+03</rscale>
<asrwt>0</asrwt>
<pdfrwt beam="1">  1       21 0.56238335E-02 0.12500000E+03</pdfrwt>
<pdfrwt beam="2">  1       21 0.16439964E-01 0.12500000E+03</pdfrwt>
<totfact> 0.71596603E+06</totfact>
</mgrwt>
</event>
<event>
 3    0  0.1736998E+001  0.1250000E+03  0.7546771E-02  0.1235069E+00
         21   -1    0    0  502  501  0.00000000000E+00  0.00000000000E+00  0.63739563353E+02  0.63739563353E+02  0.00000000000E+00 0.  1.
         21   -1    0    0  501  502 -0.00000000000E+00 -0.00000000000E+00 -0.61284542826E+02  0.61284542826E+02  0.00000000000E+00 0.  1.
         25    1    1    2    0    0  0.00000000000E+00  0.00000000000E+00  0.24550205274E+01  0.12502410618E+03  0.12500000000E+03 0.  0.
<mgrwt>
<rscale>  2 0.12500000E+03</rscale>
<asrwt>0</asrwt>
<pdfrwt beam="1">  1       21 0.98060867E-02 0.12500000E+03</pdfrwt>
<pdfrwt beam="2">  1       21 0.94283912E-02 0.12500000E+03</pdfrwt>
<totfact> 0.74040325E+06</totfact>
</mgrwt>
</event>
<event>
 3    0  0.1368989E+001  0.1250000E+03  0.7546771E-02  0.1235069E+00
         21   -1    0    0  502  501  0.00000000000E+00  0.00000000000E+00  0.37768824265E+01  0.37768824265E+01  0.00000000000E+00 0.  1.
         21   -1    0    0  501  502 -0.00000000000E+00 -0.00000000000E+00 -0.10342524757E+04  0.10342524757E+04  0.00000000000E+00 0.  1.
         25    1    1    2    0    0  0.00000000000E+00  0.00000000000E+00 -0.10304755933E+04  0.10380293581E+04  0.12500000000E+03 0.  0.
<mgrwt>
<rscale>  2 0.12500000E+03</rscale>
<asrwt>0</asrwt>
<pdfrwt beam="1">  1       21 0.58105955E-03 0.12500000E+03</pdfrwt>
<pdfrwt beam="2">  1       21 0.15911557E+00 0.12500000E+03</pdfrwt>
<totfact> 0.22684791E+06</totfact>
</mgrwt>
</event>
<event>
 3    0  0.1652543E+001  0.1250000E+03  0.7546771E-02  0.1235069E+00
         21   -1    0    0  502  501  0.00000000000E+00  0.00000000000E+00  0.19652030764E+03  0.19652030764E+03  0.00000000000E+00 0.  1.
         21   -1    0    0  501  502 -0.00000000000E+00 -0.00000000000E+00 -0.19877080628E+02  0.19877080628E+02  0.00000000000E+00 0.  1.
         25    1    1    2    0    0  0.00000000000E+00  0.00000000000E+00  0.17664322702E+03  0.21639738827E+03  0.12500000000E+03 0.  0.
<mgrwt>
<rscale>  2 0.12500000E+03</rscale>
<asrwt>0</asrwt>
<pdfrwt beam="1">  1       21 0.30233892E-01 0.12500000E+03</pdfrwt>
<pdfrwt beam="2">  1       21 0.30580125E-02 0.12500000E+03</pdfrwt>
<totfact> 0.63192680E+06</totfact>
</mgrwt>
</event>
<event>
 3    0  0.1473812E+001  0.1250000E+03  0.7546771E-02  0.1235069E+00
         21   -1    0    0  502  501  0.00000000000E+00  0.00000000000E+00  0.84586446794E+01  0.84586446794E+01  0.00000000000E+00 0. -1.
         21   -1    0    0  501  502 -0.00000000000E+00 -0.00000000000E+00 -0.46180566131E+03  0.46180566131E+03  0.00000000000E+00 0. -1.
         25    1    1    2    0    0  0.00000000000E+00  0.00000000000E+00 -0.45334701664E+03  0.47026430599E+03  0.12500000000E+03 0.  0.
<mgrwt>
<rscale>  2 0.12500000E+03</rscale>
<asrwt>0</asrwt>
<pdfrwt beam="1">  1       21 0.13013299E-02 0.12500000E+03</pdfrwt>
<pdfrwt beam="2">  1       21 0.71047028E-01 0.12500000E+03</pdfrwt>
<totfact> 0.43704012E+06</totfact>
</mgrwt>
</event>
<event>
 3    0  0.1700488E+001  0.1250000E+03  0.7546771E-02  0.1235069E+00
         21   -1    0    0  502  501  0.00000000000E+00  0.00000000000E+00  0.38816925833E+02  0.38816925833E+02  0.00000000000E+00 0. -1.
         21   -1    0    0  501  502 -0.00000000000E+00 -0.00000000000E+00 -0.10063264713E+03  0.10063264713E+03  0.00000000000E+00 0. -1.
         25    1    1    2    0    0  0.00000000000E+00  0.00000000000E+00 -0.61815721295E+02  0.13944957296E+03  0.12500000000E+03 0.  0.
<mgrwt>
<rscale>  2 0.12500000E+03</rscale>
<asrwt>0</asrwt>
<pdfrwt beam="1">  1       21 0.59718347E-02 0.12500000E+03</pdfrwt>
<pdfrwt beam="2">  1       21 0.15481946E-01 0.12500000E+03</pdfrwt>
<totfact> 0.72111247E+06</totfact>
</mgrwt>
</event>
<event>
 3    0  0.1542156E+001  0.1250000E+03  0.7546771E-02  0.1235069E+00
         21   -1    0    0  502  501  0.00000000000E+00  0.00000000000E+00  0.35014945355E+03  0.35014945355E+03  0.00000000000E+00 0.  1.
         21   -1    0    0  501  502 -0.00000000000E+00 -0.00000000000E+00 -0.11155950582E+02  0.11155950582E+02  0.00000000000E+00 0.  1.
         25    1    1    2    0    0  0.00000000000E+00  0.00000000000E+00  0.33899350296E+03  0.36130540413E+03  0.12500000000E+03 0.  0.
<mgrwt>
<rscale>  2 0.12500000E+03</rscale>
<asrwt>0</asrwt>
<pdfrwt beam="1">  1       21 0.53869138E-01 0.12500000E+03</pdfrwt>
<pdfrwt beam="2">  1       21 0.17163004E-02 0.12500000E+03</pdfrwt>
<totfact> 0.50714185E+06</totfact>
</mgrwt>
</event>
<event>
 3    0  0.1441784E+001  0.1250000E+03  0.7546771E-02  0.1235069E+00
         21   -1    0    0  502  501  0.00000000000E+00  0.00000000000E+00  0.56766560956E+03  0.56766560956E+03  0.00000000000E+00 0. -1.
         21   -1    0    0  501  502 -0.00000000000E+00 -0.00000000000E+00 -0.68812518042E+01  0.68812518042E+01  0.00000000000E+00 0. -1.
         25    1    1    2    0    0  0.00000000000E+00  0.00000000000E+00  0.56078435776E+03  0.57454686137E+03  0.12500000000E+03 0.  0.
<mgrwt>
<rscale>  2 0.12500000E+03</rscale>
<asrwt>0</asrwt>
<pdfrwt beam="1">  1       21 0.87333134E-01 0.12500000E+03</pdfrwt>
<pdfrwt beam="2">  1       21 0.10586546E-02 0.12500000E+03</pdfrwt>
<totfact> 0.38269621E+06</totfact>
</mgrwt>
</event>
<event>
 3    0  0.1699793E+001  0.1250000E+03  0.7546771E-02  0.1235069E+00
         21   -1    0    0  502  501  0.00000000000E+00  0.00000000000E+00  0.39826012733E+02  0.39826012733E+02  0.00000000000E+00 0. -1.
         21   -1    0    0  501  502 -0.00000000000E+00 -0.00000000000E+00 -0.98082879303E+02  0.98082879303E+02  0.00000000000E+00 0. -1.
         25    1    1    2    0    0  0.00000000000E+00  0.00000000000E+00 -0.58256866570E+02  0.13790889204E+03  0.12500000000E+03 0.  0.
<mgrwt>
<rscale>  2 0.12500000E+03</rscale>
<asrwt>0</asrwt>
<pdfrwt beam="1">  1       21 0.61270789E-02 0.12500000E+03</pdfrwt>
<pdfrwt beam="2">  1       21 0.15089674E-01 0.12500000E+03</pdfrwt>
<totfact> 0.72313488E+06</totfact>
</mgrwt>
</event>
<event>
 3    0  0.1368989E+001  0.1250000E+03  0.7546771E-02  0.1235069E+00
         21   -1    0    0  502  501  0.00000000000E+00  0.00000000000E+00  0.13026287257E+04  0.13026287257E+04  0.00000000000E+00 0. -1.
         21   -1    0    0  501  502 -0.00000000000E+00 -0.00000000000E+00 -0.29987439422E+01  0.29987439422E+01  0.00000000000E+00 0. -1.
         25    1    1    2    0    0  0.00000000000E+00  0.00000000000E+00  0.12996299817E+04  0.13056274696E+04  0.12500000000E+03 0.  0.
<mgrwt>
<rscale>  2 0.12500000E+03</rscale>
<asrwt>0</asrwt>
<pdfrwt beam="1">  1       21 0.20040397E+00 0.12500000E+03</pdfrwt>
<pdfrwt beam="2">  1       21 0.46134626E-03 0.12500000E+03</pdfrwt>
<totfact> 0.17151648E+06</totfact>
</mgrwt>
</event>
<event>
 3    0  0.1731972E+001  0.1250000E+03  0.7546771E-02  0.1235069E+00
         21   -1    0    0  502  501  0.00000000000E+00  0.00000000000E+00  0.47498589931E+02  0.47498589931E+02  0.00000000000E+00 0.  1.
         21   -1    0    0  501  502 -0.00000000000E+00 -0.00000000000E+00 -0.82239283432E+02  0.82239283432E+02  0.00000000000E+00 0.  1.
         25    1    1    2    0    0  0.00000000000E+00  0.00000000000E+00 -0.34740693501E+02  0.12973787336E+03  0.12500000000E+03 0.  0.
<mgrwt>
<rscale>  2 0.12500000E+03</rscale>
<asrwt>0</asrwt>
<pdfrwt beam="1">  1       21 0.73074755E-02 0.12500000E+03</pdfrwt>
<pdfrwt beam="2">  1       21 0.12652197E-01 0.12500000E+03</pdfrwt>
<totfact> 0.73399969E+06</totfact>
</mgrwt>
</event>
<event>
 3    0  0.1600527E+001  0.1250000E+03  0.7546771E-02  0.1235069E+00
         21   -1    0    0  502  501  0.00000000000E+00  0.00000000000E+00  0.26951955759E+03  0.26951955759E+03  0.00000000000E+00 0. -1.
         21   -1    0    0  501  502 -0.00000000000E+00 -0.00000000000E+00 -0.14493382354E+02  0.14493382354E+02  0.00000000000E+00 0. -1.
         25    1    1    2    0    0  0.00000000000E+00  0.00000000000E+00  0.25502617524E+03  0.28401293995E+03  0.12500000000E+03 0.  0.
<mgrwt>
<rscale>  2 0.12500000E+03</rscale>
<asrwt>0</asrwt>
<pdfrwt beam="1">  1       21 0.41464544E-01 0.12500000E+03</pdfrwt>
<pdfrwt beam="2">  1       21 0.22297513E-02 0.12500000E+03</pdfrwt>
<totfact> 0.56811495E+06</totfact>
</mgrwt>
</event>
<event>
 3    0  0.1723741E+001  0.1250000E+03  0.7546771E-02  0.1235069E+00
         21   -1    0    0  502  501  0.00000000000E+00  0.00000000000E+00  0.38556190525E+02  0.38556190525E+02  0.00000000000E+00 0.  1.
         21   -1    0    0  501  502 -0.00000000000E+00 -0.00000000000E+00 -0.10131317298E+03  0.10131317298E+03  0.00000000000E+00 0.  1.
         25    1    1    2    0    0  0.00000000000E+00  0.00000000000E+00 -0.62756982453E+02  0.13986936350E+03  0.12500000000E+03 0.  0.
<mgrwt>
<rscale>  2 0.12500000E+03</rscale>
<asrwt>0</asrwt>
<pdfrwt beam="1">  1       21 0.59317218E-02 0.12500000E+03</pdfrwt>
<pdfrwt beam="2">  1       21 0.15586642E-01 0.12500000E+03</pdfrwt>
<totfact> 0.72056367E+06</totfact>
</mgrwt>
</event>
<event>
 3    0  0.1368989E+001  0.1250000E+03  0.7546771E-02  0.1235069E+00
         21   -1    0    0  502  501  0.00000000000E+00  0.00000000000E+00  0.33389760475E+01  0.33389760475E+01  0.00000000000E+00 0.  1.
         21   -1    0    0  501  502 -0.00000000000E+00 -0.00000000000E+00 -0.11698945858E+04  0.11698945858E+04  0.00000000000E+00 0.  1.
         25    1    1    2    0    0  0.00000000000E+00  0.00000000000E+00 -0.11665556097E+04  0.11732335618E+04  0.12500000000E+03 0.  0.
<mgrwt>
<rscale>  2 0.12500000E+03</rscale>
<asrwt>0</asrwt>
<pdfrwt beam="1">  1       21 0.51368849E-03 0.12500000E+03</pdfrwt>
<pdfrwt beam="2">  1       21 0.17998383E+00 0.12500000E+03</pdfrwt>
<totfact> 0.19685086E+06</totfact>
</mgrwt>
</event>
<event>
 3    0  0.1614317E+001  0.1250000E+03  0.7546771E-02  0.1235069E+00
         21   -1    0    0  502  501  0.00000000000E+00  0.00000000000E+00  0.15335699949E+02  0.15335699949E+02  0.00000000000E+00 0. -1.
         21   -1    0    0  501  502 -0.00000000000E+00 -0.00000000000E+00 -0.25471612075E+03  0.25471612075E+03  0.00000000000E+00 0. -1.
         25    1    1    2    0    0  0.00000000000E+00  0.00000000000E+00 -0.23938042081E+03  0.27005182070E+03  0.12500000000E+03 0.  0.
<mgrwt>
<rscale>  2 0.12500000E+03</rscale>
<asrwt>0</asrwt>
<pdfrwt beam="1">  1       21 0.23593384E-02 0.12500000E+03</pdfrwt>
<pdfrwt beam="2">  1       21 0.39187096E-01 0.12500000E+03</pdfrwt>
<totfact> 0.58040037E+06</totfact>
</mgrwt>
</event>
<event>
 3    0  0.1673249E+001  0.1250000E+03  0.7546771E-02  0.1235069E+00
         21   -1    0    0  502  501  0.00000000000E+00  0.00000000000E+00  0.18052665324E+03  0.18052665324E+03  0.00000000000E+00 0.  1.
         21   -1    0    0  501  502 -0.00000000000E+00 -0.00000000000E+00 -0.21638079087E+02  0.21638079087E+02  0.00000000000E+00 0.  1.
         25    1    1    2    0    0  0.00000000000E+00  0.00000000000E+00  0.15888857415E+03  0.20216473232E+03  0.12500000000E+03 0.  0.
<mgrwt>
<rscale>  2 0.12500000E+03</rscale>
<asrwt>0</asrwt>
<pdfrwt beam="1">  1       21 0.27773330E-01 0.12500000E+03</pdfrwt>
<pdfrwt beam="2">  1       21 0.33289354E-02 0.12500000E+03</pdfrwt>
<totfact> 0.64693442E+06</totfact>
</mgrwt>
</event>
<event>
 3    0  0.1703712E+001  0.1250000E+03  0.7546771E-02  0.1235069E+00
         21   -1    0    0  502  501  0.00000000000E+00  0.00000000000E+00  0.96270572643E+02  0.96270572643E+02  0.00000000000E+00 0. -1.
         21   -1    0    0  501  502 -0.00000000000E+00 -0.00000000000E+00 -0.40575742854E+02  0.40575742854E+02  0.00000000000E+00 0. -1.
         25    1    1    2    0    0  0.00000000000E+00  0.00000000000E+00  0.55694829789E+02  0.13684631550E+03  0.12500000000E+03 0.  0.
<mgrwt>
<rscale>  2 0.12500000E+03</rscale>
<asrwt>0</asrwt>
<pdfrwt beam="1">  1       21 0.14810857E-01 0.12500000E+03</pdfrwt>
<pdfrwt beam="2">  1       21 0.62424220E-02 0.12500000E+03</pdfrwt>
<totfact> 0.72452919E+06</totfact>
</mgrwt>
</event>
<event>
 3    0  0.1687332E+001  0.1250000E+03  0.7546771E-02  0.1235069E+00
         21   -1    0    0  502  501  0.00000000000E+00  0.00000000000E+00  0.24603479693E+02  0.24603479693E+02  0.00000000000E+00 0.  1.
         21   -1    0    0  501  502 -0.00000000000E+00 -0.00000000000E+00 -0.15876819250E+03  0.15876819250E+03  0.00000000000E+00 0.  1.
         25    1    1    2    0    0  0.00000000000E+00  0.00000000000E+00 -0.13416471280E+03  0.18337167219E+03  0.12500000000E+03 0.  0.
<mgrwt>
<rscale>  2 0.12500000E+03</rscale>
<asrwt>0</asrwt>
<pdfrwt beam="1">  1       21 0.37851507E-02 0.12500000E+03</pdfrwt>
<pdfrwt beam="2">  1       21 0.24425876E-01 0.12500000E+03</pdfrwt>
<totfact> 0.66766838E+06</totfact>
</mgrwt>
</event>
<event>
 3    0  0.1734504E+001  0.1250000E+03  0.7546771E-02  0.1235069E+00
         21   -1    0    0  502  501  0.00000000000E+00  0.00000000000E+00  0.54789888068E+02  0.54789888068E+02  0.00000000000E+00 0.  1.
         21   -1    0    0  501  502 -0.00000000000E+00 -0.00000000000E+00 -0.71295089984E+02  0.71295089984E+02  0.00000000000E+00 0.  1.
         25    1    1    2    0    0  0.00000000000E+00  0.00000000000E+00 -0.16505201916E+02  0.12608497805E+03  0.12500000000E+03 0.  0.
<mgrwt>
<rscale>  2 0.12500000E+03</rscale>
<asrwt>0</asrwt>
<pdfrwt beam="1">  1       21 0.84292135E-02 0.12500000E+03</pdfrwt>
<pdfrwt beam="2">  1       21 0.10968475E-01 0.12500000E+03</pdfrwt>
<totfact> 0.73894330E+06</totfact>
</mgrwt>
</event>
<event>
 3    0  0.1368989E+001  0.1250000E+03  0.7546771E-02  0.1235069E+00
         21   -1    0    0  502  501  0.00000000000E+00  0.00000000000E+00  0.32932035260E+01  0.32932035260E+01  0.00000000000E+00 0.  1.
         21   -1    0    0  501  502 -0.00000000000E+00 -0.00000000000E+00 -0.11861550521E+04  0.11861550521E+04  0.00000000000E+00 0.  1.
         25    1    1    2    0    0  0.00000000000E+00  0.00000000000E+00 -0.11828618486E+04  0.11894482556E+04  0.12500000000E+03 0.  0.
<mgrwt>
<rscale>  2 0.12500000E+03</rscale>
<asrwt>0</asrwt>
<pdfrwt beam="1">  1       21 0.50664616E-03 0.12500000E+03</pdfrwt>
<pdfrwt beam="2">  1       21 0.18248558E+00 0.12500000E+03</pdfrwt>
<totfact> 0.19354898E+06</totfact>
</mgrwt>
</event>
<event>
 3    0  0.1611516E+001  0.1250000E+03  0.7546771E-02  0.1235069E+00
         21   -1    0    0  502  501  0.00000000000E+00  0.00000000000E+00  0.23062403307E+03  0.23062403307E+03  0.00000000000E+00 0. -1.
         21   -1    0    0  501  502 -0.00000000000E+00 -0.00000000000E+00 -0.16937740391E+02  0.16937740391E+02  0.00000000000E+00 0. -1.
         25    1    1    2    0    0  0.00000000000E+00  0.00000000000E+00  0.21368629268E+03  0.24756177346E+03  0.12500000000E+03 0.  0.
<mgrwt>
<rscale>  2 0.12500000E+03</rscale>
<asrwt>0</asrwt>
<pdfrwt beam="1">  1       21 0.35480618E-01 0.12500000E+03</pdfrwt>
<pdfrwt beam="2">  1       21 0.26058064E-02 0.12500000E+03</pdfrwt>
<totfact> 0.60108508E+06</totfact>
</mgrwt>
</event>
<event>
 3    0  0.1601032E+001  0.1250000E+03  0.7546771E-02  0.1235069E+00
         21   -1    0    0  502  501  0.00000000000E+00  0.00000000000E+00  0.27928360620E+03  0.27928360620E+03  0.00000000000E+00 0.  1.
         21   -1    0    0  501  502 -0.00000000000E+00 -0.00000000000E+00 -0.13986678464E+02  0.13986678464E+02  0.00000000000E+00 0.  1.
         25    1    1    2    0    0  0.00000000000E+00  0.00000000000E+00  0.26529692773E+03  0.29327028466E+03  0.12500000000E+03 0.  0.
<mgrwt>
<rscale>  2 0.12500000E+03</rscale>
<asrwt>0</asrwt>
<pdfrwt beam="1">  1       21 0.42966704E-01 0.12500000E+03</pdfrwt>
<pdfrwt beam="2">  1       21 0.21517969E-02 0.12500000E+03</pdfrwt>
<totfact> 0.56020119E+06</totfact>
</mgrwt>
</event>
<event>
 3    0  0.1368989E+001  0.1250000E+03  0.7546771E-02  0.1235069E+00
         21   -1    0    0  502  501  0.00000000000E+00  0.00000000000E+00  0.50039272102E+01  0.50039272102E+01  0.00000000000E+00 0. -1.
         21   -1    0    0  501  502 -0.00000000000E+00 -0.00000000000E+00 -0.78063685500E+03  0.78063685500E+03  0.00000000000E+00 0. -1.
         25    1    1    2    0    0  0.00000000000E+00  0.00000000000E+00 -0.77563292779E+03  0.78564078221E+03  0.12500000000E+03 0.  0.
<mgrwt>
<rscale>  2 0.12500000E+03</rscale>
<asrwt>0</asrwt>
<pdfrwt beam="1">  1       21 0.76983507E-03 0.12500000E+03</pdfrwt>
<pdfrwt beam="2">  1       21 0.12009796E+00 0.12500000E+03</pdfrwt>
<totfact> 0.29844130E+06</totfact>
</mgrwt>
</event>
<event>
 3    0  0.1618666E+001  0.1250000E+03  0.7546771E-02  0.1235069E+00
         21   -1    0    0  502  501  0.00000000000E+00  0.00000000000E+00  0.17773533033E+02  0.17773533033E+02  0.00000000000E+00 0. -1.
         21   -1    0    0  501  502 -0.00000000000E+00 -0.00000000000E+00 -0.21977903846E+03  0.21977903846E+03  0.00000000000E+00 0. -1.
         25    1    1    2    0    0  0.00000000000E+00  0.00000000000E+00 -0.20200550542E+03  0.23755257149E+03  0.12500000000E+03 0.  0.
<mgrwt>
<rscale>  2 0.12500000E+03</rscale>
<asrwt>0</asrwt>
<pdfrwt beam="1">  1       21 0.27343898E-02 0.12500000E+03</pdfrwt>
<pdfrwt beam="2">  1       21 0.33812159E-01 0.12500000E+03</pdfrwt>
<totfact> 0.61070302E+06</totfact>
</mgrwt>
</event>
<event>
 3    0  0.1596876E+001  0.1250000E+03  0.7546771E-02  0.1235069E+00
         21   -1    0    0  502  501  0.00000000000E+00  0.00000000000E+00  0.15659953590E+02  0.15659953590E+02  0.00000000000E+00 0. -1.
         21   -1    0    0  501  502 -0.00000000000E+00 -0.00000000000E+00 -0.24944199084E+03  0.24944199084E+03  0.00000000000E+00 0. -1.
         25    1    1    2    0    0  0.00000000000E+00  0.00000000000E+00 -0.23378203725E+03  0.26510194443E+03  0.12500000000E+03 0.  0.
<mgrwt>
<rscale>  2 0.12500000E+03</rscale>
<asrwt>0</asrwt>
<pdfrwt beam="1">  1       21 0.24092237E-02 0.12500000E+03</pdfrwt>
<pdfrwt beam="2">  1       21 0.38375690E-01 0.12500000E+03</pdfrwt>
<totfact> 0.58484785E+06</totfact>
</mgrwt>
</event>
<event>
 3    0  0.1678585E+001  0.1250000E+03  0.7546771E-02  0.1235069E+00
         21   -1    0    0  502  501  0.00000000000E+00  0.00000000000E+00  0.21874024042E+02  0.21874024042E+02  0.00000000000E+00 0.  1.
         21   -1    0    0  501  502 -0.00000000000E+00 -0.00000000000E+00 -0.17857939593E+03  0.17857939593E+03  0.00000000000E+00 0.  1.
         25    1    1    2    0    0  0.00000000000E+00  0.00000000000E+00 -0.15670537189E+03  0.20045341997E+03  0.12500000000E+03 0.  0.
<mgrwt>
<rscale>  2 0.12500000E+03</rscale>
<asrwt>0</asrwt>
<pdfrwt beam="1">  1       21 0.33652345E-02 0.12500000E+03</pdfrwt>
<pdfrwt beam="2">  1       21 0.27473753E-01 0.12500000E+03</pdfrwt>
<totfact> 0.64878154E+06</totfact>
</mgrwt>
</event>
<event>
 3    0  0.1368989E+001  0.1250000E+03  0.7546771E-02  0.1235069E+00
         21   -1    0    0  502  501  0.00000000000E+00  0.00000000000E+00  0.14519260501E+04  0.14519260501E+04  0.00000000000E+00 0. -1.
         21   -1    0    0  501  502 -0.00000000000E+00 -0.00000000000E+00 -0.26903918418E+01  0.26903918418E+01  0.00000000000E+00 0. -1.
         25    1    1    2    0    0  0.00000000000E+00  0.00000000000E+00  0.14492356583E+04  0.14546164419E+04  0.12500000000E+03 0.  0.
<mgrwt>
<rscale>  2 0.12500000E+03</rscale>
<asrwt>0</asrwt>
<pdfrwt beam="1">  1       21 0.22337261E+00 0.12500000E+03</pdfrwt>
<pdfrwt beam="2">  1       21 0.41390760E-03 0.12500000E+03</pdfrwt>
<totfact> 0.14679333E+06</totfact>
</mgrwt>
</event>
<event>
 3    0  0.1663204E+001  0.1250000E+03  0.7546771E-02  0.1235069E+00
         21   -1    0    0  502  501  0.00000000000E+00  0.00000000000E+00  0.15889821136E+03  0.15889821136E+03  0.00000000000E+00 0. -1.
         21   -1    0    0  501  502 -0.00000000000E+00 -0.00000000000E+00 -0.24583347833E+02  0.24583347833E+02  0.00000000000E+00 0. -1.
         25    1    1    2    0    0  0.00000000000E+00  0.00000000000E+00  0.13431486353E+03  0.18348155919E+03  0.12500000000E+03 0.  0.
<mgrwt>
<rscale>  2 0.12500000E+03</rscale>
<asrwt>0</asrwt>
<pdfrwt beam="1">  1       21 0.24445878E-01 0.12500000E+03</pdfrwt>
<pdfrwt beam="2">  1       21 0.37820536E-02 0.12500000E+03</pdfrwt>
<totfact> 0.66754371E+06</totfact>
</mgrwt>
</event>
<event>
 3    0  0.1737022E+001  0.1250000E+03  0.7546771E-02  0.1235069E+00
         21   -1    0    0  502  501  0.00000000000E+00  0.00000000000E+00  0.63521515130E+02  0.63521515130E+02  0.00000000000E+00 0.  1.
         21   -1    0    0  501  502 -0.00000000000E+00 -0.00000000000E+00 -0.61494912267E+02  0.61494912267E+02  0.00000000000E+00 0.  1.
         25    1    1    2    0    0  0.00000000000E+00  0.00000000000E+00  0.20266028633E+01  0.12501642740E+03  0.12500000000E+03 0.  0.
<mgrwt>
<rscale>  2 0.12500000E+03</rscale>
<asrwt>0</asrwt>
<pdfrwt beam="1">  1       21 0.97725408E-02 0.12500000E+03</pdfrwt>
<pdfrwt beam="2">  1       21 0.94607557E-02 0.12500000E+03</pdfrwt>
<totfact> 0.74041363E+06</totfact>
</mgrwt>
</event>
<event>
 3    0  0.1611460E+001  0.1250000E+03  0.7546771E-02  0.1235069E+00
         21   -1    0    0  502  501  0.00000000000E+00  0.00000000000E+00  0.25567149911E+03  0.25567149911E+03  0.00000000000E+00 0. -1.
         21   -1    0    0  501  502 -0.00000000000E+00 -0.00000000000E+00 -0.15278394399E+02  0.15278394399E+02  0.00000000000E+00 0. -1.
         25    1    1    2    0    0  0.00000000000E+00  0.00000000000E+00  0.24039310471E+03  0.27094989351E+03  0.12500000000E+03 0.  0.
<mgrwt>
<rscale>  2 0.12500000E+03</rscale>
<asrwt>0</asrwt>
<pdfrwt beam="1">  1       21 0.39334074E-01 0.12500000E+03</pdfrwt>
<pdfrwt beam="2">  1       21 0.23505224E-02 0.12500000E+03</pdfrwt>
<totfact> 0.57959958E+06</totfact>
</mgrwt>
</event>
<event>
 3    0  0.1368989E+001  0.1250000E+03  0.7546771E-02  0.1235069E+00
         21   -1    0    0  502  501  0.00000000000E+00  0.00000000000E+00  0.47293636689E+01  0.47293636689E+01  0.00000000000E+00 0.  1.
         21   -1    0    0  501  502 -0.00000000000E+00 -0.00000000000E+00 -0.82595678267E+03  0.82595678267E+03  0.00000000000E+00 0.  1.
         25    1    1    2    0    0  0.00000000000E+00  0.00000000000E+00 -0.82122741900E+03  0.83068614633E+03  0.12500000000E+03 0.  0.
<mgrwt>
<rscale>  2 0.12500000E+03</rscale>
<asrwt>0</asrwt>
<pdfrwt beam="1">  1       21 0.72759402E-03 0.12500000E+03</pdfrwt>
<pdfrwt beam="2">  1       21 0.12707034E+00 0.12500000E+03</pdfrwt>
<totfact> 0.28371024E+06</totfact>
</mgrwt>
</event>
<event>
 3    0  0.1368989E+001  0.1250000E+03  0.7546771E-02  0.1235069E+00
         21   -1    0    0  502  501  0.00000000000E+00  0.00000000000E+00  0.19926029656E+01  0.19926029656E+01  0.00000000000E+00 0.  1.
         21   -1    0    0  501  502 -0.00000000000E+00 -0.00000000000E+00 -0.19603754824E+04  0.19603754824E+04  0.00000000000E+00 0.  1.
         25    1    1    2    0    0  0.00000000000E+00  0.00000000000E+00 -0.19583828795E+04  0.19623680854E+04  0.12500000000E+03 0.  0.
<mgrwt>
<rscale>  2 0.12500000E+03</rscale>
<asrwt>0</asrwt>
<pdfrwt beam="1">  1       21 0.30655405E-03 0.12500000E+03</pdfrwt>
<pdfrwt beam="2">  1       21 0.30159648E+00 0.12500000E+03</pdfrwt>
<totfact> 0.83208594E+05</totfact>
</mgrwt>
</event>
<event>
 3    0  0.1601244E+001  0.1250000E+03  0.7546771E-02  0.1235069E+00
         21   -1    0    0  502  501  0.00000000000E+00  0.00000000000E+00  0.15004797858E+02  0.15004797858E+02  0.00000000000E+00 0. -1.
         21   -1    0    0  501  502 -0.00000000000E+00 -0.00000000000E+00 -0.26033339716E+03  0.26033339716E+03  0.00000000000E+00 0. -1.
         25    1    1    2    0    0  0.00000000000E+00  0.00000000000E+00 -0.24532859930E+03  0.27533819502E+03  0.12500000000E+03 0.  0.
<mgrwt>
<rscale>  2 0.12500000E+03</rscale>
<asrwt>0</asrwt>
<pdfrwt beam="1">  1       21 0.23084305E-02 0.12500000E+03</pdfrwt>
<pdfrwt beam="2">  1       21 0.40051291E-01 0.12500000E+03</pdfrwt>
<totfact> 0.57570027E+06</totfact>
</mgrwt>
</event>
<event>
 3    0  0.1717016E+001  0.1250000E+03  0.7546771E-02  0.1235069E+00
         21   -1    0    0  502  501  0.00000000000E+00  0.00000000000E+00  0.11913335641E+03  0.11913335641E+03  0.00000000000E+00 0.  1.
         21   -1    0    0  501  502 -0.00000000000E+00 -0.00000000000E+00 -0.32788885646E+02  0.32788885646E+02  0.00000000000E+00 0.  1.
         25    1    1    2    0    0  0.00000000000E+00  0.00000000000E+00  0.86344470766E+02  0.15192224206E+03  0.12500000000E+03 0.  0.
<mgrwt>
<rscale>  2 0.12500000E+03</rscale>
<asrwt>0</asrwt>
<pdfrwt beam="1">  1       21 0.18328208E-01 0.12500000E+03</pdfrwt>
<pdfrwt beam="2">  1       21 0.50444440E-02 0.12500000E+03</pdfrwt>
<totfact> 0.70518560E+06</totfact>
</mgrwt>
</event>
<event>
 3    0  0.1693102E+001  0.1250000E+03  0.7546771E-02  0.1235069E+00
         21   -1    0    0  502  501  0.00000000000E+00  0.00000000000E+00  0.24977953900E+02  0.24977953900E+02  0.00000000000E+00 0.  1.
         21   -1    0    0  501  502 -0.00000000000E+00 -0.00000000000E+00 -0.15638790974E+03  0.15638790974E+03  0.00000000000E+00 0.  1.
         25    1    1    2    0    0  0.00000000000E+00  0.00000000000E+00 -0.13140995584E+03  0.18136586364E+03  0.12500000000E+03 0.  0.
<mgrwt>
<rscale>  2 0.12500000E+03</rscale>
<asrwt>0</asrwt>
<pdfrwt beam="1">  1       21 0.38427622E-02 0.12500000E+03</pdfrwt>
<pdfrwt beam="2">  1       21 0.24059678E-01 0.12500000E+03</pdfrwt>
<totfact> 0.66995194E+06</totfact>
</mgrwt>
</event>
<event>
 3    0  0.1492087E+001  0.1250000E+03  0.7546771E-02  0.1235069E+00
         21   -1    0    0  502  501  0.00000000000E+00  0.00000000000E+00  0.52156382650E+03  0.52156382650E+03  0.00000000000E+00 0.  1.
         21   -1    0    0  501  502 -0.00000000000E+00 -0.00000000000E+00 -0.74894956313E+01  0.74894956313E+01  0.00000000000E+00 0.  1.
         25    1    1    2    0    0  0.00000000000E+00  0.00000000000E+00  0.51407433087E+03  0.52905332213E+03  0.12500000000E+03 0.  0.
<mgrwt>
<rscale>  2 0.12500000E+03</rscale>
<asrwt>0</asrwt>
<pdfrwt beam="1">  1       21 0.80240561E-01 0.12500000E+03</pdfrwt>
<pdfrwt beam="2">  1       21 0.11522305E-02 0.12500000E+03</pdfrwt>
<totfact> 0.40511048E+06</totfact>
</mgrwt>
</event>
<event>
 3    0  0.1368989E+001  0.1250000E+03  0.7546771E-02  0.1235069E+00
         21   -1    0    0  502  501  0.00000000000E+00  0.00000000000E+00  0.84048845119E+03  0.84048845119E+03  0.00000000000E+00 0. -1.
         21   -1    0    0  501  502 -0.00000000000E+00 -0.00000000000E+00 -0.46475950912E+01  0.46475950912E+01  0.00000000000E+00 0. -1.
         25    1    1    2    0    0  0.00000000000E+00  0.00000000000E+00  0.83584085610E+03  0.84513604629E+03  0.12500000000E+03 0.  0.
<mgrwt>
<rscale>  2 0.12500000E+03</rscale>
<asrwt>0</asrwt>
<pdfrwt beam="1">  1       21 0.12930579E+00 0.12500000E+03</pdfrwt>
<pdfrwt beam="2">  1       21 0.71501530E-03 0.12500000E+03</pdfrwt>
<totfact> 0.27920917E+06</totfact>
</mgrwt>
</event>
<event>
 3    0  0.1368989E+001  0.1250000E+03  0.7546771E-02  0.1235069E+00
         21   -1    0    0  502  501  0.00000000000E+00  0.00000000000E+00  0.66122596048E+03  0.66122596048E+03  0.00000000000E+00 0. -1.
         21   -1    0    0  501  502 -0.00000000000E+00 -0.00000000000E+00 -0.59075871691E+01  0.59075871691E+01  0.00000000000E+00 0. -1.
         25    1    1    2    0    0  0.00000000000E+00  0.00000000000E+00  0.65531837331E+03  0.66713354765E+03  0.12500000000E+03 0.  0.
<mgrwt>
<rscale>  2 0.12500000E+03</rscale>
<asrwt>0</asrwt>
<pdfrwt beam="1">  1       21 0.10172701E+00 0.12500000E+03</pdfrwt>
<pdfrwt beam="2">  1       21 0.90886009E-03 0.12500000E+03</pdfrwt>
<totfact> 0.34216143E+06</totfact>
</mgrwt>
</event>
<event>
 3    0  0.1608255E+001  0.1250000E+03  0.7546771E-02  0.1235069E+00
         21   -1    0    0  502  501  0.00000000000E+00  0.00000000000E+00  0.14617164390E+02  0.14617164390E+02  0.00000000000E+00 0.  1.
         21   -1    0    0  501  502 -0.00000000000E+00 -0.00000000000E+00 -0.26723719428E+03  0.26723719428E+03  0.00000000000E+00 0.  1.
         25    1    1    2    0    0  0.00000000000E+00  0.00000000000E+00 -0.25262002989E+03  0.28185435867E+03  0.12500000000E+03 0.  0.
<mgrwt>
<rscale>  2 0.12500000E+03</rscale>
<asrwt>0</asrwt>
<pdfrwt beam="1">  1       21 0.22487947E-02 0.12500000E+03</pdfrwt>
<pdfrwt beam="2">  1       21 0.41113411E-01 0.12500000E+03</pdfrwt>
<totfact> 0.56998688E+06</totfact>
</mgrwt>
</event>
<event>
 3    0  0.1483437E+001  0.1250000E+03  0.7546771E-02  0.1235069E+00
         21   -1    0    0  502  501  0.00000000000E+00  0.00000000000E+00  0.74448949821E+01  0.74448949821E+01  0.00000000000E+00 0.  1.
         21   -1    0    0  501  502 -0.00000000000E+00 -0.00000000000E+00 -0.52468839512E+03  0.52468839512E+03  0.00000000000E+00 0.  1.
         25    1    1    2    0    0  0.00000000000E+00  0.00000000000E+00 -0.51724350014E+03  0.53213329010E+03  0.12500000000E+03 0.  0.
<mgrwt>
<rscale>  2 0.12500000E+03</rscale>
<asrwt>0</asrwt>
<pdfrwt beam="1">  1       21 0.11453686E-02 0.12500000E+03</pdfrwt>
<pdfrwt beam="2">  1       21 0.80721284E-01 0.12500000E+03</pdfrwt>
<totfact> 0.40353362E+06</totfact>
</mgrwt>
</event>
<event>
 3    0  0.1688589E+001  0.1250000E+03  0.7546771E-02  0.1235069E+00
         21   -1    0    0  502  501  0.00000000000E+00  0.00000000000E+00  0.32328272456E+02  0.32328272456E+02  0.00000000000E+00 0. -1.
         21   -1    0    0  501  502 -0.00000000000E+00 -0.00000000000E+00 -0.12083076834E+03  0.12083076834E+03  0.00000000000E+00 0. -1.
         25    1    1    2    0    0  0.00000000000E+00  0.00000000000E+00 -0.88502495884E+02  0.15315904080E+03  0.12500000000E+03 0.  0.
<mgrwt>
<rscale>  2 0.12500000E+03</rscale>
<asrwt>0</asrwt>
<pdfrwt beam="1">  1       21 0.49735803E-02 0.12500000E+03</pdfrwt>
<pdfrwt beam="2">  1       21 0.18589349E-01 0.12500000E+03</pdfrwt>
<totfact> 0.70364587E+06</totfact>
</mgrwt>
</event>
<event>
 3    0  0.1590363E+001  0.1250000E+03  0.7546771E-02  0.1235069E+00
         21   -1    0    0  502  501  0.00000000000E+00  0.00000000000E+00  0.12321978481E+02  0.12321978481E+02  0.00000000000E+00 0.  1.
         21   -1    0    0  501  502 -0.00000000000E+00 -0.00000000000E+00 -0.31701483703E+03  0.31701483703E+03  0.00000000000E+00 0.  1.
         25    1    1    2    0    0  0.00000000000E+00  0.00000000000E+00 -0.30469285855E+03  0.32933681551E+03  0.12500000000E+03 0.  0.
<mgrwt>
<rscale>  2 0.12500000E+03</rscale>
<asrwt>0</asrwt>
<pdfrwt beam="1">  1       21 0.18956891E-02 0.12500000E+03</pdfrwt>
<pdfrwt beam="2">  1       21 0.48771510E-01 0.12500000E+03</pdfrwt>
<totfact> 0.53101645E+06</totfact>
</mgrwt>
</event>
<event>
 3    0  0.1704211E+001  0.1250000E+03  0.7546771E-02  0.1235069E+00
         21   -1    0    0  502  501  0.00000000000E+00  0.00000000000E+00  0.29216937123E+02  0.29216937123E+02  0.00000000000E+00 0.  1.
         21   -1    0    0  501  502 -0.00000000000E+00 -0.00000000000E+00 -0.13369813487E+03  0.13369813487E+03  0.00000000000E+00 0.  1.
         25    1    1    2    0    0  0.00000000000E+00  0.00000000000E+00 -0.10448119775E+03  0.16291507199E+03  0.12500000000E+03 0.  0.
<mgrwt>
<rscale>  2 0.12500000E+03</rscale>
<asrwt>0</asrwt>
<pdfrwt beam="1">  1       21 0.44949134E-02 0.12500000E+03</pdfrwt>
<pdfrwt beam="2">  1       21 0.20568944E-01 0.12500000E+03</pdfrwt>
<totfact> 0.69165048E+06</totfact>
</mgrwt>
</event>
<event>
 3    0  0.1702843E+001  0.1250000E+03  0.7546771E-02  0.1235069E+00
         21   -1    0    0  502  501  0.00000000000E+00  0.00000000000E+00  0.42619630418E+02  0.42619630418E+02  0.00000000000E+00 0. -1.
         21   -1    0    0  501  502 -0.00000000000E+00 -0.00000000000E+00 -0.91653774604E+02  0.91653774604E+02  0.00000000000E+00 0. -1.
         25    1    1    2    0    0  0.00000000000E+00  0.00000000000E+00 -0.49034144186E+02  0.13427340502E+03  0.12500000000E+03 0.  0.
<mgrwt>
<rscale>  2 0.12500000E+03</rscale>
<asrwt>0</asrwt>
<pdfrwt beam="1">  1       21 0.65568662E-02 0.12500000E+03</pdfrwt>
<pdfrwt beam="2">  1       21 0.14100581E-01 0.12500000E+03</pdfrwt>
<totfact> 0.72792822E+06</totfact>
</mgrwt>
</event>
<event>
 3    0  0.1479768E+001  0.1250000E+03  0.7546771E-02  0.1235069E+00
         21   -1    0    0  502  501  0.00000000000E+00  0.00000000000E+00  0.45946194891E+03  0.45946194891E+03  0.00000000000E+00 0. -1.
         21   -1    0    0  501  502 -0.00000000000E+00 -0.00000000000E+00 -0.85017921707E+01  0.85017921707E+01  0.00000000000E+00 0. -1.
         25    1    1    2    0    0  0.00000000000E+00  0.00000000000E+00  0.45096015674E+03  0.46796374108E+03  0.12500000000E+03 0.  0.
<mgrwt>
<rscale>  2 0.12500000E+03</rscale>
<asrwt>0</asrwt>
<pdfrwt beam="1">  1       21 0.70686434E-01 0.12500000E+03</pdfrwt>
<pdfrwt beam="2">  1       21 0.13079684E-02 0.12500000E+03</pdfrwt>
<totfact> 0.43836519E+06</totfact>
</mgrwt>
</event>
<event>
 3    0  0.1709253E+001  0.1250000E+03  0.7546771E-02  0.1235069E+00
         21   -1    0    0  502  501  0.00000000000E+00  0.00000000000E+00  0.74657300647E+02  0.74657300647E+02  0.00000000000E+00 0. -1.
         21   -1    0    0  501  502 -0.00000000000E+00 -0.00000000000E+00 -0.52322411420E+02  0.52322411420E+02  0.00000000000E+00 0. -1.
         25    1    1    2    0    0  0.00000000000E+00  0.00000000000E+00  0.22334889227E+02  0.12697971207E+03  0.12500000000E+03 0.  0.
<mgrwt>
<rscale>  2 0.12500000E+03</rscale>
<asrwt>0</asrwt>
<pdfrwt beam="1">  1       21 0.11485739E-01 0.12500000E+03</pdfrwt>
<pdfrwt beam="2">  1       21 0.80496018E-02 0.12500000E+03</pdfrwt>
<totfact> 0.73771898E+06</totfact>
</mgrwt>
</event>
<event>
 3    0  0.1703340E+001  0.1250000E+03  0.7546771E-02  0.1235069E+00
         21   -1    0    0  502  501  0.00000000000E+00  0.00000000000E+00  0.27184674824E+02  0.27184674824E+02  0.00000000000E+00 0.  1.
         21   -1    0    0  501  502 -0.00000000000E+00 -0.00000000000E+00 -0.14369309272E+03  0.14369309272E+03  0.00000000000E+00 0.  1.
         25    1    1    2    0    0  0.00000000000E+00  0.00000000000E+00 -0.11650841790E+03  0.17087776754E+03  0.12500000000E+03 0.  0.
<mgrwt>
<rscale>  2 0.12500000E+03</rscale>
<asrwt>0</asrwt>
<pdfrwt beam="1">  1       21 0.41822576E-02 0.12500000E+03</pdfrwt>
<pdfrwt beam="2">  1       21 0.22106630E-01 0.12500000E+03</pdfrwt>
<totfact> 0.68213733E+06</totfact>
</mgrwt>
</event>
<event>
 3    0  0.1368989E+001  0.1250000E+03  0.7546771E-02  0.1235069E+00
         21   -1    0    0  502  501  0.00000000000E+00  0.00000000000E+00  0.30054275735E+01  0.30054275735E+01  0.00000000000E+00 0. -1.
         21   -1    0    0  501  502 -0.00000000000E+00 -0.00000000000E+00 -0.12997318699E+04  0.12997318699E+04  0.00000000000E+00 0. -1.
         25    1    1    2    0    0  0.00000000000E+00  0.00000000000E+00 -0.12967264424E+04  0.13027372975E+04  0.12500000000E+03 0.  0.
<mgrwt>
<rscale>  2 0.12500000E+03</rscale>
<asrwt>0</asrwt>
<pdfrwt beam="1">  1       21 0.46237469E-03 0.12500000E+03</pdfrwt>
<pdfrwt beam="2">  1       21 0.19995822E+00 0.12500000E+03</pdfrwt>
<totfact> 0.17203321E+06</totfact>
</mgrwt>
</event>
<event>
 3    0  0.1619357E+001  0.1250000E+03  0.7546771E-02  0.1235069E+00
         21   -1    0    0  502  501  0.00000000000E+00  0.00000000000E+00  0.17797122840E+02  0.17797122840E+02  0.00000000000E+00 0. -1.
         21   -1    0    0  501  502 -0.00000000000E+00 -0.00000000000E+00 -0.21948772479E+03  0.21948772479E+03  0.00000000000E+00 0. -1.
         25    1    1    2    0    0  0.00000000000E+00  0.00000000000E+00 -0.20169060195E+03  0.23728484763E+03  0.12500000000E+03 0.  0.
<mgrwt>
<rscale>  2 0.12500000E+03</rscale>
<asrwt>0</asrwt>
<pdfrwt beam="1">  1       21 0.27380190E-02 0.12500000E+03</pdfrwt>
<pdfrwt beam="2">  1       21 0.33767341E-01 0.12500000E+03</pdfrwt>
<totfact> 0.61096396E+06</totfact>
</mgrwt>
</event>
<event>
 3    0  0.1731503E+001  0.1250000E+03  0.7546771E-02  0.1235069E+00
         21   -1    0    0  502  501  0.00000000000E+00  0.00000000000E+00  0.47297896561E+02  0.47297896561E+02  0.00000000000E+00 0.  1.
         21   -1    0    0  501  502 -0.00000000000E+00 -0.00000000000E+00 -0.82588239309E+02  0.82588239309E+02  0.00000000000E+00 0.  1.
         25    1    1    2    0    0  0.00000000000E+00  0.00000000000E+00 -0.35290342749E+02  0.12988613587E+03  0.12500000000E+03 0.  0.
<mgrwt>
<rscale>  2 0.12500000E+03</rscale>
<asrwt>0</asrwt>
<pdfrwt beam="1">  1       21 0.72765995E-02 0.12500000E+03</pdfrwt>
<pdfrwt beam="2">  1       21 0.12705883E-01 0.12500000E+03</pdfrwt>
<totfact> 0.73380137E+06</totfact>
</mgrwt>
</event>
<event>
 3    0  0.1530899E+001  0.1250000E+03  0.7546771E-02  0.1235069E+00
         21   -1    0    0  502  501  0.00000000000E+00  0.00000000000E+00  0.93742568665E+01  0.93742568665E+01  0.00000000000E+00 0.  1.
         21   -1    0    0  501  502 -0.00000000000E+00 -0.00000000000E+00 -0.41669969744E+03  0.41669969744E+03  0.00000000000E+00 0.  1.
         25    1    1    2    0    0  0.00000000000E+00  0.00000000000E+00 -0.40732544057E+03  0.42607395431E+03  0.12500000000E+03 0.  0.
<mgrwt>
<rscale>  2 0.12500000E+03</rscale>
<asrwt>0</asrwt>
<pdfrwt beam="1">  1       21 0.14421930E-02 0.12500000E+03</pdfrwt>
<pdfrwt beam="2">  1       21 0.64107662E-01 0.12500000E+03</pdfrwt>
<totfact> 0.46358644E+06</totfact>
</mgrwt>
</event>
<event>
 3    0  0.1676133E+001  0.1250000E+03  0.7546771E-02  0.1235069E+00
         21   -1    0    0  502  501  0.00000000000E+00  0.00000000000E+00  0.22490912762E+02  0.22490912762E+02  0.00000000000E+00 0.  1.
         21   -1    0    0  501  502 -0.00000000000E+00 -0.00000000000E+00 -0.17368125702E+03  0.17368125702E+03  0.00000000000E+00 0.  1.
         25    1    1    2    0    0  0.00000000000E+00  0.00000000000E+00 -0.15119034426E+03  0.19617216978E+03  0.12500000000E+03 0.  0.
<mgrwt>
<rscale>  2 0.12500000E+03</rscale>
<asrwt>0</asrwt>
<pdfrwt beam="1">  1       21 0.34601404E-02 0.12500000E+03</pdfrwt>
<pdfrwt beam="2">  1       21 0.26720194E-01 0.12500000E+03</pdfrwt>
<totfact> 0.65342960E+06</totfact>
</mgrwt>
</event>
<event>
 3    0  0.1454272E+001  0.1250000E+03  0.7546771E-02  0.1235069E+00
         21   -1    0    0  502  501  0.00000000000E+00  0.00000000000E+00  0.79320919972E+01  0.79320919972E+01  0.00000000000E+00 0. -1.
         21   -1    0    0  501  502 -0.00000000000E+00 -0.00000000000E+00 -0.49246150970E+03  0.49246150970E+03  0.00000000000E+00 0. -1.
         25    1    1    2    0    0  0.00000000000E+00  0.00000000000E+00 -0.48452941770E+03  0.50039360169E+03  0.12500000000E+03 0.  0.
<mgrwt>
<rscale>  2 0.12500000E+03</rscale>
<asrwt>0</asrwt>
<pdfrwt beam="1">  1       21 0.12203218E-02 0.12500000E+03</pdfrwt>
<pdfrwt beam="2">  1       21 0.75763309E-01 0.12500000E+03</pdfrwt>
<totfact> 0.42022732E+06</totfact>
</mgrwt>
</event>
<event>
 3    0  0.1650611E+001  0.1250000E+03  0.7546771E-02  0.1235069E+00
         21   -1    0    0  502  501  0.00000000000E+00  0.00000000000E+00  0.18754971681E+03  0.18754971681E+03  0.00000000000E+00 0. -1.
         21   -1    0    0  501  502 -0.00000000000E+00 -0.00000000000E+00 -0.20827810708E+02  0.20827810708E+02  0.00000000000E+00 0. -1.
         25    1    1    2    0    0  0.00000000000E+00  0.00000000000E+00  0.16672190610E+03  0.20837752751E+03  0.12500000000E+03 0.  0.
<mgrwt>
<rscale>  2 0.12500000E+03</rscale>
<asrwt>0</asrwt>
<pdfrwt beam="1">  1       21 0.28853801E-01 0.12500000E+03</pdfrwt>
<pdfrwt beam="2">  1       21 0.32042787E-02 0.12500000E+03</pdfrwt>
<totfact> 0.64030644E+06</totfact>
</mgrwt>
</event>
<event>
 3    0  0.1543448E+001  0.1250000E+03  0.7546771E-02  0.1235069E+00
         21   -1    0    0  502  501  0.00000000000E+00  0.00000000000E+00  0.33913944492E+03  0.33913944492E+03  0.00000000000E+00 0. -1.
         21   -1    0    0  501  502 -0.00000000000E+00 -0.00000000000E+00 -0.11518123470E+02  0.11518123470E+02  0.00000000000E+00 0. -1.
         25    1    1    2    0    0  0.00000000000E+00  0.00000000000E+00  0.32762132145E+03  0.35065756839E+03  0.12500000000E+03 0.  0.
<mgrwt>
<rscale>  2 0.12500000E+03</rscale>
<asrwt>0</asrwt>
<pdfrwt beam="1">  1       21 0.52175292E-01 0.12500000E+03</pdfrwt>
<pdfrwt beam="2">  1       21 0.17720193E-02 0.12500000E+03</pdfrwt>
<totfact> 0.51489909E+06</totfact>
</mgrwt>
</event>
<event>
 3    0  0.1577894E+001  0.1250000E+03  0.7546771E-02  0.1235069E+00
         21   -1    0    0  502  501  0.00000000000E+00  0.00000000000E+00  0.27943304344E+03  0.27943304344E+03  0.00000000000E+00 0. -1.
         21   -1    0    0  501  502 -0.00000000000E+00 -0.00000000000E+00 -0.13979198565E+02  0.13979198565E+02  0.00000000000E+00 0. -1.
         25    1    1    2    0    0  0.00000000000E+00  0.00000000000E+00  0.26545384488E+03  0.29341224201E+03  0.12500000000E+03 0.  0.
<mgrwt>
<rscale>  2 0.12500000E+03</rscale>
<asrwt>0</asrwt>
<pdfrwt beam="1">  1       21 0.42989695E-01 0.12500000E+03</pdfrwt>
<pdfrwt beam="2">  1       21 0.21506461E-02 0.12500000E+03</pdfrwt>
<totfact> 0.56008126E+06</totfact>
</mgrwt>
</event>
<event>
 3    0  0.1687948E+001  0.1250000E+03  0.7546771E-02  0.1235069E+00
         21   -1    0    0  502  501  0.00000000000E+00  0.00000000000E+00  0.12125243560E+03  0.12125243560E+03  0.00000000000E+00 0. -1.
         21   -1    0    0  501  502 -0.00000000000E+00 -0.00000000000E+00 -0.32215847711E+02  0.32215847711E+02  0.00000000000E+00 0. -1.
         25    1    1    2    0    0  0.00000000000E+00  0.00000000000E+00  0.89036587891E+02  0.15346828331E+03  0.12500000000E+03 0.  0.
<mgrwt>
<rscale>  2 0.12500000E+03</rscale>
<asrwt>0</asrwt>
<pdfrwt beam="1">  1       21 0.18654221E-01 0.12500000E+03</pdfrwt>
<pdfrwt beam="2">  1       21 0.49562843E-02 0.12500000E+03</pdfrwt>
<totfact> 0.70326192E+06</totfact>
</mgrwt>
</event>
<event>
 3    0  0.1698711E+001  0.1250000E+03  0.7546771E-02  0.1235069E+00
         21   -1    0    0  502  501  0.00000000000E+00  0.00000000000E+00  0.11176477495E+03  0.11176477495E+03  0.00000000000E+00 0. -1.
         21   -1    0    0  501  502 -0.00000000000E+00 -0.00000000000E+00 -0.34950636295E+02  0.34950636295E+02  0.00000000000E+00 0. -1.
         25    1    1    2    0    0  0.00000000000E+00  0.00000000000E+00  0.76814138660E+02  0.14671541125E+03  0.12500000000E+03 0.  0.
<mgrwt>
<rscale>  2 0.12500000E+03</rscale>
<asrwt>0</asrwt>
<pdfrwt beam="1">  1       21 0.17194581E-01 0.12500000E+03</pdfrwt>
<pdfrwt beam="2">  1       21 0.53770210E-02 0.12500000E+03</pdfrwt>
<totfact> 0.71174286E+06</totfact>
</mgrwt>
</event>
<event>
 3    0  0.1368989E+001  0.1250000E+03  0.7546771E-02  0.1235069E+00
         21   -1    0    0  502  501  0.00000000000E+00  0.00000000000E+00  0.11690410526E+04  0.11690410526E+04  0.00000000000E+00 0.  1.
         21   -1    0    0  501  502 -0.00000000000E+00 -0.00000000000E+00 -0.33414138806E+01  0.33414138806E+01  0.00000000000E+00 0.  1.
         25    1    1    2    0    0  0.00000000000E+00  0.00000000000E+00  0.11656996387E+04  0.11723824664E+04  0.12500000000E+03 0.  0.
<mgrwt>
<rscale>  2 0.12500000E+03</rscale>
<asrwt>0</asrwt>
<pdfrwt beam="1">  1       21 0.17985214E+00 0.12500000E+03</pdfrwt>
<pdfrwt beam="2">  1       21 0.51406461E-03 0.12500000E+03</pdfrwt>
<totfact> 0.19702638E+06</totfact>
</mgrwt>
</event>
<event>
 3    0  0.1678609E+001  0.1250000E+03  0.7546771E-02  0.1235069E+00
         21   -1    0    0  502  501  0.00000000000E+00  0.00000000000E+00  0.17253354464E+03  0.17253354464E+03  0.00000000000E+00 0.  1.
         21   -1    0    0  501  502 -0.00000000000E+00 -0.00000000000E+00 -0.22640524822E+02  0.22640524822E+02  0.00000000000E+00 0.  1.
         25    1    1    2    0    0  0.00000000000E+00  0.00000000000E+00  0.14989301982E+03  0.19517406946E+03  0.12500000000E+03 0.  0.
<mgrwt>
<rscale>  2 0.12500000E+03</rscale>
<asrwt>0</asrwt>
<pdfrwt beam="1">  1       21 0.26543621E-01 0.12500000E+03</pdfrwt>
<pdfrwt beam="2">  1       21 0.34831578E-02 0.12500000E+03</pdfrwt>
<totfact> 0.65451977E+06</totfact>
</mgrwt>
</event>
<event>
 3    0  0.1687496E+001  0.1250000E+03  0.7546771E-02  0.1235069E+00
         21   -1    0    0  502  501  0.00000000000E+00  0.00000000000E+00  0.11036599038E+03  0.11036599038E+03  0.00000000000E+00 0. -1.
         21   -1    0    0  501  502 -0.00000000000E+00 -0.00000000000E+00 -0.35393602563E+02  0.35393602563E+02  0.00000000000E+00 0. -1.
         25    1    1    2    0    0  0.00000000000E+00  0.00000000000E+00  0.74972387819E+02  0.14575959294E+03  0.12500000000E+03 0.  0.
<mgrwt>
<rscale>  2 0.12500000E+03</rscale>
<asrwt>0</asrwt>
<pdfrwt beam="1">  1       21 0.16979383E-01 0.12500000E+03</pdfrwt>
<pdfrwt beam="2">  1       21 0.54451696E-02 0.12500000E+03</pdfrwt>
<totfact> 0.71296031E+06</totfact>
</mgrwt>
</event>
<event>
 3    0  0.1732448E+001  0.1250000E+03  0.7546771E-02  0.1235069E+00
         21   -1    0    0  502  501  0.00000000000E+00  0.00000000000E+00  0.89054964762E+02  0.89054964762E+02  0.00000000000E+00 0.  1.
         21   -1    0    0  501  502 -0.00000000000E+00 -0.00000000000E+00 -0.43863360234E+02  0.43863360234E+02  0.00000000000E+00 0.  1.
         25    1    1    2    0    0  0.00000000000E+00  0.00000000000E+00  0.45191604528E+02  0.13291832500E+03  0.12500000000E+03 0.  0.
<mgrwt>
<rscale>  2 0.12500000E+03</rscale>
<asrwt>0</asrwt>
<pdfrwt beam="1">  1       21 0.13700764E-01 0.12500000E+03</pdfrwt>
<pdfrwt beam="2">  1       21 0.67482093E-02 0.12500000E+03</pdfrwt>
<totfact> 0.72973307E+06</totfact>
</mgrwt>
</event>
<event>
 3    0  0.1408436E+001  0.1250000E+03  0.7546771E-02  0.1235069E+00
         21   -1    0    0  502  501  0.00000000000E+00  0.00000000000E+00  0.62572441779E+03  0.62572441779E+03  0.00000000000E+00 0. -1.
         21   -1    0    0  501  502 -0.00000000000E+00 -0.00000000000E+00 -0.62427642089E+01  0.62427642089E+01  0.00000000000E+00 0. -1.
         25    1    1    2    0    0  0.00000000000E+00  0.00000000000E+00  0.61948165358E+03  0.63196718200E+03  0.12500000000E+03 0.  0.
<mgrwt>
<rscale>  2 0.12500000E+03</rscale>
<asrwt>0</asrwt>
<pdfrwt beam="1">  1       21 0.96265246E-01 0.12500000E+03</pdfrwt>
<pdfrwt beam="2">  1       21 0.96042576E-03 0.12500000E+03</pdfrwt>
<totfact> 0.35685743E+06</totfact>
</mgrwt>
</event>
<event>
 3    0  0.1368989E+001  0.1250000E+03  0.7546771E-02  0.1235069E+00
         21   -1    0    0  502  501  0.00000000000E+00  0.00000000000E+00  0.28118881914E+01  0.28118881914E+01  0.00000000000E+00 0. -1.
         21   -1    0    0  501  502 -0.00000000000E+00 -0.00000000000E+00 -0.13891910823E+04  0.13891910823E+04  0.00000000000E+00 0. -1.
         25    1    1    2    0    0  0.00000000000E+00  0.00000000000E+00 -0.13863791941E+04  0.13920029705E+04  0.12500000000E+03 0.  0.
<mgrwt>
<rscale>  2 0.12500000E+03</rscale>
<asrwt>0</asrwt>
<pdfrwt beam="1">  1       21 0.43259785E-03 0.12500000E+03</pdfrwt>
<pdfrwt beam="2">  1       21 0.21372187E+00 0.12500000E+03</pdfrwt>
<totfact> 0.15675429E+06</totfact>
</mgrwt>
</event>
<event>
 3    0  0.1660638E+001  0.1250000E+03  0.7546771E-02  0.1235069E+00
         21   -1    0    0  502  501  0.00000000000E+00  0.00000000000E+00  0.25310737583E+02  0.25310737583E+02  0.00000000000E+00 0. -1.
         21   -1    0    0  501  502 -0.00000000000E+00 -0.00000000000E+00 -0.15433173321E+03  0.15433173321E+03  0.00000000000E+00 0. -1.
         25    1    1    2    0    0  0.00000000000E+00  0.00000000000E+00 -0.12902099562E+03  0.17964247079E+03  0.12500000000E+03 0.  0.
<mgrwt>
<rscale>  2 0.12500000E+03</rscale>
<asrwt>0</asrwt>
<pdfrwt beam="1">  1       21 0.38939597E-02 0.12500000E+03</pdfrwt>
<pdfrwt beam="2">  1       21 0.23743343E-01 0.12500000E+03</pdfrwt>
<totfact> 0.67192575E+06</totfact>
</mgrwt>
</event>
<event>
 3    0  0.1700947E+001  0.1250000E+03  0.7546771E-02  0.1235069E+00
         21   -1    0    0  502  501  0.00000000000E+00  0.00000000000E+00  0.42100635875E+02  0.42100635875E+02  0.00000000000E+00 0. -1.
         21   -1    0    0  501  502 -0.00000000000E+00 -0.00000000000E+00 -0.92783634233E+02  0.92783634233E+02  0.00000000000E+00 0. -1.
         25    1    1    2    0    0  0.00000000000E+00  0.00000000000E+00 -0.50682998358E+02  0.13488427011E+03  0.12500000000E+03 0.  0.
<mgrwt>
<rscale>  2 0.12500000E+03</rscale>
<asrwt>0</asrwt>
<pdfrwt beam="1">  1       21 0.64770209E-02 0.12500000E+03</pdfrwt>
<pdfrwt beam="2">  1       21 0.14274405E-01 0.12500000E+03</pdfrwt>
<totfact> 0.72711799E+06</totfact>
</mgrwt>
</event>
<event>
 3    0  0.1699354E+001  0.1250000E+03  0.7546771E-02  0.1235069E+00
         21   -1    0    0  502  501  0.00000000000E+00  0.00000000000E+00  0.35127167937E+02  0.35127167937E+02  0.00000000000E+00 0. -1.
         21   -1    0    0  501  502 -0.00000000000E+00 -0.00000000000E+00 -0.11120310089E+03  0.11120310089E+03  0.00000000000E+00 0. -1.
         25    1    1    2    0    0  0.00000000000E+00  0.00000000000E+00 -0.76075932950E+02  0.14633026882E+03  0.12500000000E+03 0.  0.
<mgrwt>
<rscale>  2 0.12500000E+03</rscale>
<asrwt>0</asrwt>
<pdfrwt beam="1">  1       21 0.54041798E-02 0.12500000E+03</pdfrwt>
<pdfrwt beam="2">  1       21 0.17108169E-01 0.12500000E+03</pdfrwt>
<totfact> 0.71223290E+06</totfact>
</mgrwt>
</event>
<event>
 3    0  0.1718101E+001  0.1250000E+03  0.7546771E-02  0.1235069E+00
         21   -1    0    0  502  501  0.00000000000E+00  0.00000000000E+00  0.10434936235E+03  0.10434936235E+03  0.00000000000E+00 0.  1.
         21   -1    0    0  501  502 -0.00000000000E+00 -0.00000000000E+00 -0.37434344707E+02  0.37434344707E+02  0.00000000000E+00 0.  1.
         25    1    1    2    0    0  0.00000000000E+00  0.00000000000E+00  0.66915017639E+02  0.14178370705E+03  0.12500000000E+03 0.  0.
<mgrwt>
<rscale>  2 0.12500000E+03</rscale>
<asrwt>0</asrwt>
<pdfrwt beam="1">  1       21 0.16053748E-01 0.12500000E+03</pdfrwt>
<pdfrwt beam="2">  1       21 0.57591300E-02 0.12500000E+03</pdfrwt>
<totfact> 0.71807296E+06</totfact>
</mgrwt>
</event>
<event>
 3    0  0.1641151E+001  0.1250000E+03  0.7546771E-02  0.1235069E+00
         21   -1    0    0  502  501  0.00000000000E+00  0.00000000000E+00  0.18395633854E+03  0.18395633854E+03  0.00000000000E+00 0. -1.
         21   -1    0    0  501  502 -0.00000000000E+00 -0.00000000000E+00 -0.21234658349E+02  0.21234658349E+02  0.00000000000E+00 0. -1.
         25    1    1    2    0    0  0.00000000000E+00  0.00000000000E+00  0.16272168019E+03  0.20519099689E+03  0.12500000000E+03 0.  0.
<mgrwt>
<rscale>  2 0.12500000E+03</rscale>
<asrwt>0</asrwt>
<pdfrwt beam="1">  1       21 0.28300974E-01 0.12500000E+03</pdfrwt>
<pdfrwt beam="2">  1       21 0.32668706E-02 0.12500000E+03</pdfrwt>
<totfact> 0.64369077E+06</totfact>
</mgrwt>
</event>
<event>
 3    0  0.1368989E+001  0.1250000E+03  0.7546771E-02  0.1235069E+00
         21   -1    0    0  502  501  0.00000000000E+00  0.00000000000E+00  0.85740757284E+03  0.85740757284E+03  0.00000000000E+00 0.  1.
         21   -1    0    0  501  502 -0.00000000000E+00 -0.00000000000E+00 -0.45558846501E+01  0.45558846501E+01  0.00000000000E+00 0.  1.
         25    1    1    2    0    0  0.00000000000E+00  0.00000000000E+00  0.85285168819E+03  0.86196345749E+03  0.12500000000E+03 0.  0.
<mgrwt>
<rscale>  2 0.12500000E+03</rscale>
<asrwt>0</asrwt>
<pdfrwt beam="1">  1       21 0.13190873E+00 0.12500000E+03</pdfrwt>
<pdfrwt beam="2">  1       21 0.70090601E-03 0.12500000E+03</pdfrwt>
<totfact> 0.27409730E+06</totfact>
</mgrwt>
</event>
<event>
 3    0  0.1537534E+001  0.1250000E+03  0.7546771E-02  0.1235069E+00
         21   -1    0    0  502  501  0.00000000000E+00  0.00000000000E+00  0.41323323035E+03  0.41323323035E+03  0.00000000000E+00 0.  1.
         21   -1    0    0  501  502 -0.00000000000E+00 -0.00000000000E+00 -0.94528941844E+01  0.94528941844E+01  0.00000000000E+00 0.  1.
         25    1    1    2    0    0  0.00000000000E+00  0.00000000000E+00  0.40378033617E+03  0.42268612454E+03  0.12500000000E+03 0.  0.
<mgrwt>
<rscale>  2 0.12500000E+03</rscale>
<asrwt>0</asrwt>
<pdfrwt beam="1">  1       21 0.63574329E-01 0.12500000E+03</pdfrwt>
<pdfrwt beam="2">  1       21 0.14542917E-02 0.12500000E+03</pdfrwt>
<totfact> 0.46572134E+06</totfact>
</mgrwt>
</event>
<event>
 3    0  0.1694720E+001  0.1250000E+03  0.7546771E-02  0.1235069E+00
         21   -1    0    0  502  501  0.00000000000E+00  0.00000000000E+00  0.36555099789E+02  0.36555099789E+02  0.00000000000E+00 0. -1.
         21   -1    0    0  501  502 -0.00000000000E+00 -0.00000000000E+00 -0.10685923503E+03  0.10685923503E+03  0.00000000000E+00 0. -1.
         25    1    1    2    0    0  0.00000000000E+00  0.00000000000E+00 -0.70304135243E+02  0.14341433482E+03  0.12500000000E+03 0.  0.
<mgrwt>
<rscale>  2 0.12500000E+03</rscale>
<asrwt>0</asrwt>
<pdfrwt beam="1">  1       21 0.56238615E-02 0.12500000E+03</pdfrwt>
<pdfrwt beam="2">  1       21 0.16439882E-01 0.12500000E+03</pdfrwt>
<totfact> 0.71596648E+06</totfact>
</mgrwt>
</event>
<event>
 3    0  0.1665000E+001  0.1250000E+03  0.7546771E-02  0.1235069E+00
         21   -1    0    0  502  501  0.00000000000E+00  0.00000000000E+00  0.15211918470E+03  0.15211918470E+03  0.00000000000E+00 0. -1.
         21   -1    0    0  501  502 -0.00000000000E+00 -0.00000000000E+00 -0.25678878097E+02  0.25678878097E+02  0.00000000000E+00 0. -1.
         25    1    1    2    0    0  0.00000000000E+00  0.00000000000E+00  0.12644030660E+03  0.17779806279E+03  0.12500000000E+03 0.  0.
<mgrwt>
<rscale>  2 0.12500000E+03</rscale>
<asrwt>0</asrwt>
<pdfrwt beam="1">  1       21 0.23402951E-01 0.12500000E+03</pdfrwt>
<pdfrwt beam="2">  1       21 0.39505967E-02 0.12500000E+03</pdfrwt>
<totfact> 0.67405038E+06</totfact>
</mgrwt>
</event>
<event>
 3    0  0.1380757E+001  0.1250000E+03  0.7546771E-02  0.1235069E+00
         21   -1    0    0  502  501  0.00000000000E+00  0.00000000000E+00  0.57077921980E+01  0.57077921980E+01  0.00000000000E+00 0. -1.
         21   -1    0    0  501  502 -0.00000000000E+00 -0.00000000000E+00 -0.68437144599E+03  0.68437144599E+03  0.00000000000E+00 0. -1.
         25    1    1    2    0    0  0.00000000000E+00  0.00000000000E+00 -0.67866365379E+03  0.69007923819E+03  0.12500000000E+03 0.  0.
<mgrwt>
<rscale>  2 0.12500000E+03</rscale>
<asrwt>0</asrwt>
<pdfrwt beam="1">  1       21 0.87812183E-03 0.12500000E+03</pdfrwt>
<pdfrwt beam="2">  1       21 0.10528792E+00 0.12500000E+03</pdfrwt>
<totfact> 0.33296140E+06</totfact>
</mgrwt>
</event>
<event>
 3    0  0.1674118E+001  0.1250000E+03  0.7546771E-02  0.1235069E+00
         21   -1    0    0  502  501  0.00000000000E+00  0.00000000000E+00  0.19758420573E+02  0.19758420573E+02  0.00000000000E+00 0.  1.
         21   -1    0    0  501  502 -0.00000000000E+00 -0.00000000000E+00 -0.19770051890E+03  0.19770051890E+03  0.00000000000E+00 0.  1.
         25    1    1    2    0    0  0.00000000000E+00  0.00000000000E+00 -0.17794209833E+03  0.21745893948E+03  0.12500000000E+03 0.  0.
<mgrwt>
<rscale>  2 0.12500000E+03</rscale>
<asrwt>0</asrwt>
<pdfrwt beam="1">  1       21 0.30397570E-02 0.12500000E+03</pdfrwt>
<pdfrwt beam="2">  1       21 0.30415464E-01 0.12500000E+03</pdfrwt>
<totfact> 0.63083214E+06</totfact>
</mgrwt>
</event>
<event>
 3    0  0.1686711E+001  0.1250000E+03  0.7546771E-02  0.1235069E+00
         21   -1    0    0  502  501  0.00000000000E+00  0.00000000000E+00  0.29877272027E+02  0.29877272027E+02  0.00000000000E+00 0. -1.
         21   -1    0    0  501  502 -0.00000000000E+00 -0.00000000000E+00 -0.13074319491E+03  0.13074319491E+03  0.00000000000E+00 0. -1.
         25    1    1    2    0    0  0.00000000000E+00  0.00000000000E+00 -0.10086592288E+03  0.16062046694E+03  0.12500000000E+03 0.  0.
<mgrwt>
<rscale>  2 0.12500000E+03</rscale>
<asrwt>0</asrwt>
<pdfrwt beam="1">  1       21 0.45965034E-02 0.12500000E+03</pdfrwt>
<pdfrwt beam="2">  1       21 0.20114338E-01 0.12500000E+03</pdfrwt>
<totfact> 0.69443761E+06</totfact>
</mgrwt>
</event>
<event>
 3    0  0.1626186E+001  0.1250000E+03  0.7546771E-02  0.1235069E+00
         21   -1    0    0  502  501  0.00000000000E+00  0.00000000000E+00  0.18032813615E+02  0.18032813615E+02  0.00000000000E+00 0. -1.
         21   -1    0    0  501  502 -0.00000000000E+00 -0.00000000000E+00 -0.21661899709E+03  0.21661899709E+03  0.00000000000E+00 0. -1.
         25    1    1    2    0    0  0.00000000000E+00  0.00000000000E+00 -0.19858618348E+03  0.23465181071E+03  0.12500000000E+03 0.  0.
<mgrwt>
<rscale>  2 0.12500000E+03</rscale>
<asrwt>0</asrwt>
<pdfrwt beam="1">  1       21 0.27742789E-02 0.12500000E+03</pdfrwt>
<pdfrwt beam="2">  1       21 0.33326001E-01 0.12500000E+03</pdfrwt>
<totfact> 0.61354066E+06</totfact>
</mgrwt>
</event>
<event>
 3    0  0.1547815E+001  0.1250000E+03  0.7546771E-02  0.1235069E+00
         21   -1    0    0  502  501  0.00000000000E+00  0.00000000000E+00  0.34748619252E+03  0.34748619252E+03  0.00000000000E+00 0.  1.
         21   -1    0    0  501  502 -0.00000000000E+00 -0.00000000000E+00 -0.11241453860E+02  0.11241453860E+02  0.00000000000E+00 0.  1.
         25    1    1    2    0    0  0.00000000000E+00  0.00000000000E+00  0.33624473866E+03  0.35872764638E+03  0.12500000000E+03 0.  0.
<mgrwt>
<rscale>  2 0.12500000E+03</rscale>
<asrwt>0</asrwt>
<pdfrwt beam="1">  1       21 0.53459406E-01 0.12500000E+03</pdfrwt>
<pdfrwt beam="2">  1       21 0.17294547E-02 0.12500000E+03</pdfrwt>
<totfact> 0.50900263E+06</totfact>
</mgrwt>
</event>
<event>
 3    0  0.1368989E+001  0.1250000E+03  0.7546771E-02  0.1235069E+00
         21   -1    0    0  502  501  0.00000000000E+00  0.00000000000E+00  0.27669128119E+01  0.27669128119E+01  0.00000000000E+00 0. -1.
         21   -1    0    0  501  502 -0.00000000000E+00 -0.00000000000E+00 -0.14117719876E+04  0.14117719876E+04  0.00000000000E+00 0. -1.
         25    1    1    2    0    0  0.00000000000E+00  0.00000000000E+00 -0.14090050748E+04  0.14145389004E+04  0.12500000000E+03 0.  0.
<mgrwt>
<rscale>  2 0.12500000E+03</rscale>
<asrwt>0</asrwt>
<pdfrwt beam="1">  1       21 0.42567964E-03 0.12500000E+03</pdfrwt>
<pdfrwt beam="2">  1       21 0.21719531E+00 0.12500000E+03</pdfrwt>
<totfact> 0.15309879E+06</totfact>
</mgrwt>
</event>
<event>
 3    0  0.1525177E+001  0.1250000E+03  0.7546771E-02  0.1235069E+00
         21   -1    0    0  502  501  0.00000000000E+00  0.00000000000E+00  0.93110038319E+01  0.93110038319E+01  0.00000000000E+00 0.  1.
         21   -1    0    0  501  502 -0.00000000000E+00 -0.00000000000E+00 -0.41953049000E+03  0.41953049000E+03  0.00000000000E+00 0.  1.
         25    1    1    2    0    0  0.00000000000E+00  0.00000000000E+00 -0.41021948617E+03  0.42884149383E+03  0.12500000000E+03 0.  0.
<mgrwt>
<rscale>  2 0.12500000E+03</rscale>
<asrwt>0</asrwt>
<pdfrwt beam="1">  1       21 0.14324623E-02 0.12500000E+03</pdfrwt>
<pdfrwt beam="2">  1       21 0.64543145E-01 0.12500000E+03</pdfrwt>
<totfact> 0.46185369E+06</totfact>
</mgrwt>
</event>
<event>
 3    0  0.1368989E+001  0.1250000E+03  0.7546771E-02  0.1235069E+00
         21   -1    0    0  502  501  0.00000000000E+00  0.00000000000E+00  0.45110278466E+01  0.45110278466E+01  0.00000000000E+00 0. -1.
         21   -1    0    0  501  502 -0.00000000000E+00 -0.00000000000E+00 -0.86593347078E+03  0.86593347078E+03  0.00000000000E+00 0. -1.
         25    1    1    2    0    0  0.00000000000E+00  0.00000000000E+00 -0.86142244294E+03  0.87044449863E+03  0.12500000000E+03 0.  0.
<mgrwt>
<rscale>  2 0.12500000E+03</rscale>
<asrwt>0</asrwt>
<pdfrwt beam="1">  1       21 0.69400464E-03 0.12500000E+03</pdfrwt>
<pdfrwt beam="2">  1       21 0.13322047E+00 0.12500000E+03</pdfrwt>
<totfact> 0.27157189E+06</totfact>
</mgrwt>
</event>
<event>
 3    0  0.1585070E+001  0.1250000E+03  0.7546771E-02  0.1235069E+00
         21   -1    0    0  502  501  0.00000000000E+00  0.00000000000E+00  0.11032935242E+02  0.11032935242E+02  0.00000000000E+00 0.  1.
         21   -1    0    0  501  502 -0.00000000000E+00 -0.00000000000E+00 -0.35405356003E+03  0.35405356003E+03  0.00000000000E+00 0.  1.
         25    1    1    2    0    0  0.00000000000E+00  0.00000000000E+00 -0.34302062479E+03  0.36508649527E+03  0.12500000000E+03 0.  0.
<mgrwt>
<rscale>  2 0.12500000E+03</rscale>
<asrwt>0</asrwt>
<pdfrwt beam="1">  1       21 0.16973745E-02 0.12500000E+03</pdfrwt>
<pdfrwt beam="2">  1       21 0.54469783E-01 0.12500000E+03</pdfrwt>
<totfact> 0.50443186E+06</totfact>
</mgrwt>
</event>
<event>
 3    0  0.1690852E+001  0.1250000E+03  0.7546771E-02  0.1235069E+00
         21   -1    0    0  502  501  0.00000000000E+00  0.00000000000E+00  0.11549636193E+03  0.11549636193E+03  0.00000000000E+00 0. -1.
         21   -1    0    0  501  502 -0.00000000000E+00 -0.00000000000E+00 -0.33821411641E+02  0.33821411641E+02  0.00000000000E+00 0. -1.
         25    1    1    2    0    0  0.00000000000E+00  0.00000000000E+00  0.81674950293E+02  0.14931777357E+03  0.12500000000E+03 0.  0.
<mgrwt>
<rscale>  2 0.12500000E+03</rscale>
<asrwt>0</asrwt>
<pdfrwt beam="1">  1       21 0.17768671E-01 0.12500000E+03</pdfrwt>
<pdfrwt beam="2">  1       21 0.52032941E-02 0.12500000E+03</pdfrwt>
<totfact> 0.70845006E+06</totfact>
</mgrwt>
</event>
<event>
 3    0  0.1663896E+001  0.1250000E+03  0.7546771E-02  0.1235069E+00
         21   -1    0    0  502  501  0.00000000000E+00  0.00000000000E+00  0.15258457099E+03  0.15258457099E+03  0.00000000000E+00 0. -1.
         21   -1    0    0  501  502 -0.00000000000E+00 -0.00000000000E+00 -0.25600556955E+02  0.25600556955E+02  0.00000000000E+00 0. -1.
         25    1    1    2    0    0  0.00000000000E+00  0.00000000000E+00  0.12698401403E+03  0.17818512794E+03  0.12500000000E+03 0.  0.
<mgrwt>
<rscale>  2 0.12500000E+03</rscale>
<asrwt>0</asrwt>
<pdfrwt beam="1">  1       21 0.23474549E-01 0.12500000E+03</pdfrwt>
<pdfrwt beam="2">  1       21 0.39385473E-02 0.12500000E+03</pdfrwt>
<totfact> 0.67360345E+06</totfact>
</mgrwt>
</event>
<event>
 3    0  0.1737050E+001  0.1250000E+03  0.7546771E-02  0.1235069E+00
         21   -1    0    0  502  501  0.00000000000E+00  0.00000000000E+00  0.61817724405E+02  0.61817724405E+02  0.00000000000E+00 0.  1.
         21   -1    0    0  501  502 -0.00000000000E+00 -0.00000000000E+00 -0.63189805798E+02  0.63189805798E+02  0.00000000000E+00 0.  1.
         25    1    1    2    0    0  0.00000000000E+00  0.00000000000E+00 -0.13720813925E+01  0.12500753020E+03  0.12500000000E+03 0.  0.
<mgrwt>
<rscale>  2 0.12500000E+03</rscale>
<asrwt>0</asrwt>
<pdfrwt beam="1">  1       21 0.95104191E-02 0.12500000E+03</pdfrwt>
<pdfrwt beam="2">  1       21 0.97215086E-02 0.12500000E+03</pdfrwt>
<totfact> 0.74042564E+06</totfact>
</mgrwt>
</event>
<event>
 3    0  0.1676804E+001  0.1250000E+03  0.7546771E-02  0.1235069E+00
         21   -1    0    0  502  501  0.00000000000E+00  0.00000000000E+00  0.14409474750E+03  0.14409474750E+03  0.00000000000E+00 0. -1.
         21   -1    0    0  501  502 -0.00000000000E+00 -0.00000000000E+00 -0.27108899302E+02  0.27108899302E+02  0.00000000000E+00 0. -1.
         25    1    1    2    0    0  0.00000000000E+00  0.00000000000E+00  0.11698584820E+03  0.17120364680E+03  0.12500000000E+03 0.  0.
<mgrwt>
<rscale>  2 0.12500000E+03</rscale>
<asrwt>0</asrwt>
<pdfrwt beam="1">  1       21 0.22168422E-01 0.12500000E+03</pdfrwt>
<pdfrwt beam="2">  1       21 0.41705999E-02 0.12500000E+03</pdfrwt>
<totfact> 0.68175236E+06</totfact>
</mgrwt>
</event>
<event>
 3    0  0.1368989E+001  0.1250000E+03  0.7546771E-02  0.1235069E+00
         21   -1    0    0  502  501  0.00000000000E+00  0.00000000000E+00  0.79924620463E+03  0.79924620463E+03  0.00000000000E+00 0.  1.
         21   -1    0    0  501  502 -0.00000000000E+00 -0.00000000000E+00 -0.48874176410E+01  0.48874176410E+01  0.00000000000E+00 0.  1.
         25    1    1    2    0    0  0.00000000000E+00  0.00000000000E+00  0.79435878699E+03  0.80413362227E+03  0.12500000000E+03 0.  0.
<mgrwt>
<rscale>  2 0.12500000E+03</rscale>
<asrwt>0</asrwt>
<pdfrwt beam="1">  1       21 0.12296085E+00 0.12500000E+03</pdfrwt>
<pdfrwt beam="2">  1       21 0.75191104E-03 0.12500000E+03</pdfrwt>
<totfact> 0.29226335E+06</totfact>
</mgrwt>
</event>
<event>
 3    0  0.1493433E+001  0.1250000E+03  0.7546771E-02  0.1235069E+00
         21   -1    0    0  502  501  0.00000000000E+00  0.00000000000E+00  0.40371899441E+03  0.40371899441E+03  0.00000000000E+00 0. -1.
         21   -1    0    0  501  502 -0.00000000000E+00 -0.00000000000E+00 -0.96756656339E+01  0.96756656339E+01  0.00000000000E+00 0. -1.
         25    1    1    2    0    0  0.00000000000E+00  0.00000000000E+00  0.39404332878E+03  0.41339466005E+03  0.12500000000E+03 0.  0.
<mgrwt>
<rscale>  2 0.12500000E+03</rscale>
<asrwt>0</asrwt>
<pdfrwt beam="1">  1       21 0.62110601E-01 0.12500000E+03</pdfrwt>
<pdfrwt beam="2">  1       21 0.14885643E-02 0.12500000E+03</pdfrwt>
<totfact> 0.47165411E+06</totfact>
</mgrwt>
</event>
<event>
 3    0  0.1368989E+001  0.1250000E+03  0.7546771E-02  0.1235069E+00
         21   -1    0    0  502  501  0.00000000000E+00  0.00000000000E+00  0.90169802556E+03  0.90169802556E+03  0.00000000000E+00 0.  1.
         21   -1    0    0  501  502 -0.00000000000E+00 -0.00000000000E+00 -0.43321044177E+01  0.43321044177E+01  0.00000000000E+00 0.  1.
         25    1    1    2    0    0  0.00000000000E+00  0.00000000000E+00  0.89736592114E+03  0.90603012998E+03  0.12500000000E+03 0.  0.
<mgrwt>
<rscale>  2 0.12500000E+03</rscale>
<asrwt>0</asrwt>
<pdfrwt beam="1">  1       21 0.13872262E+00 0.12500000E+03</pdfrwt>
<pdfrwt beam="2">  1       21 0.66647832E-03 0.12500000E+03</pdfrwt>
<totfact> 0.26126497E+06</totfact>
</mgrwt>
</event>
<event>
 3    0  0.1707219E+001  0.1250000E+03  0.7546771E-02  0.1235069E+00
         21   -1    0    0  502  501  0.00000000000E+00  0.00000000000E+00  0.47459789313E+02  0.47459789313E+02  0.00000000000E+00 0. -1.
         21   -1    0    0  501  502 -0.00000000000E+00 -0.00000000000E+00 -0.82306517928E+02  0.82306517928E+02  0.00000000000E+00 0. -1.
         25    1    1    2    0    0  0.00000000000E+00  0.00000000000E+00 -0.34846728615E+02  0.12976630724E+03  0.12500000000E+03 0.  0.
<mgrwt>
<rscale>  2 0.12500000E+03</rscale>
<asrwt>0</asrwt>
<pdfrwt beam="1">  1       21 0.73015061E-02 0.12500000E+03</pdfrwt>
<pdfrwt beam="2">  1       21 0.12662541E-01 0.12500000E+03</pdfrwt>
<totfact> 0.73396164E+06</totfact>
</mgrwt>
</event>
<event>
 3    0  0.1636205E+001  0.1250000E+03  0.7546771E-02  0.1235069E+00
         21   -1    0    0  502  501  0.00000000000E+00  0.00000000000E+00  0.25505135485E+03  0.25505135485E+03  0.00000000000E+00 0.  1.
         21   -1    0    0  501  502 -0.00000000000E+00 -0.00000000000E+00 -0.15315543030E+02  0.15315543030E+02  0.00000000000E+00 0.  1.
         25    1    1    2    0    0  0.00000000000E+00  0.00000000000E+00  0.23973581182E+03  0.27036689788E+03  0.12500000000E+03 0.  0.
<mgrwt>
<rscale>  2 0.12500000E+03</rscale>
<asrwt>0</asrwt>
<pdfrwt beam="1">  1       21 0.39238667E-01 0.12500000E+03</pdfrwt>
<pdfrwt beam="2">  1       21 0.23562376E-02 0.12500000E+03</pdfrwt>
<totfact> 0.58011923E+06</totfact>
</mgrwt>
</event>
<event>
 3    0  0.1669654E+001  0.1250000E+03  0.7546771E-02  0.1235069E+00
         21   -1    0    0  502  501  0.00000000000E+00  0.00000000000E+00  0.16632682174E+03  0.16632682174E+03  0.00000000000E+00 0. -1.
         21   -1    0    0  501  502 -0.00000000000E+00 -0.00000000000E+00 -0.23485388341E+02  0.23485388341E+02  0.00000000000E+00 0. -1.
         25    1    1    2    0    0  0.00000000000E+00  0.00000000000E+00  0.14284143340E+03  0.18981221008E+03  0.12500000000E+03 0.  0.
<mgrwt>
<rscale>  2 0.12500000E+03</rscale>
<asrwt>0</asrwt>
<pdfrwt beam="1">  1       21 0.25588741E-01 0.12500000E+03</pdfrwt>
<pdfrwt beam="2">  1       21 0.36131368E-02 0.12500000E+03</pdfrwt>
<totfact> 0.66043341E+06</totfact>
</mgrwt>
</event>
<event>
 3    0  0.1652461E+001  0.1250000E+03  0.7546771E-02  0.1235069E+00
         21   -1    0    0  502  501  0.00000000000E+00  0.00000000000E+00  0.17455102517E+02  0.17455102517E+02  0.00000000000E+00 0.  1.
         21   -1    0    0  501  502 -0.00000000000E+00 -0.00000000000E+00 -0.22378843070E+03  0.22378843070E+03  0.00000000000E+00 0.  1.
         25    1    1    2    0    0  0.00000000000E+00  0.00000000000E+00 -0.20633332818E+03  0.24124353322E+03  0.12500000000E+03 0.  0.
<mgrwt>
<rscale>  2 0.12500000E+03</rscale>
<asrwt>0</asrwt>
<pdfrwt beam="1">  1       21 0.26854005E-02 0.12500000E+03</pdfrwt>
<pdfrwt beam="2">  1       21 0.34428987E-01 0.12500000E+03</pdfrwt>
<totfact> 0.60712537E+06</totfact>
</mgrwt>
</event>
<event>
 3    0  0.1586464E+001  0.1250000E+03  0.7546771E-02  0.1235069E+00
         21   -1    0    0  502  501  0.00000000000E+00  0.00000000000E+00  0.13660652995E+02  0.13660652995E+02  0.00000000000E+00 0.  1.
         21   -1    0    0  501  502 -0.00000000000E+00 -0.00000000000E+00 -0.28594899537E+03  0.28594899537E+03  0.00000000000E+00 0.  1.
         25    1    1    2    0    0  0.00000000000E+00  0.00000000000E+00 -0.27228834238E+03  0.29960964837E+03  0.12500000000E+03 0.  0.
<mgrwt>
<rscale>  2 0.12500000E+03</rscale>
<asrwt>0</asrwt>
<pdfrwt beam="1">  1       21 0.21016390E-02 0.12500000E+03</pdfrwt>
<pdfrwt beam="2">  1       21 0.43992151E-01 0.12500000E+03</pdfrwt>
<totfact> 0.55488630E+06</totfact>
</mgrwt>
</event>
<event>
 3    0  0.1700561E+001  0.1250000E+03  0.7546771E-02  0.1235069E+00
         21   -1    0    0  502  501  0.00000000000E+00  0.00000000000E+00  0.98013363230E+02  0.98013363230E+02  0.00000000000E+00 0. -1.
         21   -1    0    0  501  502 -0.00000000000E+00 -0.00000000000E+00 -0.39854259371E+02  0.39854259371E+02  0.00000000000E+00 0. -1.
         25    1    1    2    0    0  0.00000000000E+00  0.00000000000E+00  0.58159103859E+02  0.13786762260E+03  0.12500000000E+03 0.  0.
<mgrwt>
<rscale>  2 0.12500000E+03</rscale>
<asrwt>0</asrwt>
<pdfrwt beam="1">  1       21 0.15078979E-01 0.12500000E+03</pdfrwt>
<pdfrwt beam="2">  1       21 0.61314245E-02 0.12500000E+03</pdfrwt>
<totfact> 0.72318923E+06</totfact>
</mgrwt>
</event>
<event>
 3    0  0.1640858E+001  0.1250000E+03  0.7546771E-02  0.1235069E+00
         21   -1    0    0  502  501  0.00000000000E+00  0.00000000000E+00  0.19158631053E+03  0.19158631053E+03  0.00000000000E+00 0. -1.
         21   -1    0    0  501  502 -0.00000000000E+00 -0.00000000000E+00 -0.20388982851E+02  0.20388982851E+02  0.00000000000E+00 0. -1.
         25    1    1    2    0    0  0.00000000000E+00  0.00000000000E+00  0.17119732768E+03  0.21197529338E+03  0.12500000000E+03 0.  0.
<mgrwt>
<rscale>  2 0.12500000E+03</rscale>
<asrwt>0</asrwt>
<pdfrwt beam="1">  1       21 0.29474816E-01 0.12500000E+03</pdfrwt>
<pdfrwt beam="2">  1       21 0.31367667E-02 0.12500000E+03</pdfrwt>
<totfact> 0.63652310E+06</totfact>
</mgrwt>
</event>
<event>
 3    0  0.1368989E+001  0.1250000E+03  0.7546771E-02  0.1235069E+00
         21   -1    0    0  502  501  0.00000000000E+00  0.00000000000E+00  0.14473900462E+04  0.14473900462E+04  0.00000000000E+00 0. -1.
         21   -1    0    0  501  502 -0.00000000000E+00 -0.00000000000E+00 -0.26988233132E+01  0.26988233132E+01  0.00000000000E+00 0. -1.
         25    1    1    2    0    0  0.00000000000E+00  0.00000000000E+00  0.14446912229E+04  0.14500888695E+04  0.12500000000E+03 0.  0.
<mgrwt>
<rscale>  2 0.12500000E+03</rscale>
<asrwt>0</asrwt>
<pdfrwt beam="1">  1       21 0.22267477E+00 0.12500000E+03</pdfrwt>
<pdfrwt beam="2">  1       21 0.41520474E-03 0.12500000E+03</pdfrwt>
<totfact> 0.14749348E+06</totfact>
</mgrwt>
</event>
<event>
 3    0  0.1512089E+001  0.1250000E+03  0.7546771E-02  0.1235069E+00
         21   -1    0    0  502  501  0.00000000000E+00  0.00000000000E+00  0.44282386645E+03  0.44282386645E+03  0.00000000000E+00 0. -1.
         21   -1    0    0  501  502 -0.00000000000E+00 -0.00000000000E+00 -0.88212273456E+01  0.88212273456E+01  0.00000000000E+00 0. -1.
         25    1    1    2    0    0  0.00000000000E+00  0.00000000000E+00  0.43400263910E+03  0.45164509379E+03  0.12500000000E+03 0.  0.
<mgrwt>
<rscale>  2 0.12500000E+03</rscale>
<asrwt>0</asrwt>
<pdfrwt beam="1">  1       21 0.68126731E-01 0.12500000E+03</pdfrwt>
<pdfrwt beam="2">  1       21 0.13571122E-02 0.12500000E+03</pdfrwt>
<totfact> 0.44794000E+06</totfact>
</mgrwt>
</event>
<event>
 3    0  0.1368989E+001  0.1250000E+03  0.7546771E-02  0.1235069E+00
         21   -1    0    0  502  501  0.00000000000E+00  0.00000000000E+00  0.51089368200E+01  0.51089368200E+01  0.00000000000E+00 0. -1.
         21   -1    0    0  501  502 -0.00000000000E+00 -0.00000000000E+00 -0.76459156525E+03  0.76459156525E+03  0.00000000000E+00 0. -1.
         25    1    1    2    0    0  0.00000000000E+00  0.00000000000E+00 -0.75948262843E+03  0.76970050207E+03  0.12500000000E+03 0.  0.
<mgrwt>
<rscale>  2 0.12500000E+03</rscale>
<asrwt>0</asrwt>
<pdfrwt beam="1">  1       21 0.78599059E-03 0.12500000E+03</pdfrwt>
<pdfrwt beam="2">  1       21 0.11762942E+00 0.12500000E+03</pdfrwt>
<totfact> 0.30387770E+06</totfact>
</mgrwt>
</event>
<event>
 3    0  0.1395958E+001  0.1250000E+03  0.7546771E-02  0.1235069E+00
         21   -1    0    0  502  501  0.00000000000E+00  0.00000000000E+00  0.63322366866E+03  0.63322366866E+03  0.00000000000E+00 0. -1.
         21   -1    0    0  501  502 -0.00000000000E+00 -0.00000000000E+00 -0.61688313203E+01  0.61688313203E+01  0.00000000000E+00 0. -1.
         25    1    1    2    0    0  0.00000000000E+00  0.00000000000E+00  0.62705483734E+03  0.63939249998E+03  0.12500000000E+03 0.  0.
<mgrwt>
<rscale>  2 0.12500000E+03</rscale>
<asrwt>0</asrwt>
<pdfrwt beam="1">  1       21 0.97418974E-01 0.12500000E+03</pdfrwt>
<pdfrwt beam="2">  1       21 0.94905147E-03 0.12500000E+03</pdfrwt>
<totfact> 0.35369589E+06</totfact>
</mgrwt>
</event>
<event>
 3    0  0.1527180E+001  0.1250000E+03  0.7546771E-02  0.1235069E+00
         21   -1    0    0  502  501  0.00000000000E+00  0.00000000000E+00  0.11276568028E+02  0.11276568028E+02  0.00000000000E+00 0. -1.
         21   -1    0    0  501  502 -0.00000000000E+00 -0.00000000000E+00 -0.34640415330E+03  0.34640415330E+03  0.00000000000E+00 0. -1.
         25    1    1    2    0    0  0.00000000000E+00  0.00000000000E+00 -0.33512758527E+03  0.35768072133E+03  0.12500000000E+03 0.  0.
<mgrwt>
<rscale>  2 0.12500000E+03</rscale>
<asrwt>0</asrwt>
<pdfrwt beam="1">  1       21 0.17348571E-02 0.12500000E+03</pdfrwt>
<pdfrwt beam="2">  1       21 0.53292930E-01 0.12500000E+03</pdfrwt>
<totfact> 0.50976151E+06</totfact>
</mgrwt>
</event>
<event>
 3    0  0.1368989E+001  0.1250000E+03  0.7546771E-02  0.1235069E+00
         21   -1    0    0  502  501  0.00000000000E+00  0.00000000000E+00  0.99600571218E+03  0.99600571218E+03  0.00000000000E+00 0.  1.
         21   -1    0    0  501  502 -0.00000000000E+00 -0.00000000000E+00 -0.39219152583E+01  0.39219152583E+01  0.00000000000E+00 0.  1.
         25    1    1    2    0    0  0.00000000000E+00  0.00000000000E+00  0.99208379693E+03  0.99992762744E+03  0.12500000000E+03 0.  0.
<mgrwt>
<rscale>  2 0.12500000E+03</rscale>
<asrwt>0</asrwt>
<pdfrwt beam="1">  1       21 0.15323145E+00 0.12500000E+03</pdfrwt>
<pdfrwt beam="2">  1       21 0.60337237E-03 0.12500000E+03</pdfrwt>
<totfact> 0.23620532E+06</totfact>
</mgrwt>
</event>
<event>
 3    0  0.1581266E+001  0.1250000E+03  0.7546771E-02  0.1235069E+00
         21   -1    0    0  502  501  0.00000000000E+00  0.00000000000E+00  0.30305701192E+03  0.30305701192E+03  0.00000000000E+00 0.  1.
         21   -1    0    0  501  502 -0.00000000000E+00 -0.00000000000E+00 -0.12889488929E+02  0.12889488929E+02  0.00000000000E+00 0.  1.
         25    1    1    2    0    0  0.00000000000E+00  0.00000000000E+00  0.29016752299E+03  0.31594650085E+03  0.12500000000E+03 0.  0.
<mgrwt>
<rscale>  2 0.12500000E+03</rscale>
<asrwt>0</asrwt>
<pdfrwt beam="1">  1       21 0.46624150E-01 0.12500000E+03</pdfrwt>
<pdfrwt beam="2">  1       21 0.19829985E-02 0.12500000E+03</pdfrwt>
<totfact> 0.54156135E+06</totfact>
</mgrwt>
</event>
<event>
 3    0  0.1658868E+001  0.1250000E+03  0.7546771E-02  0.1235069E+00
         21   -1    0    0  502  501  0.00000000000E+00  0.00000000000E+00  0.19391935261E+03  0.19391935261E+03  0.00000000000E+00 0.  1.
         21   -1    0    0  501  502 -0.00000000000E+00 -0.00000000000E+00 -0.20143683172E+02  0.20143683172E+02  0.00000000000E+00 0.  1.
         25    1    1    2    0    0  0.00000000000E+00  0.00000000000E+00  0.17377566944E+03  0.21406303579E+03  0.12500000000E+03 0.  0.
<mgrwt>
<rscale>  2 0.12500000E+03</rscale>
<asrwt>0</asrwt>
<pdfrwt beam="1">  1       21 0.29833745E-01 0.12500000E+03</pdfrwt>
<pdfrwt beam="2">  1       21 0.30990283E-02 0.12500000E+03</pdfrwt>
<totfact> 0.63434578E+06</totfact>
</mgrwt>
</event>
<event>
 3    0  0.1418656E+001  0.1250000E+03  0.7546771E-02  0.1235069E+00
         21   -1    0    0  502  501  0.00000000000E+00  0.00000000000E+00  0.51389210015E+03  0.51389210015E+03  0.00000000000E+00 0. -1.
         21   -1    0    0  501  502 -0.00000000000E+00 -0.00000000000E+00 -0.76013038513E+01  0.76013038513E+01  0.00000000000E+00 0. -1.
         25    1    1    2    0    0  0.00000000000E+00  0.00000000000E+00  0.50629079630E+03  0.52149340400E+03  0.12500000000E+03 0.  0.
<mgrwt>
<rscale>  2 0.12500000E+03</rscale>
<asrwt>0</asrwt>
<pdfrwt beam="1">  1       21 0.79060296E-01 0.12500000E+03</pdfrwt>
<pdfrwt beam="2">  1       21 0.11694318E-02 0.12500000E+03</pdfrwt>
<totfact> 0.40901928E+06</totfact>
</mgrwt>
</event>
<event>
 3    0  0.1369140E+001  0.1250000E+03  0.7546771E-02  0.1235069E+00
         21   -1    0    0  502  501  0.00000000000E+00  0.00000000000E+00  0.60162889167E+01  0.60162889167E+01  0.00000000000E+00 0. -1.
         21   -1    0    0  501  502 -0.00000000000E+00 -0.00000000000E+00 -0.64927899143E+03  0.64927899143E+03  0.00000000000E+00 0. -1.
         25    1    1    2    0    0  0.00000000000E+00  0.00000000000E+00 -0.64326270251E+03  0.65529528035E+03  0.12500000000E+03 0.  0.
<mgrwt>
<rscale>  2 0.12500000E+03</rscale>
<asrwt>0</asrwt>
<pdfrwt beam="1">  1       21 0.92558298E-03 0.12500000E+03</pdfrwt>
<pdfrwt beam="2">  1       21 0.99889068E-01 0.12500000E+03</pdfrwt>
<totfact> 0.34705263E+06</totfact>
</mgrwt>
</event>
<event>
 3    0  0.1646447E+001  0.1250000E+03  0.7546771E-02  0.1235069E+00
         21   -1    0    0  502  501  0.00000000000E+00  0.00000000000E+00  0.21464629396E+02  0.21464629396E+02  0.00000000000E+00 0. -1.
         21   -1    0    0  501  502 -0.00000000000E+00 -0.00000000000E+00 -0.18198543883E+03  0.18198543883E+03  0.00000000000E+00 0. -1.
         25    1    1    2    0    0  0.00000000000E+00  0.00000000000E+00 -0.16052080944E+03  0.20345006823E+03  0.12500000000E+03 0.  0.
<mgrwt>
<rscale>  2 0.12500000E+03</rscale>
<asrwt>0</asrwt>
<pdfrwt beam="1">  1       21 0.33022506E-02 0.12500000E+03</pdfrwt>
<pdfrwt beam="2">  1       21 0.27997760E-01 0.12500000E+03</pdfrwt>
<totfact> 0.64555320E+06</totfact>
</mgrwt>
</event>
<event>
 3    0  0.1737058E+001  0.1250000E+03  0.7546771E-02  0.1235069E+00
         21   -1    0    0  502  501  0.00000000000E+00  0.00000000000E+00  0.61933825191E+02  0.61933825191E+02  0.00000000000E+00 0.  1.
         21   -1    0    0  501  502 -0.00000000000E+00 -0.00000000000E+00 -0.63071350557E+02  0.63071350557E+02  0.00000000000E+00 0.  1.
         25    1    1    2    0    0  0.00000000000E+00  0.00000000000E+00 -0.11375253657E+01  0.12500517575E+03  0.12500000000E+03 0.  0.
<mgrwt>
<rscale>  2 0.12500000E+03</rscale>
<asrwt>0</asrwt>
<pdfrwt beam="1">  1       21 0.95282808E-02 0.12500000E+03</pdfrwt>
<pdfrwt beam="2">  1       21 0.97032847E-02 0.12500000E+03</pdfrwt>
<totfact> 0.74042882E+06</totfact>
</mgrwt>
</event>
<event>
 3    0  0.1523652E+001  0.1250000E+03  0.7546771E-02  0.1235069E+00
         21   -1    0    0  502  501  0.00000000000E+00  0.00000000000E+00  0.87346542812E+01  0.87346542812E+01  0.00000000000E+00 0.  1.
         21   -1    0    0  501  502 -0.00000000000E+00 -0.00000000000E+00 -0.44721289180E+03  0.44721289180E+03  0.00000000000E+00 0.  1.
         25    1    1    2    0    0  0.00000000000E+00  0.00000000000E+00 -0.43847823752E+03  0.45594754609E+03  0.12500000000E+03 0.  0.
<mgrwt>
<rscale>  2 0.12500000E+03</rscale>
<asrwt>0</asrwt>
<pdfrwt beam="1">  1       21 0.13437931E-02 0.12500000E+03</pdfrwt>
<pdfrwt beam="2">  1       21 0.68801975E-01 0.12500000E+03</pdfrwt>
<totfact> 0.44538510E+06</totfact>
</mgrwt>
</event>
<event>
 3    0  0.1545983E+001  0.1250000E+03  0.7546771E-02  0.1235069E+00
         21   -1    0    0  502  501  0.00000000000E+00  0.00000000000E+00  0.38861799714E+03  0.38861799714E+03  0.00000000000E+00 0.  1.
         21   -1    0    0  501  502 -0.00000000000E+00 -0.00000000000E+00 -0.10051644620E+02  0.10051644620E+02  0.00000000000E+00 0.  1.
         25    1    1    2    0    0  0.00000000000E+00  0.00000000000E+00  0.37856635252E+03  0.39866964176E+03  0.12500000000E+03 0.  0.
<mgrwt>
<rscale>  2 0.12500000E+03</rscale>
<asrwt>0</asrwt>
<pdfrwt beam="1">  1       21 0.59787372E-01 0.12500000E+03</pdfrwt>
<pdfrwt beam="2">  1       21 0.15464072E-02 0.12500000E+03</pdfrwt>
<totfact> 0.48129722E+06</totfact>
</mgrwt>
</event>
<event>
 3    0  0.1368989E+001  0.1250000E+03  0.7546771E-02  0.1235069E+00
         21   -1    0    0  502  501  0.00000000000E+00  0.00000000000E+00  0.53285183779E+01  0.53285183779E+01  0.00000000000E+00 0.  1.
         21   -1    0    0  501  502 -0.00000000000E+00 -0.00000000000E+00 -0.73308370601E+03  0.73308370601E+03  0.00000000000E+00 0.  1.
         25    1    1    2    0    0  0.00000000000E+00  0.00000000000E+00 -0.72775518763E+03  0.73841222439E+03  0.12500000000E+03 0.  0.
<mgrwt>
<rscale>  2 0.12500000E+03</rscale>
<asrwt>0</asrwt>
<pdfrwt beam="1">  1       21 0.81977242E-03 0.12500000E+03</pdfrwt>
<pdfrwt beam="2">  1       21 0.11278206E+00 0.12500000E+03</pdfrwt>
<totfact> 0.31480690E+06</totfact>
</mgrwt>
</event>
<event>
 3    0  0.1711122E+001  0.1250000E+03  0.7546771E-02  0.1235069E+00
         21   -1    0    0  502  501  0.00000000000E+00  0.00000000000E+00  0.56343673215E+02  0.56343673215E+02  0.00000000000E+00 0. -1.
         21   -1    0    0  501  502 -0.00000000000E+00 -0.00000000000E+00 -0.69328990765E+02  0.69328990765E+02  0.00000000000E+00 0. -1.
         25    1    1    2    0    0  0.00000000000E+00  0.00000000000E+00 -0.12985317551E+02  0.12567266398E+03  0.12500000000E+03 0.  0.
<mgrwt>
<rscale>  2 0.12500000E+03</rscale>
<asrwt>0</asrwt>
<pdfrwt beam="1">  1       21 0.86682575E-02 0.12500000E+03</pdfrwt>
<pdfrwt beam="2">  1       21 0.10665998E-01 0.12500000E+03</pdfrwt>
<totfact> 0.73951334E+06</totfact>
</mgrwt>
</event>
<event>
 3    0  0.1695712E+001  0.1250000E+03  0.7546771E-02  0.1235069E+00
         21   -1    0    0  502  501  0.00000000000E+00  0.00000000000E+00  0.10328491074E+03  0.10328491074E+03  0.00000000000E+00 0. -1.
         21   -1    0    0  501  502 -0.00000000000E+00 -0.00000000000E+00 -0.37820142089E+02  0.37820142089E+02  0.00000000000E+00 0. -1.
         25    1    1    2    0    0  0.00000000000E+00  0.00000000000E+00  0.65464768656E+02  0.14110505283E+03  0.12500000000E+03 0.  0.
<mgrwt>
<rscale>  2 0.12500000E+03</rscale>
<asrwt>0</asrwt>
<pdfrwt beam="1">  1       21 0.15889986E-01 0.12500000E+03</pdfrwt>
<pdfrwt beam="2">  1       21 0.58184834E-02 0.12500000E+03</pdfrwt>
<totfact> 0.71895373E+06</totfact>
</mgrwt>
</event>
<event>
 3    0  0.1529836E+001  0.1250000E+03  0.7546771E-02  0.1235069E+00
         21   -1    0    0  502  501  0.00000000000E+00  0.00000000000E+00  0.44487464383E+03  0.44487464383E+03  0.00000000000E+00 0.  1.
         21   -1    0    0  501  502 -0.00000000000E+00 -0.00000000000E+00 -0.87805633657E+01  0.87805633657E+01  0.00000000000E+00 0.  1.
         25    1    1    2    0    0  0.00000000000E+00  0.00000000000E+00  0.43609408047E+03  0.45365520720E+03  0.12500000000E+03 0.  0.
<mgrwt>
<rscale>  2 0.12500000E+03</rscale>
<asrwt>0</asrwt>
<pdfrwt beam="1">  1       21 0.68442235E-01 0.12500000E+03</pdfrwt>
<pdfrwt beam="2">  1       21 0.13508563E-02 0.12500000E+03</pdfrwt>
<totfact> 0.44674361E+06</totfact>
</mgrwt>
</event>
<event>
 3    0  0.1654610E+001  0.1250000E+03  0.7546771E-02  0.1235069E+00
         21   -1    0    0  502  501  0.00000000000E+00  0.00000000000E+00  0.21419444125E+03  0.21419444125E+03  0.00000000000E+00 0.  1.
         21   -1    0    0  501  502 -0.00000000000E+00 -0.00000000000E+00 -0.18236934522E+02  0.18236934522E+02  0.00000000000E+00 0.  1.
         25    1    1    2    0    0  0.00000000000E+00  0.00000000000E+00  0.19595750672E+03  0.23243137577E+03  0.12500000000E+03 0.  0.
<mgrwt>
<rscale>  2 0.12500000E+03</rscale>
<asrwt>0</asrwt>
<pdfrwt beam="1">  1       21 0.32952989E-01 0.12500000E+03</pdfrwt>
<pdfrwt beam="2">  1       21 0.28056824E-02 0.12500000E+03</pdfrwt>
<totfact> 0.61572845E+06</totfact>
</mgrwt>
</event>
<event>
 3    0  0.1450490E+001  0.1250000E+03  0.7546771E-02  0.1235069E+00
         21   -1    0    0  502  501  0.00000000000E+00  0.00000000000E+00  0.71967214896E+01  0.71967214896E+01  0.00000000000E+00 0.  1.
         21   -1    0    0  501  502 -0.00000000000E+00 -0.00000000000E+00 -0.54278187723E+03  0.54278187723E+03  0.00000000000E+00 0.  1.
         25    1    1    2    0    0  0.00000000000E+00  0.00000000000E+00 -0.53558515574E+03  0.54997859872E+03  0.12500000000E+03 0.  0.
<mgrwt>
<rscale>  2 0.12500000E+03</rscale>
<asrwt>0</asrwt>
<pdfrwt beam="1">  1       21 0.11071874E-02 0.12500000E+03</pdfrwt>
<pdfrwt beam="2">  1       21 0.83504942E-01 0.12500000E+03</pdfrwt>
<totfact> 0.39457121E+06</totfact>
</mgrwt>
</event>
<event>
 3    0  0.1537763E+001  0.1250000E+03  0.7546771E-02  0.1235069E+00
         21   -1    0    0  502  501  0.00000000000E+00  0.00000000000E+00  0.38193755417E+03  0.38193755417E+03  0.00000000000E+00 0. -1.
         21   -1    0    0  501  502 -0.00000000000E+00 -0.00000000000E+00 -0.10227457230E+02  0.10227457230E+02  0.00000000000E+00 0. -1.
         25    1    1    2    0    0  0.00000000000E+00  0.00000000000E+00  0.37171009694E+03  0.39216501141E+03  0.12500000000E+03 0.  0.
<mgrwt>
<rscale>  2 0.12500000E+03</rscale>
<asrwt>0</asrwt>
<pdfrwt beam="1">  1       21 0.58759613E-01 0.12500000E+03</pdfrwt>
<pdfrwt beam="2">  1       21 0.15734553E-02 0.12500000E+03</pdfrwt>
<totfact> 0.48565420E+06</totfact>
</mgrwt>
</event>
<event>
 3    0  0.1684898E+001  0.1250000E+03  0.7546771E-02  0.1235069E+00
         21   -1    0    0  502  501  0.00000000000E+00  0.00000000000E+00  0.24448857702E+02  0.24448857702E+02  0.00000000000E+00 0.  1.
         21   -1    0    0  501  502 -0.00000000000E+00 -0.00000000000E+00 -0.15977229070E+03  0.15977229070E+03  0.00000000000E+00 0.  1.
         25    1    1    2    0    0  0.00000000000E+00  0.00000000000E+00 -0.13532343299E+03  0.18422114840E+03  0.12500000000E+03 0.  0.
<mgrwt>
<rscale>  2 0.12500000E+03</rscale>
<asrwt>0</asrwt>
<pdfrwt beam="1">  1       21 0.37613627E-02 0.12500000E+03</pdfrwt>
<pdfrwt beam="2">  1       21 0.24580353E-01 0.12500000E+03</pdfrwt>
<totfact> 0.66670568E+06</totfact>
</mgrwt>
</event>
<event>
 3    0  0.1664501E+001  0.1250000E+03  0.7546771E-02  0.1235069E+00
         21   -1    0    0  502  501  0.00000000000E+00  0.00000000000E+00  0.19374073869E+02  0.19374073869E+02  0.00000000000E+00 0.  1.
         21   -1    0    0  501  502 -0.00000000000E+00 -0.00000000000E+00 -0.20162254084E+03  0.20162254084E+03  0.00000000000E+00 0.  1.
         25    1    1    2    0    0  0.00000000000E+00  0.00000000000E+00 -0.18224846697E+03  0.22099661471E+03  0.12500000000E+03 0.  0.
<mgrwt>
<rscale>  2 0.12500000E+03</rscale>
<asrwt>0</asrwt>
<pdfrwt beam="1">  1       21 0.29806267E-02 0.12500000E+03</pdfrwt>
<pdfrwt beam="2">  1       21 0.31018853E-01 0.12500000E+03</pdfrwt>
<totfact> 0.62720813E+06</totfact>
</mgrwt>
</event>
<event>
 3    0  0.1723915E+001  0.1250000E+03  0.7546771E-02  0.1235069E+00
         21   -1    0    0  502  501  0.00000000000E+00  0.00000000000E+00  0.10138840162E+03  0.10138840162E+03  0.00000000000E+00 0.  1.
         21   -1    0    0  501  502 -0.00000000000E+00 -0.00000000000E+00 -0.38527582422E+02  0.38527582422E+02  0.00000000000E+00 0.  1.
         25    1    1    2    0    0  0.00000000000E+00  0.00000000000E+00  0.62860819197E+02  0.13991598404E+03  0.12500000000E+03 0.  0.
<mgrwt>
<rscale>  2 0.12500000E+03</rscale>
<asrwt>0</asrwt>
<pdfrwt beam="1">  1       21 0.15598215E-01 0.12500000E+03</pdfrwt>
<pdfrwt beam="2">  1       21 0.59273204E-02 0.12500000E+03</pdfrwt>
<totfact> 0.72050278E+06</totfact>
</mgrwt>
</event>
<event>
 3    0  0.1648697E+001  0.1250000E+03  0.7546771E-02  0.1235069E+00
         21   -1    0    0  502  501  0.00000000000E+00  0.00000000000E+00  0.19693444060E+02  0.19693444060E+02  0.00000000000E+00 0. -1.
         21   -1    0    0  501  502 -0.00000000000E+00 -0.00000000000E+00 -0.19835281163E+03  0.19835281163E+03  0.00000000000E+00 0. -1.
         25    1    1    2    0    0  0.00000000000E+00  0.00000000000E+00 -0.17865936757E+03  0.21804625569E+03  0.12500000000E+03 0.  0.
<mgrwt>
<rscale>  2 0.12500000E+03</rscale>
<asrwt>0</asrwt>
<pdfrwt beam="1">  1       21 0.30297606E-02 0.12500000E+03</pdfrwt>
<pdfrwt beam="2">  1       21 0.30515817E-01 0.12500000E+03</pdfrwt>
<totfact> 0.63022794E+06</totfact>
</mgrwt>
</event>
<event>
 3    0  0.1542181E+001  0.1250000E+03  0.7546771E-02  0.1235069E+00
         21   -1    0    0  502  501  0.00000000000E+00  0.00000000000E+00  0.37394514385E+03  0.37394514385E+03  0.00000000000E+00 0.  1.
         21   -1    0    0  501  502 -0.00000000000E+00 -0.00000000000E+00 -0.10446050883E+02  0.10446050883E+02  0.00000000000E+00 0.  1.
         25    1    1    2    0    0  0.00000000000E+00  0.00000000000E+00  0.36349909297E+03  0.38439119473E+03  0.12500000000E+03 0.  0.
<mgrwt>
<rscale>  2 0.12500000E+03</rscale>
<asrwt>0</asrwt>
<pdfrwt beam="1">  1       21 0.57530012E-01 0.12500000E+03</pdfrwt>
<pdfrwt beam="2">  1       21 0.16070850E-02 0.12500000E+03</pdfrwt>
<totfact> 0.49094199E+06</totfact>
</mgrwt>
</event>
<event>
 3    0  0.1698256E+001  0.1250000E+03  0.7546771E-02  0.1235069E+00
         21   -1    0    0  502  501  0.00000000000E+00  0.00000000000E+00  0.38370398182E+02  0.38370398182E+02  0.00000000000E+00 0. -1.
         21   -1    0    0  501  502 -0.00000000000E+00 -0.00000000000E+00 -0.10180373895E+03  0.10180373895E+03  0.00000000000E+00 0. -1.
         25    1    1    2    0    0  0.00000000000E+00  0.00000000000E+00 -0.63433340771E+02  0.14017413713E+03  0.12500000000E+03 0.  0.
<mgrwt>
<rscale>  2 0.12500000E+03</rscale>
<asrwt>0</asrwt>
<pdfrwt beam="1">  1       21 0.59031382E-02 0.12500000E+03</pdfrwt>
<pdfrwt beam="2">  1       21 0.15662114E-01 0.12500000E+03</pdfrwt>
<totfact> 0.72016583E+06</totfact>
</mgrwt>
</event>
<event>
 3    0  0.1368989E+001  0.1250000E+03  0.7546771E-02  0.1235069E+00
         21   -1    0    0  502  501  0.00000000000E+00  0.00000000000E+00  0.95928862605E+03  0.95928862605E+03  0.00000000000E+00 0.  1.
         21   -1    0    0  501  502 -0.00000000000E+00 -0.00000000000E+00 -0.40720278485E+01  0.40720278485E+01  0.00000000000E+00 0.  1.
         25    1    1    2    0    0  0.00000000000E+00  0.00000000000E+00  0.95521659820E+03  0.96336065390E+03  0.12500000000E+03 0.  0.
<mgrwt>
<rscale>  2 0.12500000E+03</rscale>
<asrwt>0</asrwt>
<pdfrwt beam="1">  1       21 0.14758269E+00 0.12500000E+03</pdfrwt>
<pdfrwt beam="2">  1       21 0.62646659E-03 0.12500000E+03</pdfrwt>
<totfact> 0.24557101E+06</totfact>
</mgrwt>
</event>
<event>
 3    0  0.1611752E+001  0.1250000E+03  0.7546771E-02  0.1235069E+00
         21   -1    0    0  502  501  0.00000000000E+00  0.00000000000E+00  0.23052414348E+03  0.23052414348E+03  0.00000000000E+00 0. -1.
         21   -1    0    0  501  502 -0.00000000000E+00 -0.00000000000E+00 -0.16945079769E+02  0.16945079769E+02  0.00000000000E+00 0. -1.
         25    1    1    2    0    0  0.00000000000E+00  0.00000000000E+00  0.21357906371E+03  0.24746922325E+03  0.12500000000E+03 0.  0.
<mgrwt>
<rscale>  2 0.12500000E+03</rscale>
<asrwt>0</asrwt>
<pdfrwt beam="1">  1       21 0.35465251E-01 0.12500000E+03</pdfrwt>
<pdfrwt beam="2">  1       21 0.26069355E-02 0.12500000E+03</pdfrwt>
<totfact> 0.60117280E+06</totfact>
</mgrwt>
</event>
<event>
 3    0  0.1686360E+001  0.1250000E+03  0.7546771E-02  0.1235069E+00
         21   -1    0    0  502  501  0.00000000000E+00  0.00000000000E+00  0.12521651038E+03  0.12521651038E+03  0.00000000000E+00 0. -1.
         21   -1    0    0  501  502 -0.00000000000E+00 -0.00000000000E+00 -0.31195965996E+02  0.31195965996E+02  0.00000000000E+00 0. -1.
         25    1    1    2    0    0  0.00000000000E+00  0.00000000000E+00  0.94020544386E+02  0.15641247638E+03  0.12500000000E+03 0.  0.
<mgrwt>
<rscale>  2 0.12500000E+03</rscale>
<asrwt>0</asrwt>
<pdfrwt beam="1">  1       21 0.19264078E-01 0.12500000E+03</pdfrwt>
<pdfrwt beam="2">  1       21 0.47993794E-02 0.12500000E+03</pdfrwt>
<totfact> 0.69960530E+06</totfact>
</mgrwt>
</event>
<event>
 3    0  0.1368989E+001  0.1250000E+03  0.7546771E-02  0.1235069E+00
         21   -1    0    0  502  501  0.00000000000E+00  0.00000000000E+00  0.54922967864E+01  0.54922967864E+01  0.00000000000E+00 0. -1.
         21   -1    0    0  501  502 -0.00000000000E+00 -0.00000000000E+00 -0.71122340106E+03  0.71122340106E+03  0.00000000000E+00 0. -1.
         25    1    1    2    0    0  0.00000000000E+00  0.00000000000E+00 -0.70573110427E+03  0.71671569784E+03  0.12500000000E+03 0.  0.
<mgrwt>
<rscale>  2 0.12500000E+03</rscale>
<asrwt>0</asrwt>
<pdfrwt beam="1">  1       21 0.84496871E-03 0.12500000E+03</pdfrwt>
<pdfrwt beam="2">  1       21 0.10941899E+00 0.12500000E+03</pdfrwt>
<totfact> 0.32275576E+06</totfact>
</mgrwt>
</event>
<event>
 3    0  0.1722110E+001  0.1250000E+03  0.7546771E-02  0.1235069E+00
         21   -1    0    0  502  501  0.00000000000E+00  0.00000000000E+00  0.34861204237E+02  0.34861204237E+02  0.00000000000E+00 0.  1.
         21   -1    0    0  501  502 -0.00000000000E+00 -0.00000000000E+00 -0.11205149350E+03  0.11205149350E+03  0.00000000000E+00 0.  1.
         25    1    1    2    0    0  0.00000000000E+00  0.00000000000E+00 -0.77190289265E+02  0.14691269774E+03  0.12500000000E+03 0.  0.
<mgrwt>
<rscale>  2 0.12500000E+03</rscale>
<asrwt>0</asrwt>
<pdfrwt beam="1">  1       21 0.53632622E-02 0.12500000E+03</pdfrwt>
<pdfrwt beam="2">  1       21 0.17238691E-01 0.12500000E+03</pdfrwt>
<totfact> 0.71149211E+06</totfact>
</mgrwt>
</event>
<event>
 3    0  0.1368989E+001  0.1250000E+03  0.7546771E-02  0.1235069E+00
         21   -1    0    0  502  501  0.00000000000E+00  0.00000000000E+00  0.10461463829E+04  0.10461463829E+04  0.00000000000E+00 0.  1.
         21   -1    0    0  501  502 -0.00000000000E+00 -0.00000000000E+00 -0.37339420790E+01  0.37339420790E+01  0.00000000000E+00 0.  1.
         25    1    1    2    0    0  0.00000000000E+00  0.00000000000E+00  0.10424124409E+04  0.10498803250E+04  0.12500000000E+03 0.  0.
<mgrwt>
<rscale>  2 0.12500000E+03</rscale>
<asrwt>0</asrwt>
<pdfrwt beam="1">  1       21 0.16094536E+00 0.12500000E+03</pdfrwt>
<pdfrwt beam="2">  1       21 0.57445346E-03 0.12500000E+03</pdfrwt>
<totfact> 0.22401888E+06</totfact>
</mgrwt>
</event>
<event>
 3    0  0.1712740E+001  0.1250000E+03  0.7546771E-02  0.1235069E+00
         21   -1    0    0  502  501  0.00000000000E+00  0.00000000000E+00  0.13918106085E+03  0.13918106085E+03  0.00000000000E+00 0.  1.
         21   -1    0    0  501  502 -0.00000000000E+00 -0.00000000000E+00 -0.28065959378E+02  0.28065959378E+02  0.00000000000E+00 0.  1.
         25    1    1    2    0    0  0.00000000000E+00  0.00000000000E+00  0.11111510147E+03  0.16724702023E+03  0.12500000000E+03 0.  0.
<mgrwt>
<rscale>  2 0.12500000E+03</rscale>
<asrwt>0</asrwt>
<pdfrwt beam="1">  1       21 0.21412471E-01 0.12500000E+03</pdfrwt>
<pdfrwt beam="2">  1       21 0.43178400E-02 0.12500000E+03</pdfrwt>
<totfact> 0.68644652E+06</totfact>
</mgrwt>
</event>
<event>
 3    0  0.1594695E+001  0.1250000E+03  0.7546771E-02  0.1235069E+00
         21   -1    0    0  502  501  0.00000000000E+00  0.00000000000E+00  0.14343923016E+02  0.14343923016E+02  0.00000000000E+00 0. -1.
         21   -1    0    0  501  502 -0.00000000000E+00 -0.00000000000E+00 -0.27232786983E+03  0.27232786983E+03  0.00000000000E+00 0. -1.
         25    1    1    2    0    0  0.00000000000E+00  0.00000000000E+00 -0.25798394682E+03  0.28667179285E+03  0.12500000000E+03 0.  0.
<mgrwt>
<rscale>  2 0.12500000E+03</rscale>
<asrwt>0</asrwt>
<pdfrwt beam="1">  1       21 0.22067572E-02 0.12500000E+03</pdfrwt>
<pdfrwt beam="2">  1       21 0.41896598E-01 0.12500000E+03</pdfrwt>
<totfact> 0.56582312E+06</totfact>
</mgrwt>
</event>
<event>
 3    0  0.1704339E+001  0.1250000E+03  0.7546771E-02  0.1235069E+00
         21   -1    0    0  502  501  0.00000000000E+00  0.00000000000E+00  0.14270967051E+03  0.14270967051E+03  0.00000000000E+00 0.  1.
         21   -1    0    0  501  502 -0.00000000000E+00 -0.00000000000E+00 -0.27372006299E+02  0.27372006299E+02  0.00000000000E+00 0.  1.
         25    1    1    2    0    0  0.00000000000E+00  0.00000000000E+00  0.11533766421E+03  0.17008167681E+03  0.12500000000E+03 0.  0.
<mgrwt>
<rscale>  2 0.12500000E+03</rscale>
<asrwt>0</asrwt>
<pdfrwt beam="1">  1       21 0.21955334E-01 0.12500000E+03</pdfrwt>
<pdfrwt beam="2">  1       21 0.42110780E-02 0.12500000E+03</pdfrwt>
<totfact> 0.68307954E+06</totfact>
</mgrwt>
</event>
<event>
 3    0  0.1557536E+001  0.1250000E+03  0.7546771E-02  0.1235069E+00
         21   -1    0    0  502  501  0.00000000000E+00  0.00000000000E+00  0.12870668358E+02  0.12870668358E+02  0.00000000000E+00 0. -1.
         21   -1    0    0  501  502 -0.00000000000E+00 -0.00000000000E+00 -0.30350016731E+03  0.30350016731E+03  0.00000000000E+00 0. -1.
         25    1    1    2    0    0  0.00000000000E+00  0.00000000000E+00 -0.29062949895E+03  0.31637083566E+03  0.12500000000E+03 0.  0.
<mgrwt>
<rscale>  2 0.12500000E+03</rscale>
<asrwt>0</asrwt>
<pdfrwt beam="1">  1       21 0.19801029E-02 0.12500000E+03</pdfrwt>
<pdfrwt beam="2">  1       21 0.46692333E-01 0.12500000E+03</pdfrwt>
<totfact> 0.54122194E+06</totfact>
</mgrwt>
</event>
<event>
 3    0  0.1473823E+001  0.1250000E+03  0.7546771E-02  0.1235069E+00
         21   -1    0    0  502  501  0.00000000000E+00  0.00000000000E+00  0.84587522256E+01  0.84587522256E+01  0.00000000000E+00 0. -1.
         21   -1    0    0  501  502 -0.00000000000E+00 -0.00000000000E+00 -0.46179978983E+03  0.46179978983E+03  0.00000000000E+00 0. -1.
         25    1    1    2    0    0  0.00000000000E+00  0.00000000000E+00 -0.45334103761E+03  0.47025854206E+03  0.12500000000E+03 0.  0.
<mgrwt>
<rscale>  2 0.12500000E+03</rscale>
<asrwt>0</asrwt>
<pdfrwt beam="1">  1       21 0.13013461E-02 0.12500000E+03</pdfrwt>
<pdfrwt beam="2">  1       21 0.71046145E-01 0.12500000E+03</pdfrwt>
<totfact> 0.43704336E+06</totfact>
</mgrwt>
</event>
<event>
 3    0  0.1701364E+001  0.1250000E+03  0.7546771E-02  0.1235069E+00
         21   -1    0    0  502  501  0.00000000000E+00  0.00000000000E+00  0.42212857868E+02  0.42212857868E+02  0.00000000000E+00 0. -1.
         21   -1    0    0  501  502 -0.00000000000E+00 -0.00000000000E+00 -0.92536970896E+02  0.92536970896E+02  0.00000000000E+00 0. -1.
         25    1    1    2    0    0  0.00000000000E+00  0.00000000000E+00 -0.50324113028E+02  0.13474982876E+03  0.12500000000E+03 0.  0.
<mgrwt>
<rscale>  2 0.12500000E+03</rscale>
<asrwt>0</asrwt>
<pdfrwt beam="1">  1       21 0.64942858E-02 0.12500000E+03</pdfrwt>
<pdfrwt beam="2">  1       21 0.14236457E-01 0.12500000E+03</pdfrwt>
<totfact> 0.72729613E+06</totfact>
</mgrwt>
</event>
<event>
 3    0  0.1423051E+001  0.1250000E+03  0.7546771E-02  0.1235069E+00
         21   -1    0    0  502  501  0.00000000000E+00  0.00000000000E+00  0.67658598038E+01  0.67658598038E+01  0.00000000000E+00 0. -1.
         21   -1    0    0  501  502 -0.00000000000E+00 -0.00000000000E+00 -0.57734716847E+03  0.57734716847E+03  0.00000000000E+00 0. -1.
         25    1    1    2    0    0  0.00000000000E+00  0.00000000000E+00 -0.57058130867E+03  0.58411302828E+03  0.12500000000E+03 0.  0.
<mgrwt>
<rscale>  2 0.12500000E+03</rscale>
<asrwt>0</asrwt>
<pdfrwt beam="1">  1       21 0.10409013E-02 0.12500000E+03</pdfrwt>
<pdfrwt beam="2">  1       21 0.88822655E-01 0.12500000E+03</pdfrwt>
<totfact> 0.37821093E+06</totfact>
</mgrwt>
</event>
<event>
 3    0  0.1684651E+001  0.1250000E+03  0.7546771E-02  0.1235069E+00
         21   -1    0    0  502  501  0.00000000000E+00  0.00000000000E+00  0.12274962979E+03  0.12274962979E+03  0.00000000000E+00 0. -1.
         21   -1    0    0  501  502 -0.00000000000E+00 -0.00000000000E+00 -0.31822906568E+02  0.31822906568E+02  0.00000000000E+00 0. -1.
         25    1    1    2    0    0  0.00000000000E+00  0.00000000000E+00  0.90926723218E+02  0.15457253636E+03  0.12500000000E+03 0.  0.
<mgrwt>
<rscale>  2 0.12500000E+03</rscale>
<asrwt>0</asrwt>
<pdfrwt beam="1">  1       21 0.18884558E-01 0.12500000E+03</pdfrwt>
<pdfrwt beam="2">  1       21 0.48958319E-02 0.12500000E+03</pdfrwt>
<totfact> 0.70188826E+06</totfact>
</mgrwt>
</event>
<event>
 3    0  0.1502373E+001  0.1250000E+03  0.7546771E-02  0.1235069E+00
         21   -1    0    0  502  501  0.00000000000E+00  0.00000000000E+00  0.41987225491E+03  0.41987225491E+03  0.00000000000E+00 0. -1.
         21   -1    0    0  501  502 -0.00000000000E+00 -0.00000000000E+00 -0.93034249211E+01  0.93034249211E+01  0.00000000000E+00 0. -1.
         25    1    1    2    0    0  0.00000000000E+00  0.00000000000E+00  0.41056882999E+03  0.42917567983E+03  0.12500000000E+03 0.  0.
<mgrwt>
<rscale>  2 0.12500000E+03</rscale>
<asrwt>0</asrwt>
<pdfrwt beam="1">  1       21 0.64595717E-01 0.12500000E+03</pdfrwt>
<pdfrwt beam="2">  1       21 0.14312965E-02 0.12500000E+03</pdfrwt>
<totfact> 0.46164515E+06</totfact>
</mgrwt>
</event>
<event>
 3    0  0.1547050E+001  0.1250000E+03  0.7546771E-02  0.1235069E+00
         21   -1    0    0  502  501  0.00000000000E+00  0.00000000000E+00  0.33745560020E+03  0.33745560020E+03  0.00000000000E+00 0. -1.
         21   -1    0    0  501  502 -0.00000000000E+00 -0.00000000000E+00 -0.11575596901E+02  0.11575596901E+02  0.00000000000E+00 0. -1.
         25    1    1    2    0    0  0.00000000000E+00  0.00000000000E+00  0.32588000330E+03  0.34903119711E+03  0.12500000000E+03 0.  0.
<mgrwt>
<rscale>  2 0.12500000E+03</rscale>
<asrwt>0</asrwt>
<pdfrwt beam="1">  1       21 0.51916239E-01 0.12500000E+03</pdfrwt>
<pdfrwt beam="2">  1       21 0.17808613E-02 0.12500000E+03</pdfrwt>
<totfact> 0.51610063E+06</totfact>
</mgrwt>
</event>
<event>
 3    0  0.1478140E+001  0.1250000E+03  0.7546771E-02  0.1235069E+00
         21   -1    0    0  502  501  0.00000000000E+00  0.00000000000E+00  0.48142892362E+03  0.48142892362E+03  0.00000000000E+00 0. -1.
         21   -1    0    0  501  502 -0.00000000000E+00 -0.00000000000E+00 -0.81138664678E+01  0.81138664678E+01  0.00000000000E+00 0. -1.
         25    1    1    2    0    0  0.00000000000E+00  0.00000000000E+00  0.47331505715E+03  0.48954279009E+03  0.12500000000E+03 0.  0.
<mgrwt>
<rscale>  2 0.12500000E+03</rscale>
<asrwt>0</asrwt>
<pdfrwt beam="1">  1       21 0.74065966E-01 0.12500000E+03</pdfrwt>
<pdfrwt beam="2">  1       21 0.12482875E-02 0.12500000E+03</pdfrwt>
<totfact> 0.42616934E+06</totfact>
</mgrwt>
</event>
<event>
 3    0  0.1730861E+001  0.1250000E+03  0.7546771E-02  0.1235069E+00
         21   -1    0    0  502  501  0.00000000000E+00  0.00000000000E+00  0.43601465174E+02  0.43601465174E+02  0.00000000000E+00 0.  1.
         21   -1    0    0  501  502 -0.00000000000E+00 -0.00000000000E+00 -0.89589879248E+02  0.89589879248E+02  0.00000000000E+00 0.  1.
         25    1    1    2    0    0  0.00000000000E+00  0.00000000000E+00 -0.45988414073E+02  0.13319134442E+03  0.12500000000E+03 0.  0.
<mgrwt>
<rscale>  2 0.12500000E+03</rscale>
<asrwt>0</asrwt>
<pdfrwt beam="1">  1       21 0.67079178E-02 0.12500000E+03</pdfrwt>
<pdfrwt beam="2">  1       21 0.13783058E-01 0.12500000E+03</pdfrwt>
<totfact> 0.72936858E+06</totfact>
</mgrwt>
</event>
<event>
 3    0  0.1368989E+001  0.1250000E+03  0.7546771E-02  0.1235069E+00
         21   -1    0    0  502  501  0.00000000000E+00  0.00000000000E+00  0.18478766629E+04  0.18478766629E+04  0.00000000000E+00 0.  1.
         21   -1    0    0  501  502 -0.00000000000E+00 -0.00000000000E+00 -0.21139127293E+01  0.21139127293E+01  0.00000000000E+00 0.  1.
         25    1    1    2    0    0  0.00000000000E+00  0.00000000000E+00  0.18457627502E+04  0.18499905757E+04  0.12500000000E+03 0.  0.
<mgrwt>
<rscale>  2 0.12500000E+03</rscale>
<asrwt>0</asrwt>
<pdfrwt beam="1">  1       21 0.28428743E+00 0.12500000E+03</pdfrwt>
<pdfrwt beam="2">  1       21 0.32521882E-03 0.12500000E+03</pdfrwt>
<totfact> 0.95065568E+05</totfact>
</mgrwt>
</event>
<event>
 3    0  0.1717226E+001  0.1250000E+03  0.7546771E-02  0.1235069E+00
         21   -1    0    0  502  501  0.00000000000E+00  0.00000000000E+00  0.11459138107E+03  0.11459138107E+03  0.00000000000E+00 0.  1.
         21   -1    0    0  501  502 -0.00000000000E+00 -0.00000000000E+00 -0.34088514892E+02  0.34088514892E+02  0.00000000000E+00 0.  1.
         25    1    1    2    0    0  0.00000000000E+00  0.00000000000E+00  0.80502866177E+02  0.14867989596E+03  0.12500000000E+03 0.  0.
<mgrwt>
<rscale>  2 0.12500000E+03</rscale>
<asrwt>0</asrwt>
<pdfrwt beam="1">  1       21 0.17629443E-01 0.12500000E+03</pdfrwt>
<pdfrwt beam="2">  1       21 0.52443870E-02 0.12500000E+03</pdfrwt>
<totfact> 0.70925426E+06</totfact>
</mgrwt>
</event>
<event>
 3    0  0.1707654E+001  0.1250000E+03  0.7546771E-02  0.1235069E+00
         21   -1    0    0  502  501  0.00000000000E+00  0.00000000000E+00  0.49172444428E+02  0.49172444428E+02  0.00000000000E+00 0. -1.
         21   -1    0    0  501  502 -0.00000000000E+00 -0.00000000000E+00 -0.79439817268E+02  0.79439817268E+02  0.00000000000E+00 0. -1.
         25    1    1    2    0    0  0.00000000000E+00  0.00000000000E+00 -0.30267372839E+02  0.12861226170E+03  0.12500000000E+03 0.  0.
<mgrwt>
<rscale>  2 0.12500000E+03</rscale>
<asrwt>0</asrwt>
<pdfrwt beam="1">  1       21 0.75649915E-02 0.12500000E+03</pdfrwt>
<pdfrwt beam="2">  1       21 0.12221510E-01 0.12500000E+03</pdfrwt>
<totfact> 0.73551008E+06</totfact>
</mgrwt>
</event>
<event>
 3    0  0.1515488E+001  0.1250000E+03  0.7546771E-02  0.1235069E+00
         21   -1    0    0  502  501  0.00000000000E+00  0.00000000000E+00  0.92050673619E+01  0.92050673619E+01  0.00000000000E+00 0.  1.
         21   -1    0    0  501  502 -0.00000000000E+00 -0.00000000000E+00 -0.42435865447E+03  0.42435865447E+03  0.00000000000E+00 0.  1.
         25    1    1    2    0    0  0.00000000000E+00  0.00000000000E+00 -0.41515358711E+03  0.43356372183E+03  0.12500000000E+03 0.  0.
<mgrwt>
<rscale>  2 0.12500000E+03</rscale>
<asrwt>0</asrwt>
<pdfrwt beam="1">  1       21 0.14161642E-02 0.12500000E+03</pdfrwt>
<pdfrwt beam="2">  1       21 0.65285946E-01 0.12500000E+03</pdfrwt>
<totfact> 0.45891969E+06</totfact>
</mgrwt>
</event>
<event>
 3    0  0.1507708E+001  0.1250000E+03  0.7546771E-02  0.1235069E+00
         21   -1    0    0  502  501  0.00000000000E+00  0.00000000000E+00  0.98264559780E+01  0.98264559780E+01  0.00000000000E+00 0. -1.
         21   -1    0    0  501  502 -0.00000000000E+00 -0.00000000000E+00 -0.39752378769E+03  0.39752378769E+03  0.00000000000E+00 0. -1.
         25    1    1    2    0    0  0.00000000000E+00  0.00000000000E+00 -0.38769733172E+03  0.40735024367E+03  0.12500000000E+03 0.  0.
<mgrwt>
<rscale>  2 0.12500000E+03</rscale>
<asrwt>0</asrwt>
<pdfrwt beam="1">  1       21 0.15117627E-02 0.12500000E+03</pdfrwt>
<pdfrwt beam="2">  1       21 0.61157494E-01 0.12500000E+03</pdfrwt>
<totfact> 0.47557613E+06</totfact>
</mgrwt>
</event>
<event>
 3    0  0.1674331E+001  0.1250000E+03  0.7546771E-02  0.1235069E+00
         21   -1    0    0  502  501  0.00000000000E+00  0.00000000000E+00  0.21663761192E+02  0.21663761192E+02  0.00000000000E+00 0.  1.
         21   -1    0    0  501  502 -0.00000000000E+00 -0.00000000000E+00 -0.18031264125E+03  0.18031264125E+03  0.00000000000E+00 0.  1.
         25    1    1    2    0    0  0.00000000000E+00  0.00000000000E+00 -0.15864888006E+03  0.20197640244E+03  0.12500000000E+03 0.  0.
<mgrwt>
<rscale>  2 0.12500000E+03</rscale>
<asrwt>0</asrwt>
<pdfrwt beam="1">  1       21 0.33328863E-02 0.12500000E+03</pdfrwt>
<pdfrwt beam="2">  1       21 0.27740407E-01 0.12500000E+03</pdfrwt>
<totfact> 0.64713723E+06</totfact>
</mgrwt>
</event>
<event>
 3    0  0.1608996E+001  0.1250000E+03  0.7546771E-02  0.1235069E+00
         21   -1    0    0  502  501  0.00000000000E+00  0.00000000000E+00  0.27582379209E+03  0.27582379209E+03  0.00000000000E+00 0.  1.
         21   -1    0    0  501  502 -0.00000000000E+00 -0.00000000000E+00 -0.14162121296E+02  0.14162121296E+02  0.00000000000E+00 0.  1.
         25    1    1    2    0    0  0.00000000000E+00  0.00000000000E+00  0.26166167079E+03  0.28998591338E+03  0.12500000000E+03 0.  0.
<mgrwt>
<rscale>  2 0.12500000E+03</rscale>
<asrwt>0</asrwt>
<pdfrwt beam="1">  1       21 0.42434426E-01 0.12500000E+03</pdfrwt>
<pdfrwt beam="2">  1       21 0.21787881E-02 0.12500000E+03</pdfrwt>
<totfact> 0.56298790E+06</totfact>
</mgrwt>
</event>
<event>
 3    0  0.1368989E+001  0.1250000E+03  0.7546771E-02  0.1235069E+00
         21   -1    0    0  502  501  0.00000000000E+00  0.00000000000E+00  0.52015097543E+01  0.52015097543E+01  0.00000000000E+00 0. -1.
         21   -1    0    0  501  502 -0.00000000000E+00 -0.00000000000E+00 -0.75098388439E+03  0.75098388439E+03  0.00000000000E+00 0. -1.
         25    1    1    2    0    0  0.00000000000E+00  0.00000000000E+00 -0.74578237464E+03  0.75618539415E+03  0.12500000000E+03 0.  0.
<mgrwt>
<rscale>  2 0.12500000E+03</rscale>
<asrwt>0</asrwt>
<pdfrwt beam="1">  1       21 0.80023193E-03 0.12500000E+03</pdfrwt>
<pdfrwt beam="2">  1       21 0.11553603E+00 0.12500000E+03</pdfrwt>
<totfact> 0.30852486E+06</totfact>
</mgrwt>
</event>
<event>
 3    0  0.1629997E+001  0.1250000E+03  0.7546771E-02  0.1235069E+00
         21   -1    0    0  502  501  0.00000000000E+00  0.00000000000E+00  0.15143550480E+02  0.15143550480E+02  0.00000000000E+00 0.  1.
         21   -1    0    0  501  502 -0.00000000000E+00 -0.00000000000E+00 -0.25794809514E+03  0.25794809514E+03  0.00000000000E+00 0.  1.
         25    1    1    2    0    0  0.00000000000E+00  0.00000000000E+00 -0.24280454466E+03  0.27309164562E+03  0.12500000000E+03 0.  0.
<mgrwt>
<rscale>  2 0.12500000E+03</rscale>
<asrwt>0</asrwt>
<pdfrwt beam="1">  1       21 0.23297769E-02 0.12500000E+03</pdfrwt>
<pdfrwt beam="2">  1       21 0.39684324E-01 0.12500000E+03</pdfrwt>
<totfact> 0.57769215E+06</totfact>
</mgrwt>
</event>
<event>
 3    0  0.1687654E+001  0.1250000E+03  0.7546771E-02  0.1235069E+00
         21   -1    0    0  502  501  0.00000000000E+00  0.00000000000E+00  0.12138665648E+03  0.12138665648E+03  0.00000000000E+00 0. -1.
         21   -1    0    0  501  502 -0.00000000000E+00 -0.00000000000E+00 -0.32180225678E+02  0.32180225678E+02  0.00000000000E+00 0. -1.
         25    1    1    2    0    0  0.00000000000E+00  0.00000000000E+00  0.89206430807E+02  0.15356688216E+03  0.12500000000E+03 0.  0.
<mgrwt>
<rscale>  2 0.12500000E+03</rscale>
<asrwt>0</asrwt>
<pdfrwt beam="1">  1       21 0.18674870E-01 0.12500000E+03</pdfrwt>
<pdfrwt beam="2">  1       21 0.49508040E-02 0.12500000E+03</pdfrwt>
<totfact> 0.70313958E+06</totfact>
</mgrwt>
</event>
<event>
 3    0  0.1689652E+001  0.1250000E+03  0.7546771E-02  0.1235069E+00
         21   -1    0    0  502  501  0.00000000000E+00  0.00000000000E+00  0.13862474640E+03  0.13862474640E+03  0.00000000000E+00 0. -1.
         21   -1    0    0  501  502 -0.00000000000E+00 -0.00000000000E+00 -0.28178590775E+02  0.28178590775E+02  0.00000000000E+00 0. -1.
         25    1    1    2    0    0  0.00000000000E+00  0.00000000000E+00  0.11044615562E+03  0.16680333717E+03  0.12500000000E+03 0.  0.
<mgrwt>
<rscale>  2 0.12500000E+03</rscale>
<asrwt>0</asrwt>
<pdfrwt beam="1">  1       21 0.21326884E-01 0.12500000E+03</pdfrwt>
<pdfrwt beam="2">  1       21 0.43351679E-02 0.12500000E+03</pdfrwt>
<totfact> 0.68697609E+06</totfact>
</mgrwt>
</event>
<event>
 3    0  0.1596570E+001  0.1250000E+03  0.7546771E-02  0.1235069E+00
         21   -1    0    0  502  501  0.00000000000E+00  0.00000000000E+00  0.28123203790E+03  0.28123203790E+03  0.00000000000E+00 0.  1.
         21   -1    0    0  501  502 -0.00000000000E+00 -0.00000000000E+00 -0.13889775963E+02  0.13889775963E+02  0.00000000000E+00 0.  1.
         25    1    1    2    0    0  0.00000000000E+00  0.00000000000E+00  0.26734226193E+03  0.29512181386E+03  0.12500000000E+03 0.  0.
<mgrwt>
<rscale>  2 0.12500000E+03</rscale>
<asrwt>0</asrwt>
<pdfrwt beam="1">  1       21 0.43266463E-01 0.12500000E+03</pdfrwt>
<pdfrwt beam="2">  1       21 0.21368888E-02 0.12500000E+03</pdfrwt>
<totfact> 0.55864024E+06</totfact>
</mgrwt>
</event>
<event>
 3    0  0.1642047E+001  0.1250000E+03  0.7546771E-02  0.1235069E+00
         21   -1    0    0  502  501  0.00000000000E+00  0.00000000000E+00  0.19424030780E+02  0.19424030780E+02  0.00000000000E+00 0. -1.
         21   -1    0    0  501  502 -0.00000000000E+00 -0.00000000000E+00 -0.20110398527E+03  0.20110398527E+03  0.00000000000E+00 0. -1.
         25    1    1    2    0    0  0.00000000000E+00  0.00000000000E+00 -0.18167995449E+03  0.22052801605E+03  0.12500000000E+03 0.  0.
<mgrwt>
<rscale>  2 0.12500000E+03</rscale>
<asrwt>0</asrwt>
<pdfrwt beam="1">  1       21 0.29883124E-02 0.12500000E+03</pdfrwt>
<pdfrwt beam="2">  1       21 0.30939075E-01 0.12500000E+03</pdfrwt>
<totfact> 0.62768605E+06</totfact>
</mgrwt>
</event>
<event>
 3    0  0.1397969E+001  0.1250000E+03  0.7546771E-02  0.1235069E+00
         21   -1    0    0  502  501  0.00000000000E+00  0.00000000000E+00  0.68620688320E+03  0.68620688320E+03  0.00000000000E+00 0.  1.
         21   -1    0    0  501  502 -0.00000000000E+00 -0.00000000000E+00 -0.56925252364E+01  0.56925252364E+01  0.00000000000E+00 0.  1.
         25    1    1    2    0    0  0.00000000000E+00  0.00000000000E+00  0.68051435796E+03  0.69189940843E+03  0.12500000000E+03 0.  0.
<mgrwt>
<rscale>  2 0.12500000E+03</rscale>
<asrwt>0</asrwt>
<pdfrwt beam="1">  1       21 0.10557022E+00 0.12500000E+03</pdfrwt>
<pdfrwt beam="2">  1       21 0.87577366E-03 0.12500000E+03</pdfrwt>
<totfact> 0.33224808E+06</totfact>
</mgrwt>
</event>
<event>
 3    0  0.1690157E+001  0.1250000E+03  0.7546771E-02  0.1235069E+00
         21   -1    0    0  502  501  0.00000000000E+00  0.00000000000E+00  0.32521747849E+02  0.32521747849E+02  0.00000000000E+00 0. -1.
         21   -1    0    0  501  502 -0.00000000000E+00 -0.00000000000E+00 -0.12011193304E+03  0.12011193304E+03  0.00000000000E+00 0. -1.
         25    1    1    2    0    0  0.00000000000E+00  0.00000000000E+00 -0.87590185191E+02  0.15263368089E+03  0.12500000000E+03 0.  0.
<mgrwt>
<rscale>  2 0.12500000E+03</rscale>
<asrwt>0</asrwt>
<pdfrwt beam="1">  1       21 0.50033458E-02 0.12500000E+03</pdfrwt>
<pdfrwt beam="2">  1       21 0.18478759E-01 0.12500000E+03</pdfrwt>
<totfact> 0.70429910E+06</totfact>
</mgrwt>
</event>
<event>
 3    0  0.1368989E+001  0.1250000E+03  0.7546771E-02  0.1235069E+00
         21   -1    0    0  502  501  0.00000000000E+00  0.00000000000E+00  0.71023033805E+03  0.71023033805E+03  0.00000000000E+00 0.  1.
         21   -1    0    0  501  502 -0.00000000000E+00 -0.00000000000E+00 -0.54999762622E+01  0.54999762622E+01  0.00000000000E+00 0.  1.
         25    1    1    2    0    0  0.00000000000E+00  0.00000000000E+00  0.70473036179E+03  0.71573031431E+03  0.12500000000E+03 0.  0.
<mgrwt>
<rscale>  2 0.12500000E+03</rscale>
<asrwt>0</asrwt>
<pdfrwt beam="1">  1       21 0.10926613E+00 0.12500000E+03</pdfrwt>
<pdfrwt beam="2">  1       21 0.84615076E-03 0.12500000E+03</pdfrwt>
<totfact> 0.32312458E+06</totfact>
</mgrwt>
</event>
<event>
 3    0  0.1711231E+001  0.1250000E+03  0.7546771E-02  0.1235069E+00
         21   -1    0    0  502  501  0.00000000000E+00  0.00000000000E+00  0.67663820371E+02  0.67663820371E+02  0.00000000000E+00 0. -1.
         21   -1    0    0  501  502 -0.00000000000E+00 -0.00000000000E+00 -0.57730260848E+02  0.57730260848E+02  0.00000000000E+00 0. -1.
         25    1    1    2    0    0  0.00000000000E+00  0.00000000000E+00  0.99335595224E+01  0.12539408122E+03  0.12500000000E+03 0.  0.
<mgrwt>
<rscale>  2 0.12500000E+03</rscale>
<asrwt>0</asrwt>
<pdfrwt beam="1">  1       21 0.10409819E-01 0.12500000E+03</pdfrwt>
<pdfrwt beam="2">  1       21 0.88815786E-02 0.12500000E+03</pdfrwt>
<totfact> 0.73990244E+06</totfact>
</mgrwt>
</event>
<event>
 3    0  0.1530082E+001  0.1250000E+03  0.7546771E-02  0.1235069E+00
         21   -1    0    0  502  501  0.00000000000E+00  0.00000000000E+00  0.36918239691E+03  0.36918239691E+03  0.00000000000E+00 0. -1.
         21   -1    0    0  501  502 -0.00000000000E+00 -0.00000000000E+00 -0.10580813258E+02  0.10580813258E+02  0.00000000000E+00 0. -1.
         25    1    1    2    0    0  0.00000000000E+00  0.00000000000E+00  0.35860158365E+03  0.37976321017E+03  0.12500000000E+03 0.  0.
<mgrwt>
<rscale>  2 0.12500000E+03</rscale>
<asrwt>0</asrwt>
<pdfrwt beam="1">  1       21 0.56797282E-01 0.12500000E+03</pdfrwt>
<pdfrwt beam="2">  1       21 0.16278177E-02 0.12500000E+03</pdfrwt>
<totfact> 0.49412694E+06</totfact>
</mgrwt>
</event>
<event>
 3    0  0.1689713E+001  0.1250000E+03  0.7546771E-02  0.1235069E+00
         21   -1    0    0  502  501  0.00000000000E+00  0.00000000000E+00  0.11603156131E+03  0.11603156131E+03  0.00000000000E+00 0. -1.
         21   -1    0    0  501  502 -0.00000000000E+00 -0.00000000000E+00 -0.33665409272E+02  0.33665409272E+02  0.00000000000E+00 0. -1.
         25    1    1    2    0    0  0.00000000000E+00  0.00000000000E+00  0.82366152037E+02  0.14969697058E+03  0.12500000000E+03 0.  0.
<mgrwt>
<rscale>  2 0.12500000E+03</rscale>
<asrwt>0</asrwt>
<pdfrwt beam="1">  1       21 0.17851009E-01 0.12500000E+03</pdfrwt>
<pdfrwt beam="2">  1       21 0.51792938E-02 0.12500000E+03</pdfrwt>
<totfact> 0.70797288E+06</totfact>
</mgrwt>
</event>
<event>
 3    0  0.1642789E+001  0.1250000E+03  0.7546771E-02  0.1235069E+00
         21   -1    0    0  502  501  0.00000000000E+00  0.00000000000E+00  0.23943016714E+03  0.23943016714E+03  0.00000000000E+00 0.  1.
         21   -1    0    0  501  502 -0.00000000000E+00 -0.00000000000E+00 -0.16314777902E+02  0.16314777902E+02  0.00000000000E+00 0.  1.
         25    1    1    2    0    0  0.00000000000E+00  0.00000000000E+00  0.22311538924E+03  0.25574494505E+03  0.12500000000E+03 0.  0.
<mgrwt>
<rscale>  2 0.12500000E+03</rscale>
<asrwt>0</asrwt>
<pdfrwt beam="1">  1       21 0.36835408E-01 0.12500000E+03</pdfrwt>
<pdfrwt beam="2">  1       21 0.25099660E-02 0.12500000E+03</pdfrwt>
<totfact> 0.59341489E+06</totfact>
</mgrwt>
</event>
<event>
 3    0  0.1730567E+001  0.1250000E+03  0.7546771E-02  0.1235069E+00
         21   -1    0    0  502  501  0.00000000000E+00  0.00000000000E+00  0.85953635969E+02  0.85953635969E+02  0.00000000000E+00 0.  1.
         21   -1    0    0  501  502 -0.00000000000E+00 -0.00000000000E+00 -0.45446012330E+02  0.45446012330E+02  0.00000000000E+00 0.  1.
         25    1    1    2    0    0  0.00000000000E+00  0.00000000000E+00  0.40507623639E+02  0.13139964830E+03  0.12500000000E+03 0.  0.
<mgrwt>
<rscale>  2 0.12500000E+03</rscale>
<asrwt>0</asrwt>
<pdfrwt beam="1">  1       21 0.13223636E-01 0.12500000E+03</pdfrwt>
<pdfrwt beam="2">  1       21 0.69916943E-02 0.12500000E+03</pdfrwt>
<totfact> 0.73176866E+06</totfact>
</mgrwt>
</event>
<event>
 3    0  0.1661035E+001  0.1250000E+03  0.7546771E-02  0.1235069E+00
         21   -1    0    0  502  501  0.00000000000E+00  0.00000000000E+00  0.19303055191E+03  0.19303055191E+03  0.00000000000E+00 0.  1.
         21   -1    0    0  501  502 -0.00000000000E+00 -0.00000000000E+00 -0.20236433877E+02  0.20236433877E+02  0.00000000000E+00 0.  1.
         25    1    1    2    0    0  0.00000000000E+00  0.00000000000E+00  0.17279411803E+03  0.21326698579E+03  0.12500000000E+03 0.  0.
<mgrwt>
<rscale>  2 0.12500000E+03</rscale>
<asrwt>0</asrwt>
<pdfrwt beam="1">  1       21 0.29697007E-01 0.12500000E+03</pdfrwt>
<pdfrwt beam="2">  1       21 0.31132977E-02 0.12500000E+03</pdfrwt>
<totfact> 0.63517443E+06</totfact>
</mgrwt>
</event>
<event>
 3    0  0.1468688E+001  0.1250000E+03  0.7546771E-02  0.1235069E+00
         21   -1    0    0  502  501  0.00000000000E+00  0.00000000000E+00  0.43711586581E+03  0.43711586581E+03  0.00000000000E+00 0. -1.
         21   -1    0    0  501  502 -0.00000000000E+00 -0.00000000000E+00 -0.89364177912E+01  0.89364177912E+01  0.00000000000E+00 0. -1.
         25    1    1    2    0    0  0.00000000000E+00  0.00000000000E+00  0.42817944801E+03  0.44605228360E+03  0.12500000000E+03 0.  0.
<mgrwt>
<rscale>  2 0.12500000E+03</rscale>
<asrwt>0</asrwt>
<pdfrwt beam="1">  1       21 0.67248578E-01 0.12500000E+03</pdfrwt>
<pdfrwt beam="2">  1       21 0.13748338E-02 0.12500000E+03</pdfrwt>
<totfact> 0.45129443E+06</totfact>
</mgrwt>
</event>
<event>
 3    0  0.1707823E+001  0.1250000E+03  0.7546771E-02  0.1235069E+00
         21   -1    0    0  502  501  0.00000000000E+00  0.00000000000E+00  0.84646311046E+02  0.84646311046E+02  0.00000000000E+00 0. -1.
         21   -1    0    0  501  502 -0.00000000000E+00 -0.00000000000E+00 -0.46147905936E+02  0.46147905936E+02  0.00000000000E+00 0. -1.
         25    1    1    2    0    0  0.00000000000E+00  0.00000000000E+00  0.38498405109E+02  0.13079421698E+03  0.12500000000E+03 0.  0.
<mgrwt>
<rscale>  2 0.12500000E+03</rscale>
<asrwt>0</asrwt>
<pdfrwt beam="1">  1       21 0.13022509E-01 0.12500000E+03</pdfrwt>
<pdfrwt beam="2">  1       21 0.70996778E-02 0.12500000E+03</pdfrwt>
<totfact> 0.73258416E+06</totfact>
</mgrwt>
</event>
<event>
 3    0  0.1698303E+001  0.1250000E+03  0.7546771E-02  0.1235069E+00
         21   -1    0    0  502  501  0.00000000000E+00  0.00000000000E+00  0.29940503205E+02  0.29940503205E+02  0.00000000000E+00 0.  1.
         21   -1    0    0  501  502 -0.00000000000E+00 -0.00000000000E+00 -0.13046707910E+03  0.13046707910E+03  0.00000000000E+00 0.  1.
         25    1    1    2    0    0  0.00000000000E+00  0.00000000000E+00 -0.10052657590E+03  0.16040758231E+03  0.12500000000E+03 0.  0.
<mgrwt>
<rscale>  2 0.12500000E+03</rscale>
<asrwt>0</asrwt>
<pdfrwt beam="1">  1       21 0.46062313E-02 0.12500000E+03</pdfrwt>
<pdfrwt beam="2">  1       21 0.20071858E-01 0.12500000E+03</pdfrwt>
<totfact> 0.69469728E+06</totfact>
</mgrwt>
</event>
<event>
 3    0  0.1493711E+001  0.1250000E+03  0.7546771E-02  0.1235069E+00
         21   -1    0    0  502  501  0.00000000000E+00  0.00000000000E+00  0.75241502425E+01  0.75241502425E+01  0.00000000000E+00 0.  1.
         21   -1    0    0  501  502 -0.00000000000E+00 -0.00000000000E+00 -0.51916161614E+03  0.51916161614E+03  0.00000000000E+00 0.  1.
         25    1    1    2    0    0  0.00000000000E+00  0.00000000000E+00 -0.51163746590E+03  0.52668576639E+03  0.12500000000E+03 0.  0.
<mgrwt>
<rscale>  2 0.12500000E+03</rscale>
<asrwt>0</asrwt>
<pdfrwt beam="1">  1       21 0.11575614E-02 0.12500000E+03</pdfrwt>
<pdfrwt beam="2">  1       21 0.79871027E-01 0.12500000E+03</pdfrwt>
<totfact> 0.40632857E+06</totfact>
</mgrwt>
</event>
<event>
 3    0  0.1705109E+001  0.1250000E+03  0.7546771E-02  0.1235069E+00
         21   -1    0    0  502  501  0.00000000000E+00  0.00000000000E+00  0.14238751210E+03  0.14238751210E+03  0.00000000000E+00 0.  1.
         21   -1    0    0  501  502 -0.00000000000E+00 -0.00000000000E+00 -0.27433936744E+02  0.27433936744E+02  0.00000000000E+00 0.  1.
         25    1    1    2    0    0  0.00000000000E+00  0.00000000000E+00  0.11495357535E+03  0.16982144884E+03  0.12500000000E+03 0.  0.
<mgrwt>
<rscale>  2 0.12500000E+03</rscale>
<asrwt>0</asrwt>
<pdfrwt beam="1">  1       21 0.21905771E-01 0.12500000E+03</pdfrwt>
<pdfrwt beam="2">  1       21 0.42206057E-02 0.12500000E+03</pdfrwt>
<totfact> 0.68338808E+06</totfact>
</mgrwt>
</event>
<event>
 3    0  0.1368989E+001  0.1250000E+03  0.7546771E-02  0.1235069E+00
         21   -1    0    0  502  501  0.00000000000E+00  0.00000000000E+00  0.15351330423E+04  0.15351330423E+04  0.00000000000E+00 0. -1.
         21   -1    0    0  501  502 -0.00000000000E+00 -0.00000000000E+00 -0.25445677295E+01  0.25445677295E+01  0.00000000000E+00 0. -1.
         25    1    1    2    0    0  0.00000000000E+00  0.00000000000E+00  0.15325884746E+04  0.15376776101E+04  0.12500000000E+03 0.  0.
<mgrwt>
<rscale>  2 0.12500000E+03</rscale>
<asrwt>0</asrwt>
<pdfrwt beam="1">  1       21 0.23617357E+00 0.12500000E+03</pdfrwt>
<pdfrwt beam="2">  1       21 0.39147319E-03 0.12500000E+03</pdfrwt>
<totfact> 0.13443300E+06</totfact>
</mgrwt>
</event>
<event>
 3    0  0.1567262E+001  0.1250000E+03  0.7546771E-02  0.1235069E+00
         21   -1    0    0  502  501  0.00000000000E+00  0.00000000000E+00  0.13733490525E+02  0.13733490525E+02  0.00000000000E+00 0. -1.
         21   -1    0    0  501  502 -0.00000000000E+00 -0.00000000000E+00 -0.28443242400E+03  0.28443242400E+03  0.00000000000E+00 0. -1.
         25    1    1    2    0    0  0.00000000000E+00  0.00000000000E+00 -0.27069893348E+03  0.29816591453E+03  0.12500000000E+03 0.  0.
<mgrwt>
<rscale>  2 0.12500000E+03</rscale>
<asrwt>0</asrwt>
<pdfrwt beam="1">  1       21 0.21128447E-02 0.12500000E+03</pdfrwt>
<pdfrwt beam="2">  1       21 0.43758834E-01 0.12500000E+03</pdfrwt>
<totfact> 0.55608938E+06</totfact>
</mgrwt>
</event>
<event>
 3    0  0.1686163E+001  0.1250000E+03  0.7546771E-02  0.1235069E+00
         21   -1    0    0  502  501  0.00000000000E+00  0.00000000000E+00  0.31220149505E+02  0.31220149505E+02  0.00000000000E+00 0. -1.
         21   -1    0    0  501  502 -0.00000000000E+00 -0.00000000000E+00 -0.12511951614E+03  0.12511951614E+03  0.00000000000E+00 0. -1.
         25    1    1    2    0    0  0.00000000000E+00  0.00000000000E+00 -0.93899366637E+02  0.15633966565E+03  0.12500000000E+03 0.  0.
<mgrwt>
<rscale>  2 0.12500000E+03</rscale>
<asrwt>0</asrwt>
<pdfrwt beam="1">  1       21 0.48030998E-02 0.12500000E+03</pdfrwt>
<pdfrwt beam="2">  1       21 0.19249157E-01 0.12500000E+03</pdfrwt>
<totfact> 0.69969537E+06</totfact>
</mgrwt>
</event>
<event>
 3    0  0.1695365E+001  0.1250000E+03  0.7546771E-02  0.1235069E+00
         21   -1    0    0  502  501  0.00000000000E+00  0.00000000000E+00  0.10648281155E+03  0.10648281155E+03  0.00000000000E+00 0. -1.
         21   -1    0    0  501  502 -0.00000000000E+00 -0.00000000000E+00 -0.36684324382E+02  0.36684324382E+02  0.00000000000E+00 0. -1.
         25    1    1    2    0    0  0.00000000000E+00  0.00000000000E+00  0.69798487167E+02  0.14316713593E+03  0.12500000000E+03 0.  0.
<mgrwt>
<rscale>  2 0.12500000E+03</rscale>
<asrwt>0</asrwt>
<pdfrwt beam="1">  1       21 0.16381971E-01 0.12500000E+03</pdfrwt>
<pdfrwt beam="2">  1       21 0.56437423E-02 0.12500000E+03</pdfrwt>
<totfact> 0.71628494E+06</totfact>
</mgrwt>
</event>
<event>
 3    0  0.1710601E+001  0.1250000E+03  0.7546771E-02  0.1235069E+00
         21   -1    0    0  502  501  0.00000000000E+00  0.00000000000E+00  0.53244379112E+02  0.53244379112E+02  0.00000000000E+00 0. -1.
         21   -1    0    0  501  502 -0.00000000000E+00 -0.00000000000E+00 -0.73364551623E+02  0.73364551623E+02  0.00000000000E+00 0. -1.
         25    1    1    2    0    0  0.00000000000E+00  0.00000000000E+00 -0.20120172511E+02  0.12660893074E+03  0.12500000000E+03 0.  0.
<mgrwt>
<rscale>  2 0.12500000E+03</rscale>
<asrwt>0</asrwt>
<pdfrwt beam="1">  1       21 0.81914430E-02 0.12500000E+03</pdfrwt>
<pdfrwt beam="2">  1       21 0.11286854E-01 0.12500000E+03</pdfrwt>
<totfact> 0.73822475E+06</totfact>
</mgrwt>
</event>
<event>
 3    0  0.1712023E+001  0.1250000E+03  0.7546771E-02  0.1235069E+00
         21   -1    0    0  502  501  0.00000000000E+00  0.00000000000E+00  0.51778292240E+02  0.51778292240E+02  0.00000000000E+00 0. -1.
         21   -1    0    0  501  502 -0.00000000000E+00 -0.00000000000E+00 -0.75441846979E+02  0.75441846979E+02  0.00000000000E+00 0. -1.
         25    1    1    2    0    0  0.00000000000E+00  0.00000000000E+00 -0.23663554738E+02  0.12722013922E+03  0.12500000000E+03 0.  0.
<mgrwt>
<rscale>  2 0.12500000E+03</rscale>
<asrwt>0</asrwt>
<pdfrwt beam="1">  1       21 0.79658911E-02 0.12500000E+03</pdfrwt>
<pdfrwt beam="2">  1       21 0.11606438E-01 0.12500000E+03</pdfrwt>
<totfact> 0.73739198E+06</totfact>
</mgrwt>
</event>
<event>
 3    0  0.1686641E+001  0.1250000E+03  0.7546771E-02  0.1235069E+00
         21   -1    0    0  502  501  0.00000000000E+00  0.00000000000E+00  0.32091702567E+02  0.32091702567E+02  0.00000000000E+00 0. -1.
         21   -1    0    0  501  502 -0.00000000000E+00 -0.00000000000E+00 -0.12172149458E+03  0.12172149458E+03  0.00000000000E+00 0. -1.
         25    1    1    2    0    0  0.00000000000E+00  0.00000000000E+00 -0.89629792009E+02  0.15381319714E+03  0.12500000000E+03 0.  0.
<mgrwt>
<rscale>  2 0.12500000E+03</rscale>
<asrwt>0</asrwt>
<pdfrwt beam="1">  1       21 0.49371850E-02 0.12500000E+03</pdfrwt>
<pdfrwt beam="2">  1       21 0.18726384E-01 0.12500000E+03</pdfrwt>
<totfact> 0.70283416E+06</totfact>
</mgrwt>
</event>
<event>
 3    0  0.1694580E+001  0.1250000E+03  0.7546771E-02  0.1235069E+00
         21   -1    0    0  502  501  0.00000000000E+00  0.00000000000E+00  0.37667059473E+02  0.37667059473E+02  0.00000000000E+00 0. -1.
         21   -1    0    0  501  502 -0.00000000000E+00 -0.00000000000E+00 -0.10370467073E+03  0.10370467073E+03  0.00000000000E+00 0. -1.
         25    1    1    2    0    0  0.00000000000E+00  0.00000000000E+00 -0.66037611257E+02  0.14137173020E+03  0.12500000000E+03 0.  0.
<mgrwt>
<rscale>  2 0.12500000E+03</rscale>
<asrwt>0</asrwt>
<pdfrwt beam="1">  1       21 0.57949324E-02 0.12500000E+03</pdfrwt>
<pdfrwt beam="2">  1       21 0.15954564E-01 0.12500000E+03</pdfrwt>
<totfact> 0.71860734E+06</totfact>
</mgrwt>
</event>
<event>
 3    0  0.1674167E+001  0.1250000E+03  0.7546771E-02  0.1235069E+00
         21   -1    0    0  502  501  0.00000000000E+00  0.00000000000E+00  0.16429563451E+03  0.16429563451E+03  0.00000000000E+00 0.  1.
         21   -1    0    0  501  502 -0.00000000000E+00 -0.00000000000E+00 -0.23775738240E+02  0.23775738240E+02  0.00000000000E+00 0.  1.
         25    1    1    2    0    0  0.00000000000E+00  0.00000000000E+00  0.14051989627E+03  0.18807137275E+03  0.12500000000E+03 0.  0.
<mgrwt>
<rscale>  2 0.12500000E+03</rscale>
<asrwt>0</asrwt>
<pdfrwt beam="1">  1       21 0.25276251E-01 0.12500000E+03</pdfrwt>
<pdfrwt beam="2">  1       21 0.36578060E-02 0.12500000E+03</pdfrwt>
<totfact> 0.66237457E+06</totfact>
</mgrwt>
</event>
<event>
 3    0  0.1583890E+001  0.1250000E+03  0.7546771E-02  0.1235069E+00
         21   -1    0    0  502  501  0.00000000000E+00  0.00000000000E+00  0.27678775759E+03  0.27678775759E+03  0.00000000000E+00 0. -1.
         21   -1    0    0  501  502 -0.00000000000E+00 -0.00000000000E+00 -0.14112799042E+02  0.14112799042E+02  0.00000000000E+00 0. -1.
         25    1    1    2    0    0  0.00000000000E+00  0.00000000000E+00  0.26267495854E+03  0.29090055663E+03  0.12500000000E+03 0.  0.
<mgrwt>
<rscale>  2 0.12500000E+03</rscale>
<asrwt>0</asrwt>
<pdfrwt beam="1">  1       21 0.42582728E-01 0.12500000E+03</pdfrwt>
<pdfrwt beam="2">  1       21 0.21712001E-02 0.12500000E+03</pdfrwt>
<totfact> 0.56220955E+06</totfact>
</mgrwt>
</event>
<event>
 3    0  0.1368989E+001  0.1250000E+03  0.7546771E-02  0.1235069E+00
         21   -1    0    0  502  501  0.00000000000E+00  0.00000000000E+00  0.29260192583E+01  0.29260192583E+01  0.00000000000E+00 0.  1.
         21   -1    0    0  501  502 -0.00000000000E+00 -0.00000000000E+00 -0.13350048838E+04  0.13350048838E+04  0.00000000000E+00 0.  1.
         25    1    1    2    0    0  0.00000000000E+00  0.00000000000E+00 -0.13320788646E+04  0.13379309031E+04  0.12500000000E+03 0.  0.
<mgrwt>
<rscale>  2 0.12500000E+03</rscale>
<asrwt>0</asrwt>
<pdfrwt beam="1">  1       21 0.45015753E-03 0.12500000E+03</pdfrwt>
<pdfrwt beam="2">  1       21 0.20538504E+00 0.12500000E+03</pdfrwt>
<totfact> 0.16584778E+06</totfact>
</mgrwt>
</event>
<event>
 3    0  0.1551737E+001  0.1250000E+03  0.7546771E-02  0.1235069E+00
         21   -1    0    0  502  501  0.00000000000E+00  0.00000000000E+00  0.10877798645E+02  0.10877798645E+02  0.00000000000E+00 0. -1.
         21   -1    0    0  501  502 -0.00000000000E+00 -0.00000000000E+00 -0.35910298835E+03  0.35910298835E+03  0.00000000000E+00 0. -1.
         25    1    1    2    0    0  0.00000000000E+00  0.00000000000E+00 -0.34822518970E+03  0.36998078699E+03  0.12500000000E+03 0.  0.
<mgrwt>
<rscale>  2 0.12500000E+03</rscale>
<asrwt>0</asrwt>
<pdfrwt beam="1">  1       21 0.16735074E-02 0.12500000E+03</pdfrwt>
<pdfrwt beam="2">  1       21 0.55246615E-01 0.12500000E+03</pdfrwt>
<totfact> 0.50095805E+06</totfact>
</mgrwt>
</event>
<event>
 3    0  0.1467947E+001  0.1250000E+03  0.7546771E-02  0.1235069E+00
         21   -1    0    0  502  501  0.00000000000E+00  0.00000000000E+00  0.89243438399E+01  0.89243438399E+01  0.00000000000E+00 0. -1.
         21   -1    0    0  501  502 -0.00000000000E+00 -0.00000000000E+00 -0.43770724997E+03  0.43770724997E+03  0.00000000000E+00 0. -1.
         25    1    1    2    0    0  0.00000000000E+00  0.00000000000E+00 -0.42878290613E+03  0.44663159381E+03  0.12500000000E+03 0.  0.
<mgrwt>
<rscale>  2 0.12500000E+03</rscale>
<asrwt>0</asrwt>
<pdfrwt beam="1">  1       21 0.13729756E-02 0.12500000E+03</pdfrwt>
<pdfrwt beam="2">  1       21 0.67339597E-01 0.12500000E+03</pdfrwt>
<totfact> 0.45094507E+06</totfact>
</mgrwt>
</event>
<event>
 3    0  0.1623502E+001  0.1250000E+03  0.7546771E-02  0.1235069E+00
         21   -1    0    0  502  501  0.00000000000E+00  0.00000000000E+00  0.21735312344E+03  0.21735312344E+03  0.00000000000E+00 0. -1.
         21   -1    0    0  501  502 -0.00000000000E+00 -0.00000000000E+00 -0.17971906445E+02  0.17971906445E+02  0.00000000000E+00 0. -1.
         25    1    1    2    0    0  0.00000000000E+00  0.00000000000E+00  0.19938121699E+03  0.23532502988E+03  0.12500000000E+03 0.  0.
<mgrwt>
<rscale>  2 0.12500000E+03</rscale>
<asrwt>0</asrwt>
<pdfrwt beam="1">  1       21 0.33438940E-01 0.12500000E+03</pdfrwt>
<pdfrwt beam="2">  1       21 0.27649088E-02 0.12500000E+03</pdfrwt>
<totfact> 0.61288006E+06</totfact>
</mgrwt>
</event>
<event>
 3    0  0.1647626E+001  0.1250000E+03  0.7546771E-02  0.1235069E+00
         21   -1    0    0  502  501  0.00000000000E+00  0.00000000000E+00  0.19861272521E+03  0.19861272521E+03  0.00000000000E+00 0. -1.
         21   -1    0    0  501  502 -0.00000000000E+00 -0.00000000000E+00 -0.19667672330E+02  0.19667672330E+02  0.00000000000E+00 0. -1.
         25    1    1    2    0    0  0.00000000000E+00  0.00000000000E+00  0.17894505288E+03  0.21828039754E+03  0.12500000000E+03 0.  0.
<mgrwt>
<rscale>  2 0.12500000E+03</rscale>
<asrwt>0</asrwt>
<pdfrwt beam="1">  1       21 0.30555803E-01 0.12500000E+03</pdfrwt>
<pdfrwt beam="2">  1       21 0.30257959E-02 0.12500000E+03</pdfrwt>
<totfact> 0.62998736E+06</totfact>
</mgrwt>
</event>
<event>
 3    0  0.1368989E+001  0.1250000E+03  0.7546771E-02  0.1235069E+00
         21   -1    0    0  502  501  0.00000000000E+00  0.00000000000E+00  0.15914261079E+04  0.15914261079E+04  0.00000000000E+00 0. -1.
         21   -1    0    0  501  502 -0.00000000000E+00 -0.00000000000E+00 -0.24545594549E+01  0.24545594549E+01  0.00000000000E+00 0. -1.
         25    1    1    2    0    0  0.00000000000E+00  0.00000000000E+00  0.15889715485E+04  0.15938806674E+04  0.12500000000E+03 0.  0.
<mgrwt>
<rscale>  2 0.12500000E+03</rscale>
<asrwt>0</asrwt>
<pdfrwt beam="1">  1       21 0.24483396E+00 0.12500000E+03</pdfrwt>
<pdfrwt beam="2">  1       21 0.37762580E-03 0.12500000E+03</pdfrwt>
<totfact> 0.12657064E+06</totfact>
</mgrwt>
</event>
<event>
 3    0  0.1368989E+001  0.1250000E+03  0.7546771E-02  0.1235069E+00
         21   -1    0    0  502  501  0.00000000000E+00  0.00000000000E+00  0.50131620180E+01  0.50131620180E+01  0.00000000000E+00 0. -1.
         21   -1    0    0  501  502 -0.00000000000E+00 -0.00000000000E+00 -0.77919883418E+03  0.77919883418E+03  0.00000000000E+00 0. -1.
         25    1    1    2    0    0  0.00000000000E+00  0.00000000000E+00 -0.77418567216E+03  0.78421199620E+03  0.12500000000E+03 0.  0.
<mgrwt>
<rscale>  2 0.12500000E+03</rscale>
<asrwt>0</asrwt>
<pdfrwt beam="1">  1       21 0.77125521E-03 0.12500000E+03</pdfrwt>
<pdfrwt beam="2">  1       21 0.11987682E+00 0.12500000E+03</pdfrwt>
<totfact> 0.29892610E+06</totfact>
</mgrwt>
</event>
<event>
 3    0  0.1442820E+001  0.1250000E+03  0.7546771E-02  0.1235069E+00
         21   -1    0    0  502  501  0.00000000000E+00  0.00000000000E+00  0.71402145031E+01  0.71402145031E+01  0.00000000000E+00 0.  1.
         21   -1    0    0  501  502 -0.00000000000E+00 -0.00000000000E+00 -0.54707740199E+03  0.54707740199E+03  0.00000000000E+00 0.  1.
         25    1    1    2    0    0  0.00000000000E+00  0.00000000000E+00 -0.53993718749E+03  0.55421761650E+03  0.12500000000E+03 0.  0.
<mgrwt>
<rscale>  2 0.12500000E+03</rscale>
<asrwt>0</asrwt>
<pdfrwt beam="1">  1       21 0.10984948E-02 0.12500000E+03</pdfrwt>
<pdfrwt beam="2">  1       21 0.84165737E-01 0.12500000E+03</pdfrwt>
<totfact> 0.39248478E+06</totfact>
</mgrwt>
</event>
<event>
 3    0  0.1736562E+001  0.1250000E+03  0.7546771E-02  0.1235069E+00
         21   -1    0    0  502  501  0.00000000000E+00  0.00000000000E+00  0.58376836622E+02  0.58376836622E+02  0.00000000000E+00 0.  1.
         21   -1    0    0  501  502 -0.00000000000E+00 -0.00000000000E+00 -0.66914382931E+02  0.66914382931E+02  0.00000000000E+00 0.  1.
         25    1    1    2    0    0  0.00000000000E+00  0.00000000000E+00 -0.85375463096E+01  0.12529121955E+03  0.12500000000E+03 0.  0.
<mgrwt>
<rscale>  2 0.12500000E+03</rscale>
<asrwt>0</asrwt>
<pdfrwt beam="1">  1       21 0.89810518E-02 0.12500000E+03</pdfrwt>
<pdfrwt beam="2">  1       21 0.10294520E-01 0.12500000E+03</pdfrwt>
<totfact> 0.74004257E+06</totfact>
</mgrwt>
</event>
<event>
 3    0  0.1606835E+001  0.1250000E+03  0.7546771E-02  0.1235069E+00
         21   -1    0    0  502  501  0.00000000000E+00  0.00000000000E+00  0.15144835915E+02  0.15144835915E+02  0.00000000000E+00 0. -1.
         21   -1    0    0  501  502 -0.00000000000E+00 -0.00000000000E+00 -0.25792620151E+03  0.25792620151E+03  0.00000000000E+00 0. -1.
         25    1    1    2    0    0  0.00000000000E+00  0.00000000000E+00 -0.24278136559E+03  0.27307103742E+03  0.12500000000E+03 0.  0.
<mgrwt>
<rscale>  2 0.12500000E+03</rscale>
<asrwt>0</asrwt>
<pdfrwt beam="1">  1       21 0.23299747E-02 0.12500000E+03</pdfrwt>
<pdfrwt beam="2">  1       21 0.39680954E-01 0.12500000E+03</pdfrwt>
<totfact> 0.57771048E+06</totfact>
</mgrwt>
</event>
<event>
 3    0  0.1718080E+001  0.1250000E+03  0.7546771E-02  0.1235069E+00
         21   -1    0    0  502  501  0.00000000000E+00  0.00000000000E+00  0.34282101445E+02  0.34282101445E+02  0.00000000000E+00 0.  1.
         21   -1    0    0  501  502 -0.00000000000E+00 -0.00000000000E+00 -0.11394429849E+03  0.11394429849E+03  0.00000000000E+00 0.  1.
         25    1    1    2    0    0  0.00000000000E+00  0.00000000000E+00 -0.79662197049E+02  0.14822639994E+03  0.12500000000E+03 0.  0.
<mgrwt>
<rscale>  2 0.12500000E+03</rscale>
<asrwt>0</asrwt>
<pdfrwt beam="1">  1       21 0.52741694E-02 0.12500000E+03</pdfrwt>
<pdfrwt beam="2">  1       21 0.17529892E-01 0.12500000E+03</pdfrwt>
<totfact> 0.70982714E+06</totfact>
</mgrwt>
</event>
<event>
 3    0  0.1663826E+001  0.1250000E+03  0.7546771E-02  0.1235069E+00
         21   -1    0    0  502  501  0.00000000000E+00  0.00000000000E+00  0.22346857867E+02  0.22346857867E+02  0.00000000000E+00 0. -1.
         21   -1    0    0  501  502 -0.00000000000E+00 -0.00000000000E+00 -0.17480086118E+03  0.17480086118E+03  0.00000000000E+00 0. -1.
         25    1    1    2    0    0  0.00000000000E+00  0.00000000000E+00 -0.15245400332E+03  0.19714771905E+03  0.12500000000E+03 0.  0.
<mgrwt>
<rscale>  2 0.12500000E+03</rscale>
<asrwt>0</asrwt>
<pdfrwt beam="1">  1       21 0.34379782E-02 0.12500000E+03</pdfrwt>
<pdfrwt beam="2">  1       21 0.26892440E-01 0.12500000E+03</pdfrwt>
<totfact> 0.65236725E+06</totfact>
</mgrwt>
</event>
<event>
 3    0  0.1577184E+001  0.1250000E+03  0.7546771E-02  0.1235069E+00
         21   -1    0    0  502  501  0.00000000000E+00  0.00000000000E+00  0.12095217006E+02  0.12095217006E+02  0.00000000000E+00 0.  1.
         21   -1    0    0  501  502 -0.00000000000E+00 -0.00000000000E+00 -0.32295824028E+03  0.32295824028E+03  0.00000000000E+00 0.  1.
         25    1    1    2    0    0  0.00000000000E+00  0.00000000000E+00 -0.31086302327E+03  0.33505345729E+03  0.12500000000E+03 0.  0.
<mgrwt>
<rscale>  2 0.12500000E+03</rscale>
<asrwt>0</asrwt>
<pdfrwt beam="1">  1       21 0.18608029E-02 0.12500000E+03</pdfrwt>
<pdfrwt beam="2">  1       21 0.49685876E-01 0.12500000E+03</pdfrwt>
<totfact> 0.52661587E+06</totfact>
</mgrwt>
</event>
<event>
 3    0  0.1719696E+001  0.1250000E+03  0.7546771E-02  0.1235069E+00
         21   -1    0    0  502  501  0.00000000000E+00  0.00000000000E+00  0.36638379048E+02  0.36638379048E+02  0.00000000000E+00 0.  1.
         21   -1    0    0  501  502 -0.00000000000E+00 -0.00000000000E+00 -0.10661634334E+03  0.10661634334E+03  0.00000000000E+00 0.  1.
         25    1    1    2    0    0  0.00000000000E+00  0.00000000000E+00 -0.69977964291E+02  0.14325472239E+03  0.12500000000E+03 0.  0.
<mgrwt>
<rscale>  2 0.12500000E+03</rscale>
<asrwt>0</asrwt>
<pdfrwt beam="1">  1       21 0.56366737E-02 0.12500000E+03</pdfrwt>
<pdfrwt beam="2">  1       21 0.16402514E-01 0.12500000E+03</pdfrwt>
<totfact> 0.71617207E+06</totfact>
</mgrwt>
</event>
<event>
 3    0  0.1668261E+001  0.1250000E+03  0.7546771E-02  0.1235069E+00
         21   -1    0    0  502  501  0.00000000000E+00  0.00000000000E+00  0.19007477922E+03  0.19007477922E+03  0.00000000000E+00 0.  1.
         21   -1    0    0  501  502 -0.00000000000E+00 -0.00000000000E+00 -0.20551122121E+02  0.20551122121E+02  0.00000000000E+00 0.  1.
         25    1    1    2    0    0  0.00000000000E+00  0.00000000000E+00  0.16952365710E+03  0.21062590134E+03  0.12500000000E+03 0.  0.
<mgrwt>
<rscale>  2 0.12500000E+03</rscale>
<asrwt>0</asrwt>
<pdfrwt beam="1">  1       21 0.29242273E-01 0.12500000E+03</pdfrwt>
<pdfrwt beam="2">  1       21 0.31617112E-02 0.12500000E+03</pdfrwt>
<totfact> 0.63793744E+06</totfact>
</mgrwt>
</event>
<event>
 3    0  0.1684829E+001  0.1250000E+03  0.7546771E-02  0.1235069E+00
         21   -1    0    0  502  501  0.00000000000E+00  0.00000000000E+00  0.15988999992E+03  0.15988999992E+03  0.00000000000E+00 0.  1.
         21   -1    0    0  501  502 -0.00000000000E+00 -0.00000000000E+00 -0.24430858727E+02  0.24430858727E+02  0.00000000000E+00 0.  1.
         25    1    1    2    0    0  0.00000000000E+00  0.00000000000E+00  0.13545914120E+03  0.18432085865E+03  0.12500000000E+03 0.  0.
<mgrwt>
<rscale>  2 0.12500000E+03</rscale>
<asrwt>0</asrwt>
<pdfrwt beam="1">  1       21 0.24598461E-01 0.12500000E+03</pdfrwt>
<pdfrwt beam="2">  1       21 0.37585938E-02 0.12500000E+03</pdfrwt>
<totfact> 0.66659286E+06</totfact>
</mgrwt>
</event>
<event>
 3    0  0.1537978E+001  0.1250000E+03  0.7546771E-02  0.1235069E+00
         21   -1    0    0  502  501  0.00000000000E+00  0.00000000000E+00  0.99295659248E+01  0.99295659248E+01  0.00000000000E+00 0.  1.
         21   -1    0    0  501  502 -0.00000000000E+00 -0.00000000000E+00 -0.39339584727E+03  0.39339584727E+03  0.00000000000E+00 0.  1.
         25    1    1    2    0    0  0.00000000000E+00  0.00000000000E+00 -0.38346628134E+03  0.40332541319E+03  0.12500000000E+03 0.  0.
<mgrwt>
<rscale>  2 0.12500000E+03</rscale>
<asrwt>0</asrwt>
<pdfrwt beam="1">  1       21 0.15276256E-02 0.12500000E+03</pdfrwt>
<pdfrwt beam="2">  1       21 0.60522436E-01 0.12500000E+03</pdfrwt>
<totfact> 0.47821560E+06</totfact>
</mgrwt>
</event>
<event>
 3    0  0.1708468E+001  0.1250000E+03  0.7546771E-02  0.1235069E+00
         21   -1    0    0  502  501  0.00000000000E+00  0.00000000000E+00  0.75469208021E+02  0.75469208021E+02  0.00000000000E+00 0. -1.
         21   -1    0    0  501  502 -0.00000000000E+00 -0.00000000000E+00 -0.51759520239E+02  0.51759520239E+02  0.00000000000E+00 0. -1.
         25    1    1    2    0    0  0.00000000000E+00  0.00000000000E+00  0.23709687781E+02  0.12722872826E+03  0.12500000000E+03 0.  0.
<mgrwt>
<rscale>  2 0.12500000E+03</rscale>
<asrwt>0</asrwt>
<pdfrwt beam="1">  1       21 0.11610647E-01 0.12500000E+03</pdfrwt>
<pdfrwt beam="2">  1       21 0.79630031E-02 0.12500000E+03</pdfrwt>
<totfact> 0.73738031E+06</totfact>
</mgrwt>
</event>
<event>
 3    0  0.1694801E+001  0.1250000E+03  0.7546771E-02  0.1235069E+00
         21   -1    0    0  502  501  0.00000000000E+00  0.00000000000E+00  0.10676441275E+03  0.10676441275E+03  0.00000000000E+00 0. -1.
         21   -1    0    0  501  502 -0.00000000000E+00 -0.00000000000E+00 -0.36587566018E+02  0.36587566018E+02  0.00000000000E+00 0. -1.
         25    1    1    2    0    0  0.00000000000E+00  0.00000000000E+00  0.70176846734E+02  0.14335197877E+03  0.12500000000E+03 0.  0.
<mgrwt>
<rscale>  2 0.12500000E+03</rscale>
<asrwt>0</asrwt>
<pdfrwt beam="1">  1       21 0.16425294E-01 0.12500000E+03</pdfrwt>
<pdfrwt beam="2">  1       21 0.56288563E-02 0.12500000E+03</pdfrwt>
<totfact> 0.71604678E+06</totfact>
</mgrwt>
</event>
<event>
 3    0  0.1474465E+001  0.1250000E+03  0.7546771E-02  0.1235069E+00
         21   -1    0    0  502  501  0.00000000000E+00  0.00000000000E+00  0.49466303263E+03  0.49466303263E+03  0.00000000000E+00 0.  1.
         21   -1    0    0  501  502 -0.00000000000E+00 -0.00000000000E+00 -0.78967898192E+01  0.78967898192E+01  0.00000000000E+00 0.  1.
         25    1    1    2    0    0  0.00000000000E+00  0.00000000000E+00  0.48676624281E+03  0.50255982245E+03  0.12500000000E+03 0.  0.
<mgrwt>
<rscale>  2 0.12500000E+03</rscale>
<asrwt>0</asrwt>
<pdfrwt beam="1">  1       21 0.76101981E-01 0.12500000E+03</pdfrwt>
<pdfrwt beam="2">  1       21 0.12148911E-02 0.12500000E+03</pdfrwt>
<totfact> 0.41905593E+06</totfact>
</mgrwt>
</event>
<event>
 3    0  0.1539015E+001  0.1250000E+03  0.7546771E-02  0.1235069E+00
         21   -1    0    0  502  501  0.00000000000E+00  0.00000000000E+00  0.11121927889E+02  0.11121927889E+02  0.00000000000E+00 0.  1.
         21   -1    0    0  501  502 -0.00000000000E+00 -0.00000000000E+00 -0.35122058326E+03  0.35122058326E+03  0.00000000000E+00 0.  1.
         25    1    1    2    0    0  0.00000000000E+00  0.00000000000E+00 -0.34009865537E+03  0.36234251114E+03  0.12500000000E+03 0.  0.
<mgrwt>
<rscale>  2 0.12500000E+03</rscale>
<asrwt>0</asrwt>
<pdfrwt beam="1">  1       21 0.17110660E-02 0.12500000E+03</pdfrwt>
<pdfrwt beam="2">  1       21 0.54033932E-01 0.12500000E+03</pdfrwt>
<totfact> 0.50639623E+06</totfact>
</mgrwt>
</event>
<event>
 3    0  0.1368989E+001  0.1250000E+03  0.7546771E-02  0.1235069E+00
         21   -1    0    0  502  501  0.00000000000E+00  0.00000000000E+00  0.40564631543E+01  0.40564631543E+01  0.00000000000E+00 0. -1.
         21   -1    0    0  501  502 -0.00000000000E+00 -0.00000000000E+00 -0.96296942716E+03  0.96296942716E+03  0.00000000000E+00 0. -1.
         25    1    1    2    0    0  0.00000000000E+00  0.00000000000E+00 -0.95891296401E+03  0.96702589032E+03  0.12500000000E+03 0.  0.
<mgrwt>
<rscale>  2 0.12500000E+03</rscale>
<asrwt>0</asrwt>
<pdfrwt beam="1">  1       21 0.62407051E-03 0.12500000E+03</pdfrwt>
<pdfrwt beam="2">  1       21 0.14814932E+00 0.12500000E+03</pdfrwt>
<totfact> 0.24461004E+06</totfact>
</mgrwt>
</event>
<event>
 3    0  0.1547295E+001  0.1250000E+03  0.7546771E-02  0.1235069E+00
         21   -1    0    0  502  501  0.00000000000E+00  0.00000000000E+00  0.10044275272E+02  0.10044275272E+02  0.00000000000E+00 0.  1.
         21   -1    0    0  501  502 -0.00000000000E+00 -0.00000000000E+00 -0.38890312087E+03  0.38890312087E+03  0.00000000000E+00 0.  1.
         25    1    1    2    0    0  0.00000000000E+00  0.00000000000E+00 -0.37885884559E+03  0.39894739614E+03  0.12500000000E+03 0.  0.
<mgrwt>
<rscale>  2 0.12500000E+03</rscale>
<asrwt>0</asrwt>
<pdfrwt beam="1">  1       21 0.15452733E-02 0.12500000E+03</pdfrwt>
<pdfrwt beam="2">  1       21 0.59831242E-01 0.12500000E+03</pdfrwt>
<totfact> 0.48111250E+06</totfact>
</mgrwt>
</event>
<event>
 3    0  0.1657035E+001  0.1250000E+03  0.7546771E-02  0.1235069E+00
         21   -1    0    0  502  501  0.00000000000E+00  0.00000000000E+00  0.21993707295E+02  0.21993707295E+02  0.00000000000E+00 0. -1.
         21   -1    0    0  501  502 -0.00000000000E+00 -0.00000000000E+00 -0.17760761965E+03  0.17760761965E+03  0.00000000000E+00 0. -1.
         25    1    1    2    0    0  0.00000000000E+00  0.00000000000E+00 -0.15561391236E+03  0.19960132695E+03  0.12500000000E+03 0.  0.
<mgrwt>
<rscale>  2 0.12500000E+03</rscale>
<asrwt>0</asrwt>
<pdfrwt beam="1">  1       21 0.33836473E-02 0.12500000E+03</pdfrwt>
<pdfrwt beam="2">  1       21 0.27324249E-01 0.12500000E+03</pdfrwt>
<totfact> 0.64970476E+06</totfact>
</mgrwt>
</event>
<event>
 3    0  0.1674726E+001  0.1250000E+03  0.7546771E-02  0.1235069E+00
         21   -1    0    0  502  501  0.00000000000E+00  0.00000000000E+00  0.28729774240E+02  0.28729774240E+02  0.00000000000E+00 0. -1.
         21   -1    0    0  501  502 -0.00000000000E+00 -0.00000000000E+00 -0.13596521738E+03  0.13596521738E+03  0.00000000000E+00 0. -1.
         25    1    1    2    0    0  0.00000000000E+00  0.00000000000E+00 -0.10723544314E+03  0.16469499163E+03  0.12500000000E+03 0.  0.
<mgrwt>
<rscale>  2 0.12500000E+03</rscale>
<asrwt>0</asrwt>
<pdfrwt beam="1">  1       21 0.44199654E-02 0.12500000E+03</pdfrwt>
<pdfrwt beam="2">  1       21 0.20917725E-01 0.12500000E+03</pdfrwt>
<totfact> 0.68950321E+06</totfact>
</mgrwt>
</event>
<event>
 3    0  0.1736059E+001  0.1250000E+03  0.7546771E-02  0.1235069E+00
         21   -1    0    0  502  501  0.00000000000E+00  0.00000000000E+00  0.68401737732E+02  0.68401737732E+02  0.00000000000E+00 0.  1.
         21   -1    0    0  501  502 -0.00000000000E+00 -0.00000000000E+00 -0.57107467289E+02  0.57107467289E+02  0.00000000000E+00 0.  1.
         25    1    1    2    0    0  0.00000000000E+00  0.00000000000E+00  0.11294270443E+02  0.12550920502E+03  0.12500000000E+03 0.  0.
<mgrwt>
<rscale>  2 0.12500000E+03</rscale>
<asrwt>0</asrwt>
<pdfrwt beam="1">  1       21 0.10523344E-01 0.12500000E+03</pdfrwt>
<pdfrwt beam="2">  1       21 0.87857642E-02 0.12500000E+03</pdfrwt>
<totfact> 0.73974110E+06</totfact>
</mgrwt>
</event>
<event>
 3    0  0.1384090E+001  0.1250000E+03  0.7546771E-02  0.1235069E+00
         21   -1    0    0  502  501  0.00000000000E+00  0.00000000000E+00  0.65257847714E+03  0.65257847714E+03  0.00000000000E+00 0.  1.
         21   -1    0    0  501  502 -0.00000000000E+00 -0.00000000000E+00 -0.59858701088E+01  0.59858701088E+01  0.00000000000E+00 0.  1.
         25    1    1    2    0    0  0.00000000000E+00  0.00000000000E+00  0.64659260703E+03  0.65856434725E+03  0.12500000000E+03 0.  0.
<mgrwt>
<rscale>  2 0.12500000E+03</rscale>
<asrwt>0</asrwt>
<pdfrwt beam="1">  1       21 0.10039663E+00 0.12500000E+03</pdfrwt>
<pdfrwt beam="2">  1       21 0.92090361E-03 0.12500000E+03</pdfrwt>
<totfact> 0.34569480E+06</totfact>
</mgrwt>
</event>
<event>
 3    0  0.1476760E+001  0.1250000E+03  0.7546771E-02  0.1235069E+00
         21   -1    0    0  502  501  0.00000000000E+00  0.00000000000E+00  0.90184562611E+01  0.90184562611E+01  0.00000000000E+00 0. -1.
         21   -1    0    0  501  502 -0.00000000000E+00 -0.00000000000E+00 -0.43313954039E+03  0.43313954039E+03  0.00000000000E+00 0. -1.
         25    1    1    2    0    0  0.00000000000E+00  0.00000000000E+00 -0.42412108413E+03  0.44215799666E+03  0.12500000000E+03 0.  0.
<mgrwt>
<rscale>  2 0.12500000E+03</rscale>
<asrwt>0</asrwt>
<pdfrwt beam="1">  1       21 0.13874548E-02 0.12500000E+03</pdfrwt>
<pdfrwt beam="2">  1       21 0.66636853E-01 0.12500000E+03</pdfrwt>
<totfact> 0.45365229E+06</totfact>
</mgrwt>
</event>
<event>
 3    0  0.1699734E+001  0.1250000E+03  0.7546771E-02  0.1235069E+00
         21   -1    0    0  502  501  0.00000000000E+00  0.00000000000E+00  0.26383334946E+02  0.26383334946E+02  0.00000000000E+00 0.  1.
         21   -1    0    0  501  502 -0.00000000000E+00 -0.00000000000E+00 -0.14805747673E+03  0.14805747673E+03  0.00000000000E+00 0.  1.
         25    1    1    2    0    0  0.00000000000E+00  0.00000000000E+00 -0.12167414179E+03  0.17444081168E+03  0.12500000000E+03 0.  0.
<mgrwt>
<rscale>  2 0.12500000E+03</rscale>
<asrwt>0</asrwt>
<pdfrwt beam="1">  1       21 0.40589747E-02 0.12500000E+03</pdfrwt>
<pdfrwt beam="2">  1       21 0.22778073E-01 0.12500000E+03</pdfrwt>
<totfact> 0.67795063E+06</totfact>
</mgrwt>
</event>
<event>
 3    0  0.1661922E+001  0.1250000E+03  0.7546771E-02  0.1235069E+00
         21   -1    0    0  502  501  0.00000000000E+00  0.00000000000E+00  0.20249574204E+03  0.20249574204E+03  0.00000000000E+00 0.  1.
         21   -1    0    0  501  502 -0.00000000000E+00 -0.00000000000E+00 -0.19290529078E+02  0.19290529078E+02  0.00000000000E+00 0.  1.
         25    1    1    2    0    0  0.00000000000E+00  0.00000000000E+00  0.18320521296E+03  0.22178627111E+03  0.12500000000E+03 0.  0.
<mgrwt>
<rscale>  2 0.12500000E+03</rscale>
<asrwt>0</asrwt>
<pdfrwt beam="1">  1       21 0.31153190E-01 0.12500000E+03</pdfrwt>
<pdfrwt beam="2">  1       21 0.29677738E-02 0.12500000E+03</pdfrwt>
<totfact> 0.62640421E+06</totfact>
</mgrwt>
</event>
<event>
 3    0  0.1719092E+001  0.1250000E+03  0.7546771E-02  0.1235069E+00
         21   -1    0    0  502  501  0.00000000000E+00  0.00000000000E+00  0.10685922248E+03  0.10685922248E+03  0.00000000000E+00 0.  1.
         21   -1    0    0  501  502 -0.00000000000E+00 -0.00000000000E+00 -0.36555104082E+02  0.36555104082E+02  0.00000000000E+00 0.  1.
         25    1    1    2    0    0  0.00000000000E+00  0.00000000000E+00  0.70304118401E+02  0.14341432656E+03  0.12500000000E+03 0.  0.
<mgrwt>
<rscale>  2 0.12500000E+03</rscale>
<asrwt>0</asrwt>
<pdfrwt beam="1">  1       21 0.16439880E-01 0.12500000E+03</pdfrwt>
<pdfrwt beam="2">  1       21 0.56238622E-02 0.12500000E+03</pdfrwt>
<totfact> 0.71596649E+06</totfact>
</mgrwt>
</event>
<event>
 3    0  0.1548435E+001  0.1250000E+03  0.7546771E-02  0.1235069E+00
         21   -1    0    0  502  501  0.00000000000E+00  0.00000000000E+00  0.11264253822E+02  0.11264253822E+02  0.00000000000E+00 0.  1.
         21   -1    0    0  501  502 -0.00000000000E+00 -0.00000000000E+00 -0.34678284615E+03  0.34678284615E+03  0.00000000000E+00 0.  1.
         25    1    1    2    0    0  0.00000000000E+00  0.00000000000E+00 -0.33551859233E+03  0.35804709997E+03  0.12500000000E+03 0.  0.
<mgrwt>
<rscale>  2 0.12500000E+03</rscale>
<asrwt>0</asrwt>
<pdfrwt beam="1">  1       21 0.17329624E-02 0.12500000E+03</pdfrwt>
<pdfrwt beam="2">  1       21 0.53351199E-01 0.12500000E+03</pdfrwt>
<totfact> 0.50949571E+06</totfact>
</mgrwt>
</event>
<event>
 3    0  0.1683081E+001  0.1250000E+03  0.7546771E-02  0.1235069E+00
         21   -1    0    0  502  501  0.00000000000E+00  0.00000000000E+00  0.22100274907E+02  0.22100274907E+02  0.00000000000E+00 0.  1.
         21   -1    0    0  501  502 -0.00000000000E+00 -0.00000000000E+00 -0.17675119501E+03  0.17675119501E+03  0.00000000000E+00 0.  1.
         25    1    1    2    0    0  0.00000000000E+00  0.00000000000E+00 -0.15465092011E+03  0.19885146992E+03  0.12500000000E+03 0.  0.
<mgrwt>
<rscale>  2 0.12500000E+03</rscale>
<asrwt>0</asrwt>
<pdfrwt beam="1">  1       21 0.34000423E-02 0.12500000E+03</pdfrwt>
<pdfrwt beam="2">  1       21 0.27192491E-01 0.12500000E+03</pdfrwt>
<totfact> 0.65051915E+06</totfact>
</mgrwt>
</event>
<event>
 3    0  0.1592778E+001  0.1250000E+03  0.7546771E-02  0.1235069E+00
         21   -1    0    0  502  501  0.00000000000E+00  0.00000000000E+00  0.27289169451E+03  0.27289169451E+03  0.00000000000E+00 0. -1.
         21   -1    0    0  501  502 -0.00000000000E+00 -0.00000000000E+00 -0.14314286871E+02  0.14314286871E+02  0.00000000000E+00 0. -1.
         25    1    1    2    0    0  0.00000000000E+00  0.00000000000E+00  0.25857740764E+03  0.28720598138E+03  0.12500000000E+03 0.  0.
<mgrwt>
<rscale>  2 0.12500000E+03</rscale>
<asrwt>0</asrwt>
<pdfrwt beam="1">  1       21 0.41983334E-01 0.12500000E+03</pdfrwt>
<pdfrwt beam="2">  1       21 0.22021982E-02 0.12500000E+03</pdfrwt>
<totfact> 0.56536455E+06</totfact>
</mgrwt>
</event>
<event>
 3    0  0.1687607E+001  0.1250000E+03  0.7546771E-02  0.1235069E+00
         21   -1    0    0  502  501  0.00000000000E+00  0.00000000000E+00  0.35393998748E+02  0.35393998748E+02  0.00000000000E+00 0. -1.
         21   -1    0    0  501  502 -0.00000000000E+00 -0.00000000000E+00 -0.11036475499E+03  0.11036475499E+03  0.00000000000E+00 0. -1.
         25    1    1    2    0    0  0.00000000000E+00  0.00000000000E+00 -0.74970756242E+02  0.14575875374E+03  0.12500000000E+03 0.  0.
<mgrwt>
<rscale>  2 0.12500000E+03</rscale>
<asrwt>0</asrwt>
<pdfrwt beam="1">  1       21 0.54452306E-02 0.12500000E+03</pdfrwt>
<pdfrwt beam="2">  1       21 0.16979193E-01 0.12500000E+03</pdfrwt>
<totfact> 0.71296138E+06</totfact>
</mgrwt>
</event>
<event>
 3    0  0.1531754E+001  0.1250000E+03  0.7546771E-02  0.1235069E+00
         21   -1    0    0  502  501  0.00000000000E+00  0.00000000000E+00  0.41607448224E+03  0.41607448224E+03  0.00000000000E+00 0.  1.
         21   -1    0    0  501  502 -0.00000000000E+00 -0.00000000000E+00 -0.93883431135E+01  0.93883431135E+01  0.00000000000E+00 0.  1.
         25    1    1    2    0    0  0.00000000000E+00  0.00000000000E+00  0.40668613912E+03  0.42546282535E+03  0.12500000000E+03 0.  0.
<mgrwt>
<rscale>  2 0.12500000E+03</rscale>
<asrwt>0</asrwt>
<pdfrwt beam="1">  1       21 0.64011445E-01 0.12500000E+03</pdfrwt>
<pdfrwt beam="2">  1       21 0.14443608E-02 0.12500000E+03</pdfrwt>
<totfact> 0.46397054E+06</totfact>
</mgrwt>
</event>
<event>
 3    0  0.1368989E+001  0.1250000E+03  0.7546771E-02  0.1235069E+00
         21   -1    0    0  502  501  0.00000000000E+00  0.00000000000E+00  0.16771248320E+04  0.16771248320E+04  0.00000000000E+00 0.  1.
         21   -1    0    0  501  502 -0.00000000000E+00 -0.00000000000E+00 -0.23291349132E+01  0.23291349132E+01  0.00000000000E+00 0.  1.
         25    1    1    2    0    0  0.00000000000E+00  0.00000000000E+00  0.16747956971E+04  0.16794539669E+04  0.12500000000E+03 0.  0.
<mgrwt>
<rscale>  2 0.12500000E+03</rscale>
<asrwt>0</asrwt>
<pdfrwt beam="1">  1       21 0.25801824E+00 0.12500000E+03</pdfrwt>
<pdfrwt beam="2">  1       21 0.35832979E-03 0.12500000E+03</pdfrwt>
<totfact> 0.11528737E+06</totfact>
</mgrwt>
</event>
<event>
 3    0  0.1629798E+001  0.1250000E+03  0.7546771E-02  0.1235069E+00
         21   -1    0    0  502  501  0.00000000000E+00  0.00000000000E+00  0.18943733416E+02  0.18943733416E+02  0.00000000000E+00 0. -1.
         21   -1    0    0  501  502 -0.00000000000E+00 -0.00000000000E+00 -0.20620275392E+03  0.20620275392E+03  0.00000000000E+00 0. -1.
         25    1    1    2    0    0  0.00000000000E+00  0.00000000000E+00 -0.18725902050E+03  0.22514648734E+03  0.12500000000E+03 0.  0.
<mgrwt>
<rscale>  2 0.12500000E+03</rscale>
<asrwt>0</asrwt>
<pdfrwt beam="1">  1       21 0.29144206E-02 0.12500000E+03</pdfrwt>
<pdfrwt beam="2">  1       21 0.31723500E-01 0.12500000E+03</pdfrwt>
<totfact> 0.62300329E+06</totfact>
</mgrwt>
</event>
<event>
 3    0  0.1449232E+001  0.1250000E+03  0.7546771E-02  0.1235069E+00
         21   -1    0    0  502  501  0.00000000000E+00  0.00000000000E+00  0.54503481088E+03  0.54503481088E+03  0.00000000000E+00 0.  1.
         21   -1    0    0  501  502 -0.00000000000E+00 -0.00000000000E+00 -0.71669734153E+01  0.71669734153E+01  0.00000000000E+00 0.  1.
         25    1    1    2    0    0  0.00000000000E+00  0.00000000000E+00  0.53786783747E+03  0.55220178430E+03  0.12500000000E+03 0.  0.
<mgrwt>
<rscale>  2 0.12500000E+03</rscale>
<asrwt>0</asrwt>
<pdfrwt beam="1">  1       21 0.83851477E-01 0.12500000E+03</pdfrwt>
<pdfrwt beam="2">  1       21 0.11026117E-02 0.12500000E+03</pdfrwt>
<totfact> 0.39347510E+06</totfact>
</mgrwt>
</event>
<event>
 3    0  0.1368989E+001  0.1250000E+03  0.7546771E-02  0.1235069E+00
         21   -1    0    0  502  501  0.00000000000E+00  0.00000000000E+00  0.45514875430E+01  0.45514875430E+01  0.00000000000E+00 0.  1.
         21   -1    0    0  501  502 -0.00000000000E+00 -0.00000000000E+00 -0.85823589829E+03  0.85823589829E+03  0.00000000000E+00 0.  1.
         25    1    1    2    0    0  0.00000000000E+00  0.00000000000E+00 -0.85368441075E+03  0.86278738584E+03  0.12500000000E+03 0.  0.
<mgrwt>
<rscale>  2 0.12500000E+03</rscale>
<asrwt>0</asrwt>
<pdfrwt beam="1">  1       21 0.70022909E-03 0.12500000E+03</pdfrwt>
<pdfrwt beam="2">  1       21 0.13203625E+00 0.12500000E+03</pdfrwt>
<totfact> 0.27385033E+06</totfact>
</mgrwt>
</event>
<event>
 3    0  0.1677409E+001  0.1250000E+03  0.7546771E-02  0.1235069E+00
         21   -1    0    0  502  501  0.00000000000E+00  0.00000000000E+00  0.21815543979E+02  0.21815543979E+02  0.00000000000E+00 0.  1.
         21   -1    0    0  501  502 -0.00000000000E+00 -0.00000000000E+00 -0.17905810663E+03  0.17905810663E+03  0.00000000000E+00 0.  1.
         25    1    1    2    0    0  0.00000000000E+00  0.00000000000E+00 -0.15724256265E+03  0.20087365061E+03  0.12500000000E+03 0.  0.
<mgrwt>
<rscale>  2 0.12500000E+03</rscale>
<asrwt>0</asrwt>
<pdfrwt beam="1">  1       21 0.33562375E-02 0.12500000E+03</pdfrwt>
<pdfrwt beam="2">  1       21 0.27547402E-01 0.12500000E+03</pdfrwt>
<totfact> 0.64832709E+06</totfact>
</mgrwt>
</event>
<event>
 3    0  0.1693851E+001  0.1250000E+03  0.7546771E-02  0.1235069E+00
         21   -1    0    0  502  501  0.00000000000E+00  0.00000000000E+00  0.11408080871E+03  0.11408080871E+03  0.00000000000E+00 0. -1.
         21   -1    0    0  501  502 -0.00000000000E+00 -0.00000000000E+00 -0.34241079146E+02  0.34241079146E+02  0.00000000000E+00 0. -1.
         25    1    1    2    0    0  0.00000000000E+00  0.00000000000E+00  0.79839729560E+02  0.14832188785E+03  0.12500000000E+03 0.  0.
<mgrwt>
<rscale>  2 0.12500000E+03</rscale>
<asrwt>0</asrwt>
<pdfrwt beam="1">  1       21 0.17550893E-01 0.12500000E+03</pdfrwt>
<pdfrwt beam="2">  1       21 0.52678584E-02 0.12500000E+03</pdfrwt>
<totfact> 0.70970644E+06</totfact>
</mgrwt>
</event>
<event>
 3    0  0.1368989E+001  0.1250000E+03  0.7546771E-02  0.1235069E+00
         21   -1    0    0  502  501  0.00000000000E+00  0.00000000000E+00  0.33419395494E+01  0.33419395494E+01  0.00000000000E+00 0. -1.
         21   -1    0    0  501  502 -0.00000000000E+00 -0.00000000000E+00 -0.11688571688E+04  0.11688571688E+04  0.00000000000E+00 0. -1.
         25    1    1    2    0    0  0.00000000000E+00  0.00000000000E+00 -0.11655152293E+04  0.11721991084E+04  0.12500000000E+03 0.  0.
<mgrwt>
<rscale>  2 0.12500000E+03</rscale>
<asrwt>0</asrwt>
<pdfrwt beam="1">  1       21 0.51414437E-03 0.12500000E+03</pdfrwt>
<pdfrwt beam="2">  1       21 0.17982424E+00 0.12500000E+03</pdfrwt>
<totfact> 0.19706360E+06</totfact>
</mgrwt>
</event>
<event>
 3    0  0.1731200E+001  0.1250000E+03  0.7546771E-02  0.1235069E+00
         21   -1    0    0  502  501  0.00000000000E+00  0.00000000000E+00  0.94668466109E+02  0.94668466109E+02  0.00000000000E+00 0.  1.
         21   -1    0    0  501  502 -0.00000000000E+00 -0.00000000000E+00 -0.41262419901E+02  0.41262419901E+02  0.00000000000E+00 0.  1.
         25    1    1    2    0    0  0.00000000000E+00  0.00000000000E+00  0.53406046208E+02  0.13593088601E+03  0.12500000000E+03 0.  0.
<mgrwt>
<rscale>  2 0.12500000E+03</rscale>
<asrwt>0</asrwt>
<pdfrwt beam="1">  1       21 0.14564379E-01 0.12500000E+03</pdfrwt>
<pdfrwt beam="2">  1       21 0.63480646E-02 0.12500000E+03</pdfrwt>
<totfact> 0.72573450E+06</totfact>
</mgrwt>
</event>
<event>
 3    0  0.1695391E+001  0.1250000E+03  0.7546771E-02  0.1235069E+00
         21   -1    0    0  502  501  0.00000000000E+00  0.00000000000E+00  0.10344993406E+03  0.10344993406E+03  0.00000000000E+00 0. -1.
         21   -1    0    0  501  502 -0.00000000000E+00 -0.00000000000E+00 -0.37759811404E+02  0.37759811404E+02  0.00000000000E+00 0. -1.
         25    1    1    2    0    0  0.00000000000E+00  0.00000000000E+00  0.65690122660E+02  0.14120974547E+03  0.12500000000E+03 0.  0.
<mgrwt>
<rscale>  2 0.12500000E+03</rscale>
<asrwt>0</asrwt>
<pdfrwt beam="1">  1       21 0.15915374E-01 0.12500000E+03</pdfrwt>
<pdfrwt beam="2">  1       21 0.58092018E-02 0.12500000E+03</pdfrwt>
<totfact> 0.71881770E+06</totfact>
</mgrwt>
</event>
<event>
 3    0  0.1690191E+001  0.1250000E+03  0.7546771E-02  0.1235069E+00
         21   -1    0    0  502  501  0.00000000000E+00  0.00000000000E+00  0.24787682012E+02  0.24787682012E+02  0.00000000000E+00 0.  1.
         21   -1    0    0  501  502 -0.00000000000E+00 -0.00000000000E+00 -0.15758835369E+03  0.15758835369E+03  0.00000000000E+00 0.  1.
         25    1    1    2    0    0  0.00000000000E+00  0.00000000000E+00 -0.13280067167E+03  0.18237603570E+03  0.12500000000E+03 0.  0.
<mgrwt>
<rscale>  2 0.12500000E+03</rscale>
<asrwt>0</asrwt>
<pdfrwt beam="1">  1       21 0.38134895E-02 0.12500000E+03</pdfrwt>
<pdfrwt beam="2">  1       21 0.24244362E-01 0.12500000E+03</pdfrwt>
<totfact> 0.66880005E+06</totfact>
</mgrwt>
</event>
<event>
 3    0  0.1368989E+001  0.1250000E+03  0.7546771E-02  0.1235069E+00
         21   -1    0    0  502  501  0.00000000000E+00  0.00000000000E+00  0.10941056812E+04  0.10941056812E+04  0.00000000000E+00 0. -1.
         21   -1    0    0  501  502 -0.00000000000E+00 -0.00000000000E+00 -0.35702675410E+01  0.35702675410E+01  0.00000000000E+00 0. -1.
         25    1    1    2    0    0  0.00000000000E+00  0.00000000000E+00  0.10905354137E+04  0.10976759487E+04  0.12500000000E+03 0.  0.
<mgrwt>
<rscale>  2 0.12500000E+03</rscale>
<asrwt>0</asrwt>
<pdfrwt beam="1">  1       21 0.16832368E+00 0.12500000E+03</pdfrwt>
<pdfrwt beam="2">  1       21 0.54927280E-03 0.12500000E+03</pdfrwt>
<totfact> 0.21303202E+06</totfact>
</mgrwt>
</event>
<event>
 3    0  0.1698984E+001  0.1250000E+03  0.7546771E-02  0.1235069E+00
         21   -1    0    0  502  501  0.00000000000E+00  0.00000000000E+00  0.39648606356E+02  0.39648606356E+02  0.00000000000E+00 0. -1.
         21   -1    0    0  501  502 -0.00000000000E+00 -0.00000000000E+00 -0.98521747901E+02  0.98521747901E+02  0.00000000000E+00 0. -1.
         25    1    1    2    0    0  0.00000000000E+00  0.00000000000E+00 -0.58873141545E+02  0.13817035426E+03  0.12500000000E+03 0.  0.
<mgrwt>
<rscale>  2 0.12500000E+03</rscale>
<asrwt>0</asrwt>
<pdfrwt beam="1">  1       21 0.60997856E-02 0.12500000E+03</pdfrwt>
<pdfrwt beam="2">  1       21 0.15157192E-01 0.12500000E+03</pdfrwt>
<totfact> 0.72279074E+06</totfact>
</mgrwt>
</event>
<event>
 3    0  0.1368989E+001  0.1250000E+03  0.7546771E-02  0.1235069E+00
         21   -1    0    0  502  501  0.00000000000E+00  0.00000000000E+00  0.23987033225E+01  0.23987033225E+01  0.00000000000E+00 0.  1.
         21   -1    0    0  501  502 -0.00000000000E+00 -0.00000000000E+00 -0.16284840077E+04  0.16284840077E+04  0.00000000000E+00 0.  1.
         25    1    1    2    0    0  0.00000000000E+00  0.00000000000E+00 -0.16260853044E+04  0.16308827111E+04  0.12500000000E+03 0.  0.
<mgrwt>
<rscale>  2 0.12500000E+03</rscale>
<asrwt>0</asrwt>
<pdfrwt beam="1">  1       21 0.36903189E-03 0.12500000E+03</pdfrwt>
<pdfrwt beam="2">  1       21 0.25053559E+00 0.12500000E+03</pdfrwt>
<totfact> 0.12159242E+06</totfact>
</mgrwt>
</event>
<event>
 3    0  0.1625268E+001  0.1250000E+03  0.7546771E-02  0.1235069E+00
         21   -1    0    0  502  501  0.00000000000E+00  0.00000000000E+00  0.15803291454E+02  0.15803291454E+02  0.00000000000E+00 0.  1.
         21   -1    0    0  501  502 -0.00000000000E+00 -0.00000000000E+00 -0.24717952025E+03  0.24717952025E+03  0.00000000000E+00 0.  1.
         25    1    1    2    0    0  0.00000000000E+00  0.00000000000E+00 -0.23137622880E+03  0.26298281171E+03  0.12500000000E+03 0.  0.
<mgrwt>
<rscale>  2 0.12500000E+03</rscale>
<asrwt>0</asrwt>
<pdfrwt beam="1">  1       21 0.24312755E-02 0.12500000E+03</pdfrwt>
<pdfrwt beam="2">  1       21 0.38027620E-01 0.12500000E+03</pdfrwt>
<totfact> 0.58676953E+06</totfact>
</mgrwt>
</event>
<event>
 3    0  0.1645295E+001  0.1250000E+03  0.7546771E-02  0.1235069E+00
         21   -1    0    0  502  501  0.00000000000E+00  0.00000000000E+00  0.16361023861E+02  0.16361023861E+02  0.00000000000E+00 0.  1.
         21   -1    0    0  501  502 -0.00000000000E+00 -0.00000000000E+00 -0.23875339546E+03  0.23875339546E+03  0.00000000000E+00 0.  1.
         25    1    1    2    0    0  0.00000000000E+00  0.00000000000E+00 -0.22239237160E+03  0.25511441932E+03  0.12500000000E+03 0.  0.
<mgrwt>
<rscale>  2 0.12500000E+03</rscale>
<asrwt>0</asrwt>
<pdfrwt beam="1">  1       21 0.25170808E-02 0.12500000E+03</pdfrwt>
<pdfrwt beam="2">  1       21 0.36731288E-01 0.12500000E+03</pdfrwt>
<totfact> 0.59399990E+06</totfact>
</mgrwt>
</event>
<event>
 3    0  0.1572859E+001  0.1250000E+03  0.7546771E-02  0.1235069E+00
         21   -1    0    0  502  501  0.00000000000E+00  0.00000000000E+00  0.28166534858E+03  0.28166534858E+03  0.00000000000E+00 0. -1.
         21   -1    0    0  501  502 -0.00000000000E+00 -0.00000000000E+00 -0.13868408094E+02  0.13868408094E+02  0.00000000000E+00 0. -1.
         25    1    1    2    0    0  0.00000000000E+00  0.00000000000E+00  0.26779694049E+03  0.29553375667E+03  0.12500000000E+03 0.  0.
<mgrwt>
<rscale>  2 0.12500000E+03</rscale>
<asrwt>0</asrwt>
<pdfrwt beam="1">  1       21 0.43333126E-01 0.12500000E+03</pdfrwt>
<pdfrwt beam="2">  1       21 0.21336015E-02 0.12500000E+03</pdfrwt>
<totfact> 0.55829392E+06</totfact>
</mgrwt>
</event>
<event>
 3    0  0.1593643E+001  0.1250000E+03  0.7546771E-02  0.1235069E+00
         21   -1    0    0  502  501  0.00000000000E+00  0.00000000000E+00  0.12379291282E+02  0.12379291282E+02  0.00000000000E+00 0.  1.
         21   -1    0    0  501  502 -0.00000000000E+00 -0.00000000000E+00 -0.31554714328E+03  0.31554714328E+03  0.00000000000E+00 0.  1.
         25    1    1    2    0    0  0.00000000000E+00  0.00000000000E+00 -0.30316785200E+03  0.32792643456E+03  0.12500000000E+03 0.  0.
<mgrwt>
<rscale>  2 0.12500000E+03</rscale>
<asrwt>0</asrwt>
<pdfrwt beam="1">  1       21 0.19045063E-02 0.12500000E+03</pdfrwt>
<pdfrwt beam="2">  1       21 0.48545715E-01 0.12500000E+03</pdfrwt>
<totfact> 0.53211130E+06</totfact>
</mgrwt>
</event>
<event>
 3    0  0.1696726E+001  0.1250000E+03  0.7546771E-02  0.1235069E+00
         21   -1    0    0  502  501  0.00000000000E+00  0.00000000000E+00  0.34733754315E+02  0.34733754315E+02  0.00000000000E+00 0. -1.
         21   -1    0    0  501  502 -0.00000000000E+00 -0.00000000000E+00 -0.11246264842E+03  0.11246264842E+03  0.00000000000E+00 0. -1.
         25    1    1    2    0    0  0.00000000000E+00  0.00000000000E+00 -0.77728894108E+02  0.14719640274E+03  0.12500000000E+03 0.  0.
<mgrwt>
<rscale>  2 0.12500000E+03</rscale>
<asrwt>0</asrwt>
<pdfrwt beam="1">  1       21 0.53436545E-02 0.12500000E+03</pdfrwt>
<pdfrwt beam="2">  1       21 0.17301946E-01 0.12500000E+03</pdfrwt>
<totfact> 0.71113186E+06</totfact>
</mgrwt>
</event>
<event>
 3    0  0.1637314E+001  0.1250000E+03  0.7546771E-02  0.1235069E+00
         21   -1    0    0  502  501  0.00000000000E+00  0.00000000000E+00  0.16977585308E+02  0.16977585308E+02  0.00000000000E+00 0.  1.
         21   -1    0    0  501  502 -0.00000000000E+00 -0.00000000000E+00 -0.23008277851E+03  0.23008277851E+03  0.00000000000E+00 0.  1.
         25    1    1    2    0    0  0.00000000000E+00  0.00000000000E+00 -0.21310519320E+03  0.24706036382E+03  0.12500000000E+03 0.  0.
<mgrwt>
<rscale>  2 0.12500000E+03</rscale>
<asrwt>0</asrwt>
<pdfrwt beam="1">  1       21 0.26119360E-02 0.12500000E+03</pdfrwt>
<pdfrwt beam="2">  1       21 0.35397354E-01 0.12500000E+03</pdfrwt>
<totfact> 0.60156059E+06</totfact>
</mgrwt>
</event>
<event>
 3    0  0.1673191E+001  0.1250000E+03  0.7546771E-02  0.1235069E+00
         21   -1    0    0  502  501  0.00000000000E+00  0.00000000000E+00  0.23674938330E+02  0.23674938330E+02  0.00000000000E+00 0. -1.
         21   -1    0    0  501  502 -0.00000000000E+00 -0.00000000000E+00 -0.16499514996E+03  0.16499514996E+03  0.00000000000E+00 0. -1.
         25    1    1    2    0    0  0.00000000000E+00  0.00000000000E+00 -0.14132021163E+03  0.18867008829E+03  0.12500000000E+03 0.  0.
<mgrwt>
<rscale>  2 0.12500000E+03</rscale>
<asrwt>0</asrwt>
<pdfrwt beam="1">  1       21 0.36422981E-02 0.12500000E+03</pdfrwt>
<pdfrwt beam="2">  1       21 0.25383870E-01 0.12500000E+03</pdfrwt>
<totfact> 0.66170576E+06</totfact>
</mgrwt>
</event>
<event>
 3    0  0.1440547E+001  0.1250000E+03  0.7546771E-02  0.1235069E+00
         21   -1    0    0  502  501  0.00000000000E+00  0.00000000000E+00  0.68855296849E+01  0.68855296849E+01  0.00000000000E+00 0. -1.
         21   -1    0    0  501  502 -0.00000000000E+00 -0.00000000000E+00 -0.56731292708E+03  0.56731292708E+03  0.00000000000E+00 0. -1.
         25    1    1    2    0    0  0.00000000000E+00  0.00000000000E+00 -0.56042739739E+03  0.57419845676E+03  0.12500000000E+03 0.  0.
<mgrwt>
<rscale>  2 0.12500000E+03</rscale>
<asrwt>0</asrwt>
<pdfrwt beam="1">  1       21 0.10593120E-02 0.12500000E+03</pdfrwt>
<pdfrwt beam="2">  1       21 0.87278937E-01 0.12500000E+03</pdfrwt>
<totfact> 0.38286081E+06</totfact>
</mgrwt>
</event>
<event>
 3    0  0.1708305E+001  0.1250000E+03  0.7546771E-02  0.1235069E+00
         21   -1    0    0  502  501  0.00000000000E+00  0.00000000000E+00  0.78852717347E+02  0.78852717347E+02  0.00000000000E+00 0. -1.
         21   -1    0    0  501  502 -0.00000000000E+00 -0.00000000000E+00 -0.49538559119E+02  0.49538559119E+02  0.00000000000E+00 0. -1.
         25    1    1    2    0    0  0.00000000000E+00  0.00000000000E+00  0.29314158228E+02  0.12839127647E+03  0.12500000000E+03 0.  0.
<mgrwt>
<rscale>  2 0.12500000E+03</rscale>
<asrwt>0</asrwt>
<pdfrwt beam="1">  1       21 0.12131187E-01 0.12500000E+03</pdfrwt>
<pdfrwt beam="2">  1       21 0.76213168E-02 0.12500000E+03</pdfrwt>
<totfact> 0.73580769E+06</totfact>
</mgrwt>
</event>
<event>
 3    0  0.1612170E+001  0.1250000E+03  0.7546771E-02  0.1235069E+00
         21   -1    0    0  502  501  0.00000000000E+00  0.00000000000E+00  0.14709921976E+02  0.14709921976E+02  0.00000000000E+00 0.  1.
         21   -1    0    0  501  502 -0.00000000000E+00 -0.00000000000E+00 -0.26555205435E+03  0.26555205435E+03  0.00000000000E+00 0.  1.
         25    1    1    2    0    0  0.00000000000E+00  0.00000000000E+00 -0.25084213237E+03  0.28026197632E+03  0.12500000000E+03 0.  0.
<mgrwt>
<rscale>  2 0.12500000E+03</rscale>
<asrwt>0</asrwt>
<pdfrwt beam="1">  1       21 0.22630652E-02 0.12500000E+03</pdfrwt>
<pdfrwt beam="2">  1       21 0.40854157E-01 0.12500000E+03</pdfrwt>
<totfact> 0.57137437E+06</totfact>
</mgrwt>
</event>
<event>
 3    0  0.1588204E+001  0.1250000E+03  0.7546771E-02  0.1235069E+00
         21   -1    0    0  502  501  0.00000000000E+00  0.00000000000E+00  0.12284423756E+02  0.12284423756E+02  0.00000000000E+00 0.  1.
         21   -1    0    0  501  502 -0.00000000000E+00 -0.00000000000E+00 -0.31798398341E+03  0.31798398341E+03  0.00000000000E+00 0.  1.
         25    1    1    2    0    0  0.00000000000E+00  0.00000000000E+00 -0.30569955966E+03  0.33026840717E+03  0.12500000000E+03 0.  0.
<mgrwt>
<rscale>  2 0.12500000E+03</rscale>
<asrwt>0</asrwt>
<pdfrwt beam="1">  1       21 0.18899110E-02 0.12500000E+03</pdfrwt>
<pdfrwt beam="2">  1       21 0.48920621E-01 0.12500000E+03</pdfrwt>
<totfact> 0.53029521E+06</totfact>
</mgrwt>
</event>
<event>
 3    0  0.1625475E+001  0.1250000E+03  0.7546771E-02  0.1235069E+00
         21   -1    0    0  502  501  0.00000000000E+00  0.00000000000E+00  0.23685721474E+03  0.23685721474E+03  0.00000000000E+00 0. -1.
         21   -1    0    0  501  502 -0.00000000000E+00 -0.00000000000E+00 -0.16492003438E+02  0.16492003438E+02  0.00000000000E+00 0. -1.
         25    1    1    2    0    0  0.00000000000E+00  0.00000000000E+00  0.22036521131E+03  0.25334921818E+03  0.12500000000E+03 0.  0.
<mgrwt>
<rscale>  2 0.12500000E+03</rscale>
<asrwt>0</asrwt>
<pdfrwt beam="1">  1       21 0.36439569E-01 0.12500000E+03</pdfrwt>
<pdfrwt beam="2">  1       21 0.25372315E-02 0.12500000E+03</pdfrwt>
<totfact> 0.59564292E+06</totfact>
</mgrwt>
</event>
<event>
 3    0  0.1713882E+001  0.1250000E+03  0.7546771E-02  0.1235069E+00
         21   -1    0    0  502  501  0.00000000000E+00  0.00000000000E+00  0.13870018462E+03  0.13870018462E+03  0.00000000000E+00 0.  1.
         21   -1    0    0  501  502 -0.00000000000E+00 -0.00000000000E+00 -0.28163264604E+02  0.28163264604E+02  0.00000000000E+00 0.  1.
         25    1    1    2    0    0  0.00000000000E+00  0.00000000000E+00  0.11053692001E+03  0.16686344922E+03  0.12500000000E+03 0.  0.
<mgrwt>
<rscale>  2 0.12500000E+03</rscale>
<asrwt>0</asrwt>
<pdfrwt beam="1">  1       21 0.21338490E-01 0.12500000E+03</pdfrwt>
<pdfrwt beam="2">  1       21 0.43328100E-02 0.12500000E+03</pdfrwt>
<totfact> 0.68690430E+06</totfact>
</mgrwt>
</event>
<event>
 3    0  0.1368989E+001  0.1250000E+03  0.7546771E-02  0.1235069E+00
         21   -1    0    0  502  501  0.00000000000E+00  0.00000000000E+00  0.30182207241E+01  0.30182207241E+01  0.00000000000E+00 0. -1.
         21   -1    0    0  501  502 -0.00000000000E+00 -0.00000000000E+00 -0.12942227746E+04  0.12942227746E+04  0.00000000000E+00 0. -1.
         25    1    1    2    0    0  0.00000000000E+00  0.00000000000E+00 -0.12912045539E+04  0.12972409953E+04  0.12500000000E+03 0.  0.
<mgrwt>
<rscale>  2 0.12500000E+03</rscale>
<asrwt>0</asrwt>
<pdfrwt beam="1">  1       21 0.46434125E-03 0.12500000E+03</pdfrwt>
<pdfrwt beam="2">  1       21 0.19911137E+00 0.12500000E+03</pdfrwt>
<totfact> 0.17301930E+06</totfact>
</mgrwt>
</event>
<event>
 3    0  0.1710500E+001  0.1250000E+03  0.7546771E-02  0.1235069E+00
         21   -1    0    0  502  501  0.00000000000E+00  0.00000000000E+00  0.49007633578E+02  0.49007633578E+02  0.00000000000E+00 0. -1.
         21   -1    0    0  501  502 -0.00000000000E+00 -0.00000000000E+00 -0.79706970421E+02  0.79706970421E+02  0.00000000000E+00 0. -1.
         25    1    1    2    0    0  0.00000000000E+00  0.00000000000E+00 -0.30699336843E+02  0.12871460400E+03  0.12500000000E+03 0.  0.
<mgrwt>
<rscale>  2 0.12500000E+03</rscale>
<asrwt>0</asrwt>
<pdfrwt beam="1">  1       21 0.75396360E-02 0.12500000E+03</pdfrwt>
<pdfrwt beam="2">  1       21 0.12262611E-01 0.12500000E+03</pdfrwt>
<totfact> 0.73537239E+06</totfact>
</mgrwt>
</event>
<event>
 3    0  0.1712333E+001  0.1250000E+03  0.7546771E-02  0.1235069E+00
         21   -1    0    0  502  501  0.00000000000E+00  0.00000000000E+00  0.62229140726E+02  0.62229140726E+02  0.00000000000E+00 0. -1.
         21   -1    0    0  501  502 -0.00000000000E+00 -0.00000000000E+00 -0.62772038219E+02  0.62772038219E+02  0.00000000000E+00 0. -1.
         25    1    1    2    0    0  0.00000000000E+00  0.00000000000E+00 -0.54289749292E+00  0.12500117895E+03  0.12500000000E+03 0.  0.
<mgrwt>
<rscale>  2 0.12500000E+03</rscale>
<asrwt>0</asrwt>
<pdfrwt beam="1">  1       21 0.95737140E-02 0.12500000E+03</pdfrwt>
<pdfrwt beam="2">  1       21 0.96572366E-02 0.12500000E+03</pdfrwt>
<totfact> 0.74043422E+06</totfact>
</mgrwt>
</event>
<event>
 3    0  0.1493159E+001  0.1250000E+03  0.7546771E-02  0.1235069E+00
         21   -1    0    0  502  501  0.00000000000E+00  0.00000000000E+00  0.75198646993E+01  0.75198646993E+01  0.00000000000E+00 0.  1.
         21   -1    0    0  501  502 -0.00000000000E+00 -0.00000000000E+00 -0.51945748444E+03  0.51945748444E+03  0.00000000000E+00 0.  1.
         25    1    1    2    0    0  0.00000000000E+00  0.00000000000E+00 -0.51193761974E+03  0.52697734914E+03  0.12500000000E+03 0.  0.
<mgrwt>
<rscale>  2 0.12500000E+03</rscale>
<asrwt>0</asrwt>
<pdfrwt beam="1">  1       21 0.11569020E-02 0.12500000E+03</pdfrwt>
<pdfrwt beam="2">  1       21 0.79916552E-01 0.12500000E+03</pdfrwt>
<totfact> 0.40617822E+06</totfact>
</mgrwt>
</event>
<event>
 3    0  0.1711777E+001  0.1250000E+03  0.7546771E-02  0.1235069E+00
         21   -1    0    0  502  501  0.00000000000E+00  0.00000000000E+00  0.12475142664E+03  0.12475142664E+03  0.00000000000E+00 0.  1.
         21   -1    0    0  501  502 -0.00000000000E+00 -0.00000000000E+00 -0.31312267163E+02  0.31312267163E+02  0.00000000000E+00 0.  1.
         25    1    1    2    0    0  0.00000000000E+00  0.00000000000E+00  0.93439159477E+02  0.15606369380E+03  0.12500000000E+03 0.  0.
<mgrwt>
<rscale>  2 0.12500000E+03</rscale>
<asrwt>0</asrwt>
<pdfrwt beam="1">  1       21 0.19192527E-01 0.12500000E+03</pdfrwt>
<pdfrwt beam="2">  1       21 0.48172720E-02 0.12500000E+03</pdfrwt>
<totfact> 0.70003696E+06</totfact>
</mgrwt>
</event>
<event>
 3    0  0.1424116E+001  0.1250000E+03  0.7546771E-02  0.1235069E+00
         21   -1    0    0  502  501  0.00000000000E+00  0.00000000000E+00  0.54758032843E+03  0.54758032843E+03  0.00000000000E+00 0. -1.
         21   -1    0    0  501  502 -0.00000000000E+00 -0.00000000000E+00 -0.71336565563E+01  0.71336565563E+01  0.00000000000E+00 0. -1.
         25    1    1    2    0    0  0.00000000000E+00  0.00000000000E+00  0.54044667187E+03  0.55471398499E+03  0.12500000000E+03 0.  0.
<mgrwt>
<rscale>  2 0.12500000E+03</rscale>
<asrwt>0</asrwt>
<pdfrwt beam="1">  1       21 0.84243094E-01 0.12500000E+03</pdfrwt>
<pdfrwt beam="2">  1       21 0.10974861E-02 0.12500000E+03</pdfrwt>
<totfact> 0.39224154E+06</totfact>
</mgrwt>
</event>
<event>
 3    0  0.1735924E+001  0.1250000E+03  0.7546771E-02  0.1235069E+00
         21   -1    0    0  502  501  0.00000000000E+00  0.00000000000E+00  0.67721667212E+02  0.67721667212E+02  0.00000000000E+00 0.  1.
         21   -1    0    0  501  502 -0.00000000000E+00 -0.00000000000E+00 -0.57680948518E+02  0.57680948518E+02  0.00000000000E+00 0.  1.
         25    1    1    2    0    0  0.00000000000E+00  0.00000000000E+00  0.10040718695E+02  0.12540261573E+03  0.12500000000E+03 0.  0.
<mgrwt>
<rscale>  2 0.12500000E+03</rscale>
<asrwt>0</asrwt>
<pdfrwt beam="1">  1       21 0.10418718E-01 0.12500000E+03</pdfrwt>
<pdfrwt beam="2">  1       21 0.88739920E-02 0.12500000E+03</pdfrwt>
<totfact> 0.73989044E+06</totfact>
</mgrwt>
</event>
<event>
 3    0  0.1551518E+001  0.1250000E+03  0.7546771E-02  0.1235069E+00
         21   -1    0    0  502  501  0.00000000000E+00  0.00000000000E+00  0.38596548757E+03  0.38596548757E+03  0.00000000000E+00 0.  1.
         21   -1    0    0  501  502 -0.00000000000E+00 -0.00000000000E+00 -0.10120723551E+02  0.10120723551E+02  0.00000000000E+00 0.  1.
         25    1    1    2    0    0  0.00000000000E+00  0.00000000000E+00  0.37584476402E+03  0.39608621112E+03  0.12500000000E+03 0.  0.
<mgrwt>
<rscale>  2 0.12500000E+03</rscale>
<asrwt>0</asrwt>
<pdfrwt beam="1">  1       21 0.59379294E-01 0.12500000E+03</pdfrwt>
<pdfrwt beam="2">  1       21 0.15570347E-02 0.12500000E+03</pdfrwt>
<totfact> 0.48302041E+06</totfact>
</mgrwt>
</event>
<event>
 3    0  0.1579280E+001  0.1250000E+03  0.7546771E-02  0.1235069E+00
         21   -1    0    0  502  501  0.00000000000E+00  0.00000000000E+00  0.35648886787E+03  0.35648886787E+03  0.00000000000E+00 0.  1.
         21   -1    0    0  501  502 -0.00000000000E+00 -0.00000000000E+00 -0.10957565164E+02  0.10957565164E+02  0.00000000000E+00 0.  1.
         25    1    1    2    0    0  0.00000000000E+00  0.00000000000E+00  0.34553130270E+03  0.36744643303E+03  0.12500000000E+03 0.  0.
<mgrwt>
<rscale>  2 0.12500000E+03</rscale>
<asrwt>0</asrwt>
<pdfrwt beam="1">  1       21 0.54844433E-01 0.12500000E+03</pdfrwt>
<pdfrwt beam="2">  1       21 0.16857795E-02 0.12500000E+03</pdfrwt>
<totfact> 0.50275216E+06</totfact>
</mgrwt>
</event>
<event>
 3    0  0.1675430E+001  0.1250000E+03  0.7546771E-02  0.1235069E+00
         21   -1    0    0  502  501  0.00000000000E+00  0.00000000000E+00  0.26894965132E+02  0.26894965132E+02  0.00000000000E+00 0. -1.
         21   -1    0    0  501  502 -0.00000000000E+00 -0.00000000000E+00 -0.14524093937E+03  0.14524093937E+03  0.00000000000E+00 0. -1.
         25    1    1    2    0    0  0.00000000000E+00  0.00000000000E+00 -0.11834597423E+03  0.17213590450E+03  0.12500000000E+03 0.  0.
<mgrwt>
<rscale>  2 0.12500000E+03</rscale>
<asrwt>0</asrwt>
<pdfrwt beam="1">  1       21 0.41376870E-02 0.12500000E+03</pdfrwt>
<pdfrwt beam="2">  1       21 0.22344760E-01 0.12500000E+03</pdfrwt>
<totfact> 0.68065334E+06</totfact>
</mgrwt>
</event>
<event>
 3    0  0.1710095E+001  0.1250000E+03  0.7546771E-02  0.1235069E+00
         21   -1    0    0  502  501  0.00000000000E+00  0.00000000000E+00  0.13106777631E+03  0.13106777631E+03  0.00000000000E+00 0.  1.
         21   -1    0    0  501  502 -0.00000000000E+00 -0.00000000000E+00 -0.29803282775E+02  0.29803282775E+02  0.00000000000E+00 0.  1.
         25    1    1    2    0    0  0.00000000000E+00  0.00000000000E+00  0.10126449354E+03  0.16087105908E+03  0.12500000000E+03 0.  0.
<mgrwt>
<rscale>  2 0.12500000E+03</rscale>
<asrwt>0</asrwt>
<pdfrwt beam="1">  1       21 0.20164273E-01 0.12500000E+03</pdfrwt>
<pdfrwt beam="2">  1       21 0.45851205E-02 0.12500000E+03</pdfrwt>
<totfact> 0.69413218E+06</totfact>
</mgrwt>
</event>
<event>
 3    0  0.1480543E+001  0.1250000E+03  0.7546771E-02  0.1235069E+00
         21   -1    0    0  502  501  0.00000000000E+00  0.00000000000E+00  0.79775198339E+01  0.79775198339E+01  0.00000000000E+00 0.  1.
         21   -1    0    0  501  502 -0.00000000000E+00 -0.00000000000E+00 -0.48965719689E+03  0.48965719689E+03  0.00000000000E+00 0.  1.
         25    1    1    2    0    0  0.00000000000E+00  0.00000000000E+00 -0.48167967706E+03  0.49763471672E+03  0.12500000000E+03 0.  0.
<mgrwt>
<rscale>  2 0.12500000E+03</rscale>
<asrwt>0</asrwt>
<pdfrwt beam="1">  1       21 0.12273109E-02 0.12500000E+03</pdfrwt>
<pdfrwt beam="2">  1       21 0.75331868E-01 0.12500000E+03</pdfrwt>
<totfact> 0.42172639E+06</totfact>
</mgrwt>
</event>
<event>
 3    0  0.1666075E+001  0.1250000E+03  0.7546771E-02  0.1235069E+00
         21   -1    0    0  502  501  0.00000000000E+00  0.00000000000E+00  0.18345872192E+03  0.18345872192E+03  0.00000000000E+00 0.  1.
         21   -1    0    0  501  502 -0.00000000000E+00 -0.00000000000E+00 -0.21292255605E+02  0.21292255605E+02  0.00000000000E+00 0.  1.
         25    1    1    2    0    0  0.00000000000E+00  0.00000000000E+00  0.16216646631E+03  0.20475097752E+03  0.12500000000E+03 0.  0.
<mgrwt>
<rscale>  2 0.12500000E+03</rscale>
<asrwt>0</asrwt>
<pdfrwt beam="1">  1       21 0.28224418E-01 0.12500000E+03</pdfrwt>
<pdfrwt beam="2">  1       21 0.32757318E-02 0.12500000E+03</pdfrwt>
<totfact> 0.64416060E+06</totfact>
</mgrwt>
</event>
<event>
 3    0  0.1661607E+001  0.1250000E+03  0.7546771E-02  0.1235069E+00
         21   -1    0    0  502  501  0.00000000000E+00  0.00000000000E+00  0.16966383929E+03  0.16966383929E+03  0.00000000000E+00 0. -1.
         21   -1    0    0  501  502 -0.00000000000E+00 -0.00000000000E+00 -0.23023468149E+02  0.23023468149E+02  0.00000000000E+00 0. -1.
         25    1    1    2    0    0  0.00000000000E+00  0.00000000000E+00  0.14664037114E+03  0.19268730744E+03  0.12500000000E+03 0.  0.
<mgrwt>
<rscale>  2 0.12500000E+03</rscale>
<asrwt>0</asrwt>
<pdfrwt beam="1">  1       21 0.26102128E-01 0.12500000E+03</pdfrwt>
<pdfrwt beam="2">  1       21 0.35420721E-02 0.12500000E+03</pdfrwt>
<totfact> 0.65725034E+06</totfact>
</mgrwt>
</event>
<event>
 3    0  0.1651820E+001  0.1250000E+03  0.7546771E-02  0.1235069E+00
         21   -1    0    0  502  501  0.00000000000E+00  0.00000000000E+00  0.20874433230E+02  0.20874433230E+02  0.00000000000E+00 0. -1.
         21   -1    0    0  501  502 -0.00000000000E+00 -0.00000000000E+00 -0.18713082923E+03  0.18713082923E+03  0.00000000000E+00 0. -1.
         25    1    1    2    0    0  0.00000000000E+00  0.00000000000E+00 -0.16625639600E+03  0.20800526246E+03  0.12500000000E+03 0.  0.
<mgrwt>
<rscale>  2 0.12500000E+03</rscale>
<asrwt>0</asrwt>
<pdfrwt beam="1">  1       21 0.32114512E-02 0.12500000E+03</pdfrwt>
<pdfrwt beam="2">  1       21 0.28789359E-01 0.12500000E+03</pdfrwt>
<totfact> 0.64070017E+06</totfact>
</mgrwt>
</event>
<event>
 3    0  0.1590432E+001  0.1250000E+03  0.7546771E-02  0.1235069E+00
         21   -1    0    0  502  501  0.00000000000E+00  0.00000000000E+00  0.12732604205E+02  0.12732604205E+02  0.00000000000E+00 0. -1.
         21   -1    0    0  501  502 -0.00000000000E+00 -0.00000000000E+00 -0.30679112751E+03  0.30679112751E+03  0.00000000000E+00 0. -1.
         25    1    1    2    0    0  0.00000000000E+00  0.00000000000E+00 -0.29405852330E+03  0.31952373171E+03  0.12500000000E+03 0.  0.
<mgrwt>
<rscale>  2 0.12500000E+03</rscale>
<asrwt>0</asrwt>
<pdfrwt beam="1">  1       21 0.19588624E-02 0.12500000E+03</pdfrwt>
<pdfrwt beam="2">  1       21 0.47198629E-01 0.12500000E+03</pdfrwt>
<totfact> 0.53871109E+06</totfact>
</mgrwt>
</event>
<event>
 3    0  0.1687088E+001  0.1250000E+03  0.7546771E-02  0.1235069E+00
         21   -1    0    0  502  501  0.00000000000E+00  0.00000000000E+00  0.12489126109E+03  0.12489126109E+03  0.00000000000E+00 0. -1.
         21   -1    0    0  501  502 -0.00000000000E+00 -0.00000000000E+00 -0.31277208397E+02  0.31277208397E+02  0.00000000000E+00 0. -1.
         25    1    1    2    0    0  0.00000000000E+00  0.00000000000E+00  0.93614052689E+02  0.15616846948E+03  0.12500000000E+03 0.  0.
<mgrwt>
<rscale>  2 0.12500000E+03</rscale>
<asrwt>0</asrwt>
<pdfrwt beam="1">  1       21 0.19214040E-01 0.12500000E+03</pdfrwt>
<pdfrwt beam="2">  1       21 0.48118783E-02 0.12500000E+03</pdfrwt>
<totfact> 0.69990724E+06</totfact>
</mgrwt>
</event>
<event>
 3    0  0.1368989E+001  0.1250000E+03  0.7546771E-02  0.1235069E+00
         21   -1    0    0  502  501  0.00000000000E+00  0.00000000000E+00  0.47981078122E+01  0.47981078122E+01  0.00000000000E+00 0.  1.
         21   -1    0    0  501  502 -0.00000000000E+00 -0.00000000000E+00 -0.81412301533E+03  0.81412301533E+03  0.00000000000E+00 0.  1.
         25    1    1    2    0    0  0.00000000000E+00  0.00000000000E+00 -0.80932490752E+03  0.81892112315E+03  0.12500000000E+03 0.  0.
<mgrwt>
<rscale>  2 0.12500000E+03</rscale>
<asrwt>0</asrwt>
<pdfrwt beam="1">  1       21 0.73817009E-03 0.12500000E+03</pdfrwt>
<pdfrwt beam="2">  1       21 0.12524975E+00 0.12500000E+03</pdfrwt>
<totfact> 0.28745423E+06</totfact>
</mgrwt>
</event>
<event>
 3    0  0.1712934E+001  0.1250000E+03  0.7546771E-02  0.1235069E+00
         21   -1    0    0  502  501  0.00000000000E+00  0.00000000000E+00  0.27967435541E+02  0.27967435541E+02  0.00000000000E+00 0.  1.
         21   -1    0    0  501  502 -0.00000000000E+00 -0.00000000000E+00 -0.13967136866E+03  0.13967136866E+03  0.00000000000E+00 0.  1.
         25    1    1    2    0    0  0.00000000000E+00  0.00000000000E+00 -0.11170393312E+03  0.16763880420E+03  0.12500000000E+03 0.  0.
<mgrwt>
<rscale>  2 0.12500000E+03</rscale>
<asrwt>0</asrwt>
<pdfrwt beam="1">  1       21 0.43026824E-02 0.12500000E+03</pdfrwt>
<pdfrwt beam="2">  1       21 0.21487903E-01 0.12500000E+03</pdfrwt>
<totfact> 0.68597953E+06</totfact>
</mgrwt>
</event>
<event>
 3    0  0.1595250E+001  0.1250000E+03  0.7546771E-02  0.1235069E+00
         21   -1    0    0  502  501  0.00000000000E+00  0.00000000000E+00  0.24977328101E+03  0.24977328101E+03  0.00000000000E+00 0. -1.
         21   -1    0    0  501  502 -0.00000000000E+00 -0.00000000000E+00 -0.15639182799E+02  0.15639182799E+02  0.00000000000E+00 0. -1.
         25    1    1    2    0    0  0.00000000000E+00  0.00000000000E+00  0.23413409821E+03  0.26541246381E+03  0.12500000000E+03 0.  0.
<mgrwt>
<rscale>  2 0.12500000E+03</rscale>
<asrwt>0</asrwt>
<pdfrwt beam="1">  1       21 0.38426656E-01 0.12500000E+03</pdfrwt>
<pdfrwt beam="2">  1       21 0.24060283E-02 0.12500000E+03</pdfrwt>
<totfact> 0.58456716E+06</totfact>
</mgrwt>
</event>
<event>
 3    0  0.1477747E+001  0.1250000E+03  0.7546771E-02  0.1235069E+00
         21   -1    0    0  502  501  0.00000000000E+00  0.00000000000E+00  0.49290926636E+03  0.49290926636E+03  0.00000000000E+00 0.  1.
         21   -1    0    0  501  502 -0.00000000000E+00 -0.00000000000E+00 -0.79248865188E+01  0.79248865188E+01  0.00000000000E+00 0.  1.
         25    1    1    2    0    0  0.00000000000E+00  0.00000000000E+00  0.48498437984E+03  0.50083415288E+03  0.12500000000E+03 0.  0.
<mgrwt>
<rscale>  2 0.12500000E+03</rscale>
<asrwt>0</asrwt>
<pdfrwt beam="1">  1       21 0.75832171E-01 0.12500000E+03</pdfrwt>
<pdfrwt beam="2">  1       21 0.12192137E-02 0.12500000E+03</pdfrwt>
<totfact> 0.41998877E+06</totfact>
</mgrwt>
</event>
<event>
 3    0  0.1657791E+001  0.1250000E+03  0.7546771E-02  0.1235069E+00
         21   -1    0    0  502  501  0.00000000000E+00  0.00000000000E+00  0.17124952337E+03  0.17124952337E+03  0.00000000000E+00 0. -1.
         21   -1    0    0  501  502 -0.00000000000E+00 -0.00000000000E+00 -0.22810282465E+02  0.22810282465E+02  0.00000000000E+00 0. -1.
         25    1    1    2    0    0  0.00000000000E+00  0.00000000000E+00  0.14843924090E+03  0.19405980583E+03  0.12500000000E+03 0.  0.
<mgrwt>
<rscale>  2 0.12500000E+03</rscale>
<asrwt>0</asrwt>
<pdfrwt beam="1">  1       21 0.26346080E-01 0.12500000E+03</pdfrwt>
<pdfrwt beam="2">  1       21 0.35092743E-02 0.12500000E+03</pdfrwt>
<totfact> 0.65574071E+06</totfact>
</mgrwt>
</event>
<event>
 3    0  0.1688970E+001  0.1250000E+03  0.7546771E-02  0.1235069E+00
         21   -1    0    0  502  501  0.00000000000E+00  0.00000000000E+00  0.28004146813E+02  0.28004146813E+02  0.00000000000E+00 0. -1.
         21   -1    0    0  501  502 -0.00000000000E+00 -0.00000000000E+00 -0.13948827029E+03  0.13948827029E+03  0.00000000000E+00 0. -1.
         25    1    1    2    0    0  0.00000000000E+00  0.00000000000E+00 -0.11148412348E+03  0.16749241711E+03  0.12500000000E+03 0.  0.
<mgrwt>
<rscale>  2 0.12500000E+03</rscale>
<asrwt>0</asrwt>
<pdfrwt beam="1">  1       21 0.43083304E-02 0.12500000E+03</pdfrwt>
<pdfrwt beam="2">  1       21 0.21459734E-01 0.12500000E+03</pdfrwt>
<totfact> 0.68615395E+06</totfact>
</mgrwt>
</event>
<event>
 3    0  0.1631912E+001  0.1250000E+03  0.7546771E-02  0.1235069E+00
         21   -1    0    0  502  501  0.00000000000E+00  0.00000000000E+00  0.25686810029E+03  0.25686810029E+03  0.00000000000E+00 0.  1.
         21   -1    0    0  501  502 -0.00000000000E+00 -0.00000000000E+00 -0.15207221121E+02  0.15207221121E+02  0.00000000000E+00 0.  1.
         25    1    1    2    0    0  0.00000000000E+00  0.00000000000E+00  0.24166087917E+03  0.27207532141E+03  0.12500000000E+03 0.  0.
<mgrwt>
<rscale>  2 0.12500000E+03</rscale>
<asrwt>0</asrwt>
<pdfrwt beam="1">  1       21 0.39518166E-01 0.12500000E+03</pdfrwt>
<pdfrwt beam="2">  1       21 0.23395727E-02 0.12500000E+03</pdfrwt>
<totfact> 0.57859706E+06</totfact>
</mgrwt>
</event>
<event>
 3    0  0.1697082E+001  0.1250000E+03  0.7546771E-02  0.1235069E+00
         21   -1    0    0  502  501  0.00000000000E+00  0.00000000000E+00  0.38141589233E+02  0.38141589233E+02  0.00000000000E+00 0. -1.
         21   -1    0    0  501  502 -0.00000000000E+00 -0.00000000000E+00 -0.10241445306E+03  0.10241445306E+03  0.00000000000E+00 0. -1.
         25    1    1    2    0    0  0.00000000000E+00  0.00000000000E+00 -0.64272863823E+02  0.14055604229E+03  0.12500000000E+03 0.  0.
<mgrwt>
<rscale>  2 0.12500000E+03</rscale>
<asrwt>0</asrwt>
<pdfrwt beam="1">  1       21 0.58679369E-02 0.12500000E+03</pdfrwt>
<pdfrwt beam="2">  1       21 0.15756069E-01 0.12500000E+03</pdfrwt>
<totfact> 0.71966801E+06</totfact>
</mgrwt>
</event>
<event>
 3    0  0.1737046E+001  0.1250000E+03  0.7546771E-02  0.1235069E+00
         21   -1    0    0  502  501  0.00000000000E+00  0.00000000000E+00  0.64289660339E+02  0.64289660339E+02  0.00000000000E+00 0.  1.
         21   -1    0    0  501  502 -0.00000000000E+00 -0.00000000000E+00 -0.60760159244E+02  0.60760159244E+02  0.00000000000E+00 0.  1.
         25    1    1    2    0    0  0.00000000000E+00  0.00000000000E+00  0.35295010950E+01  0.12504981958E+03  0.12500000000E+03 0.  0.
<mgrwt>
<rscale>  2 0.12500000E+03</rscale>
<asrwt>0</asrwt>
<pdfrwt beam="1">  1       21 0.98907169E-02 0.12500000E+03</pdfrwt>
<pdfrwt beam="2">  1       21 0.93477169E-02 0.12500000E+03</pdfrwt>
<totfact> 0.74036852E+06</totfact>
</mgrwt>
</event>
<event>
 3    0  0.1721382E+001  0.1250000E+03  0.7546771E-02  0.1235069E+00
         21   -1    0    0  502  501  0.00000000000E+00  0.00000000000E+00  0.10572895690E+03  0.10572895690E+03  0.00000000000E+00 0.  1.
         21   -1    0    0  501  502 -0.00000000000E+00 -0.00000000000E+00 -0.36945886107E+02  0.36945886107E+02  0.00000000000E+00 0.  1.
         25    1    1    2    0    0  0.00000000000E+00  0.00000000000E+00  0.68783070798E+02  0.14267484301E+03  0.12500000000E+03 0.  0.
<mgrwt>
<rscale>  2 0.12500000E+03</rscale>
<asrwt>0</asrwt>
<pdfrwt beam="1">  1       21 0.16265993E-01 0.12500000E+03</pdfrwt>
<pdfrwt beam="2">  1       21 0.56839825E-02 0.12500000E+03</pdfrwt>
<totfact> 0.71692008E+06</totfact>
</mgrwt>
</event>
<event>
 3    0  0.1594884E+001  0.1250000E+03  0.7546771E-02  0.1235069E+00
         21   -1    0    0  502  501  0.00000000000E+00  0.00000000000E+00  0.15606055127E+02  0.15606055127E+02  0.00000000000E+00 0. -1.
         21   -1    0    0  501  502 -0.00000000000E+00 -0.00000000000E+00 -0.25030348593E+03  0.25030348593E+03  0.00000000000E+00 0. -1.
         25    1    1    2    0    0  0.00000000000E+00  0.00000000000E+00 -0.23469743080E+03  0.26590954106E+03  0.12500000000E+03 0.  0.
<mgrwt>
<rscale>  2 0.12500000E+03</rscale>
<asrwt>0</asrwt>
<pdfrwt beam="1">  1       21 0.24009318E-02 0.12500000E+03</pdfrwt>
<pdfrwt beam="2">  1       21 0.38508225E-01 0.12500000E+03</pdfrwt>
<totfact> 0.58411831E+06</totfact>
</mgrwt>
</event>
<event>
 3    0  0.1565083E+001  0.1250000E+03  0.7546771E-02  0.1235069E+00
         21   -1    0    0  502  501  0.00000000000E+00  0.00000000000E+00  0.13017091855E+02  0.13017091855E+02  0.00000000000E+00 0. -1.
         21   -1    0    0  501  502 -0.00000000000E+00 -0.00000000000E+00 -0.30008622843E+03  0.30008622843E+03  0.00000000000E+00 0. -1.
         25    1    1    2    0    0  0.00000000000E+00  0.00000000000E+00 -0.28706913658E+03  0.31310332029E+03  0.12500000000E+03 0.  0.
<mgrwt>
<rscale>  2 0.12500000E+03</rscale>
<asrwt>0</asrwt>
<pdfrwt beam="1">  1       21 0.20026295E-02 0.12500000E+03</pdfrwt>
<pdfrwt beam="2">  1       21 0.46167112E-01 0.12500000E+03</pdfrwt>
<totfact> 0.54384434E+06</totfact>
</mgrwt>
</event>
<event>
 3    0  0.1499563E+001  0.1250000E+03  0.7546771E-02  0.1235069E+00
         21   -1    0    0  502  501  0.00000000000E+00  0.00000000000E+00  0.42128986791E+03  0.42128986791E+03  0.00000000000E+00 0. -1.
         21   -1    0    0  501  502 -0.00000000000E+00 -0.00000000000E+00 -0.92721195015E+01  0.92721195015E+01  0.00000000000E+00 0. -1.
         25    1    1    2    0    0  0.00000000000E+00  0.00000000000E+00  0.41201774841E+03  0.43056198741E+03  0.12500000000E+03 0.  0.
<mgrwt>
<rscale>  2 0.12500000E+03</rscale>
<asrwt>0</asrwt>
<pdfrwt beam="1">  1       21 0.64813811E-01 0.12500000E+03</pdfrwt>
<pdfrwt beam="2">  1       21 0.14264802E-02 0.12500000E+03</pdfrwt>
<totfact> 0.46078145E+06</totfact>
</mgrwt>
</event>
<event>
 3    0  0.1702460E+001  0.1250000E+03  0.7546771E-02  0.1235069E+00
         21   -1    0    0  502  501  0.00000000000E+00  0.00000000000E+00  0.44475235678E+02  0.44475235678E+02  0.00000000000E+00 0. -1.
         21   -1    0    0  501  502 -0.00000000000E+00 -0.00000000000E+00 -0.87829776289E+02  0.87829776289E+02  0.00000000000E+00 0. -1.
         25    1    1    2    0    0  0.00000000000E+00  0.00000000000E+00 -0.43354540610E+02  0.13230501197E+03  0.12500000000E+03 0.  0.
<mgrwt>
<rscale>  2 0.12500000E+03</rscale>
<asrwt>0</asrwt>
<pdfrwt beam="1">  1       21 0.68423439E-02 0.12500000E+03</pdfrwt>
<pdfrwt beam="2">  1       21 0.13512273E-01 0.12500000E+03</pdfrwt>
<totfact> 0.73055345E+06</totfact>
</mgrwt>
</event>
<event>
 3    0  0.1661119E+001  0.1250000E+03  0.7546771E-02  0.1235069E+00
         21   -1    0    0  502  501  0.00000000000E+00  0.00000000000E+00  0.18433268052E+02  0.18433268052E+02  0.00000000000E+00 0.  1.
         21   -1    0    0  501  502 -0.00000000000E+00 -0.00000000000E+00 -0.21191304705E+03  0.21191304705E+03  0.00000000000E+00 0.  1.
         25    1    1    2    0    0  0.00000000000E+00  0.00000000000E+00 -0.19347977900E+03  0.23034631510E+03  0.12500000000E+03 0.  0.
<mgrwt>
<rscale>  2 0.12500000E+03</rscale>
<asrwt>0</asrwt>
<pdfrwt beam="1">  1       21 0.28358872E-02 0.12500000E+03</pdfrwt>
<pdfrwt beam="2">  1       21 0.32602009E-01 0.12500000E+03</pdfrwt>
<totfact> 0.61779531E+06</totfact>
</mgrwt>
</event>
<event>
 3    0  0.1712332E+001  0.1250000E+03  0.7546771E-02  0.1235069E+00
         21   -1    0    0  502  501  0.00000000000E+00  0.00000000000E+00  0.59702910011E+02  0.59702910011E+02  0.00000000000E+00 0. -1.
         21   -1    0    0  501  502 -0.00000000000E+00 -0.00000000000E+00 -0.65428134060E+02  0.65428134060E+02  0.00000000000E+00 0. -1.
         25    1    1    2    0    0  0.00000000000E+00  0.00000000000E+00 -0.57252240486E+01  0.12513104407E+03  0.12500000000E+03 0.  0.
<mgrwt>
<rscale>  2 0.12500000E+03</rscale>
<asrwt>0</asrwt>
<pdfrwt beam="1">  1       21 0.91850632E-02 0.12500000E+03</pdfrwt>
<pdfrwt beam="2">  1       21 0.10065867E-01 0.12500000E+03</pdfrwt>
<totfact> 0.74025883E+06</totfact>
</mgrwt>
</event>
<event>
 3    0  0.1733151E+001  0.1250000E+03  0.7546771E-02  0.1235069E+00
         21   -1    0    0  502  501  0.00000000000E+00  0.00000000000E+00  0.81565437984E+02  0.81565437984E+02  0.00000000000E+00 0.  1.
         21   -1    0    0  501  502 -0.00000000000E+00 -0.00000000000E+00 -0.47890995213E+02  0.47890995213E+02  0.00000000000E+00 0.  1.
         25    1    1    2    0    0  0.00000000000E+00  0.00000000000E+00  0.33674442771E+02  0.12945643320E+03  0.12500000000E+03 0.  0.
<mgrwt>
<rscale>  2 0.12500000E+03</rscale>
<asrwt>0</asrwt>
<pdfrwt beam="1">  1       21 0.12548529E-01 0.12500000E+03</pdfrwt>
<pdfrwt beam="2">  1       21 0.73678454E-02 0.12500000E+03</pdfrwt>
<totfact> 0.73437653E+06</totfact>
</mgrwt>
</event>
<event>
 3    0  0.1457590E+001  0.1250000E+03  0.7546771E-02  0.1235069E+00
         21   -1    0    0  502  501  0.00000000000E+00  0.00000000000E+00  0.47118442596E+03  0.47118442596E+03  0.00000000000E+00 0. -1.
         21   -1    0    0  501  502 -0.00000000000E+00 -0.00000000000E+00 -0.82902782537E+01  0.82902782537E+01  0.00000000000E+00 0. -1.
         25    1    1    2    0    0  0.00000000000E+00  0.00000000000E+00  0.46289414770E+03  0.47947470421E+03  0.12500000000E+03 0.  0.
<mgrwt>
<rscale>  2 0.12500000E+03</rscale>
<asrwt>0</asrwt>
<pdfrwt beam="1">  1       21 0.72489891E-01 0.12500000E+03</pdfrwt>
<pdfrwt beam="2">  1       21 0.12754278E-02 0.12500000E+03</pdfrwt>
<totfact> 0.43179541E+06</totfact>
</mgrwt>
</event>
<event>
 3    0  0.1673798E+001  0.1250000E+03  0.7546771E-02  0.1235069E+00
         21   -1    0    0  502  501  0.00000000000E+00  0.00000000000E+00  0.19745426800E+02  0.19745426800E+02  0.00000000000E+00 0.  1.
         21   -1    0    0  501  502 -0.00000000000E+00 -0.00000000000E+00 -0.19783061868E+03  0.19783061868E+03  0.00000000000E+00 0.  1.
         25    1    1    2    0    0  0.00000000000E+00  0.00000000000E+00 -0.17808519188E+03  0.21757604548E+03  0.12500000000E+03 0.  0.
<mgrwt>
<rscale>  2 0.12500000E+03</rscale>
<asrwt>0</asrwt>
<pdfrwt beam="1">  1       21 0.30377580E-02 0.12500000E+03</pdfrwt>
<pdfrwt beam="2">  1       21 0.30435479E-01 0.12500000E+03</pdfrwt>
<totfact> 0.63071159E+06</totfact>
</mgrwt>
</event>
<event>
 3    0  0.1701361E+001  0.1250000E+03  0.7546771E-02  0.1235069E+00
         21   -1    0    0  502  501  0.00000000000E+00  0.00000000000E+00  0.13482187188E+03  0.13482187188E+03  0.00000000000E+00 0.  1.
         21   -1    0    0  501  502 -0.00000000000E+00 -0.00000000000E+00 -0.28973414666E+02  0.28973414666E+02  0.00000000000E+00 0.  1.
         25    1    1    2    0    0  0.00000000000E+00  0.00000000000E+00  0.10584845721E+03  0.16379528655E+03  0.12500000000E+03 0.  0.
<mgrwt>
<rscale>  2 0.12500000E+03</rscale>
<asrwt>0</asrwt>
<pdfrwt beam="1">  1       21 0.20741826E-01 0.12500000E+03</pdfrwt>
<pdfrwt beam="2">  1       21 0.44574485E-02 0.12500000E+03</pdfrwt>
<totfact> 0.69058701E+06</totfact>
</mgrwt>
</event>
<event>
 3    0  0.1434493E+001  0.1250000E+03  0.7546771E-02  0.1235069E+00
         21   -1    0    0  502  501  0.00000000000E+00  0.00000000000E+00  0.57182376426E+03  0.57182376426E+03  0.00000000000E+00 0. -1.
         21   -1    0    0  501  502 -0.00000000000E+00 -0.00000000000E+00 -0.68312131187E+01  0.68312131187E+01  0.00000000000E+00 0. -1.
         25    1    1    2    0    0  0.00000000000E+00  0.00000000000E+00  0.56499255114E+03  0.57865497738E+03  0.12500000000E+03 0.  0.
<mgrwt>
<rscale>  2 0.12500000E+03</rscale>
<asrwt>0</asrwt>
<pdfrwt beam="1">  1       21 0.87972849E-01 0.12500000E+03</pdfrwt>
<pdfrwt beam="2">  1       21 0.10509563E-02 0.12500000E+03</pdfrwt>
<totfact> 0.38076084E+06</totfact>
</mgrwt>
</event>
<event>
 3    0  0.1692876E+001  0.1250000E+03  0.7546771E-02  0.1235069E+00
         21   -1    0    0  502  501  0.00000000000E+00  0.00000000000E+00  0.11899008843E+03  0.11899008843E+03  0.00000000000E+00 0. -1.
         21   -1    0    0  501  502 -0.00000000000E+00 -0.00000000000E+00 -0.32828364542E+02  0.32828364542E+02  0.00000000000E+00 0. -1.
         25    1    1    2    0    0  0.00000000000E+00  0.00000000000E+00  0.86161723890E+02  0.15181845298E+03  0.12500000000E+03 0.  0.
<mgrwt>
<rscale>  2 0.12500000E+03</rscale>
<asrwt>0</asrwt>
<pdfrwt beam="1">  1       21 0.18306167E-01 0.12500000E+03</pdfrwt>
<pdfrwt beam="2">  1       21 0.50505177E-02 0.12500000E+03</pdfrwt>
<totfact> 0.70531511E+06</totfact>
</mgrwt>
</event>
<event>
 3    0  0.1650299E+001  0.1250000E+03  0.7546771E-02  0.1235069E+00
         21   -1    0    0  502  501  0.00000000000E+00  0.00000000000E+00  0.19750947721E+03  0.19750947721E+03  0.00000000000E+00 0. -1.
         21   -1    0    0  501  502 -0.00000000000E+00 -0.00000000000E+00 -0.19777531970E+02  0.19777531970E+02  0.00000000000E+00 0. -1.
         25    1    1    2    0    0  0.00000000000E+00  0.00000000000E+00  0.17773194524E+03  0.21728700918E+03  0.12500000000E+03 0.  0.
<mgrwt>
<rscale>  2 0.12500000E+03</rscale>
<asrwt>0</asrwt>
<pdfrwt beam="1">  1       21 0.30386072E-01 0.12500000E+03</pdfrwt>
<pdfrwt beam="2">  1       21 0.30426974E-02 0.12500000E+03</pdfrwt>
<totfact> 0.63100921E+06</totfact>
</mgrwt>
</event>
<event>
 3    0  0.1653282E+001  0.1250000E+03  0.7546771E-02  0.1235069E+00
         21   -1    0    0  502  501  0.00000000000E+00  0.00000000000E+00  0.19621576853E+03  0.19621576853E+03  0.00000000000E+00 0.  1.
         21   -1    0    0  501  502 -0.00000000000E+00 -0.00000000000E+00 -0.19907931097E+02  0.19907931097E+02  0.00000000000E+00 0.  1.
         25    1    1    2    0    0  0.00000000000E+00  0.00000000000E+00  0.17630783743E+03  0.21612369963E+03  0.12500000000E+03 0.  0.
<mgrwt>
<rscale>  2 0.12500000E+03</rscale>
<asrwt>0</asrwt>
<pdfrwt beam="1">  1       21 0.30187040E-01 0.12500000E+03</pdfrwt>
<pdfrwt beam="2">  1       21 0.30627588E-02 0.12500000E+03</pdfrwt>
<totfact> 0.63220957E+06</totfact>
</mgrwt>
</event>
<event>
 3    0  0.1731062E+001  0.1250000E+03  0.7546771E-02  0.1235069E+00
         21   -1    0    0  502  501  0.00000000000E+00  0.00000000000E+00  0.89909435887E+02  0.89909435887E+02  0.00000000000E+00 0.  1.
         21   -1    0    0  501  502 -0.00000000000E+00 -0.00000000000E+00 -0.43446496594E+02  0.43446496594E+02  0.00000000000E+00 0.  1.
         25    1    1    2    0    0  0.00000000000E+00  0.00000000000E+00  0.46462939294E+02  0.13335593248E+03  0.12500000000E+03 0.  0.
<mgrwt>
<rscale>  2 0.12500000E+03</rscale>
<asrwt>0</asrwt>
<pdfrwt beam="1">  1       21 0.13832221E-01 0.12500000E+03</pdfrwt>
<pdfrwt beam="2">  1       21 0.66840764E-02 0.12500000E+03</pdfrwt>
<totfact> 0.72914906E+06</totfact>
</mgrwt>
</event>
<event>
 3    0  0.1682286E+001  0.1250000E+03  0.7546771E-02  0.1235069E+00
         21   -1    0    0  502  501  0.00000000000E+00  0.00000000000E+00  0.15493138694E+03  0.15493138694E+03  0.00000000000E+00 0.  1.
         21   -1    0    0  501  502 -0.00000000000E+00 -0.00000000000E+00 -0.25212773713E+02  0.25212773713E+02  0.00000000000E+00 0.  1.
         25    1    1    2    0    0  0.00000000000E+00  0.00000000000E+00  0.12971861323E+03  0.18014416065E+03  0.12500000000E+03 0.  0.
<mgrwt>
<rscale>  2 0.12500000E+03</rscale>
<asrwt>0</asrwt>
<pdfrwt beam="1">  1       21 0.23835597E-01 0.12500000E+03</pdfrwt>
<pdfrwt beam="2">  1       21 0.38788884E-02 0.12500000E+03</pdfrwt>
<totfact> 0.67135003E+06</totfact>
</mgrwt>
</event>
<event>
 3    0  0.1610652E+001  0.1250000E+03  0.7546771E-02  0.1235069E+00
         21   -1    0    0  502  501  0.00000000000E+00  0.00000000000E+00  0.14184936150E+02  0.14184936150E+02  0.00000000000E+00 0.  1.
         21   -1    0    0  501  502 -0.00000000000E+00 -0.00000000000E+00 -0.27538016094E+03  0.27538016094E+03  0.00000000000E+00 0.  1.
         25    1    1    2    0    0  0.00000000000E+00  0.00000000000E+00 -0.26119522479E+03  0.28956509709E+03  0.12500000000E+03 0.  0.
<mgrwt>
<rscale>  2 0.12500000E+03</rscale>
<asrwt>0</asrwt>
<pdfrwt beam="1">  1       21 0.21822979E-02 0.12500000E+03</pdfrwt>
<pdfrwt beam="2">  1       21 0.42366178E-01 0.12500000E+03</pdfrwt>
<totfact> 0.56334659E+06</totfact>
</mgrwt>
</event>
<event>
 3    0  0.1728943E+001  0.1250000E+03  0.7546771E-02  0.1235069E+00
         21   -1    0    0  502  501  0.00000000000E+00  0.00000000000E+00  0.87023376561E+02  0.87023376561E+02  0.00000000000E+00 0.  1.
         21   -1    0    0  501  502 -0.00000000000E+00 -0.00000000000E+00 -0.44887364227E+02  0.44887364227E+02  0.00000000000E+00 0.  1.
         25    1    1    2    0    0  0.00000000000E+00  0.00000000000E+00  0.42136012334E+02  0.13191074079E+03  0.12500000000E+03 0.  0.
<mgrwt>
<rscale>  2 0.12500000E+03</rscale>
<asrwt>0</asrwt>
<pdfrwt beam="1">  1       21 0.13388212E-01 0.12500000E+03</pdfrwt>
<pdfrwt beam="2">  1       21 0.69057484E-02 0.12500000E+03</pdfrwt>
<totfact> 0.73108204E+06</totfact>
</mgrwt>
</event>
<event>
 3    0  0.1567671E+001  0.1250000E+03  0.7546771E-02  0.1235069E+00
         21   -1    0    0  502  501  0.00000000000E+00  0.00000000000E+00  0.13742309811E+02  0.13742309811E+02  0.00000000000E+00 0. -1.
         21   -1    0    0  501  502 -0.00000000000E+00 -0.00000000000E+00 -0.28424988620E+03  0.28424988620E+03  0.00000000000E+00 0. -1.
         25    1    1    2    0    0  0.00000000000E+00  0.00000000000E+00 -0.27050757639E+03  0.29799219601E+03  0.12500000000E+03 0.  0.
<mgrwt>
<rscale>  2 0.12500000E+03</rscale>
<asrwt>0</asrwt>
<pdfrwt beam="1">  1       21 0.21142015E-02 0.12500000E+03</pdfrwt>
<pdfrwt beam="2">  1       21 0.43730752E-01 0.12500000E+03</pdfrwt>
<totfact> 0.55623443E+06</totfact>
</mgrwt>
</event>
<event>
 3    0  0.1677754E+001  0.1250000E+03  0.7546771E-02  0.1235069E+00
         21   -1    0    0  502  501  0.00000000000E+00  0.00000000000E+00  0.17869021947E+03  0.17869021947E+03  0.00000000000E+00 0.  1.
         21   -1    0    0  501  502 -0.00000000000E+00 -0.00000000000E+00 -0.21860457788E+02  0.21860457788E+02  0.00000000000E+00 0.  1.
         25    1    1    2    0    0  0.00000000000E+00  0.00000000000E+00  0.15682976168E+03  0.20055067726E+03  0.12500000000E+03 0.  0.
<mgrwt>
<rscale>  2 0.12500000E+03</rscale>
<asrwt>0</asrwt>
<pdfrwt beam="1">  1       21 0.27490802E-01 0.12500000E+03</pdfrwt>
<pdfrwt beam="2">  1       21 0.33631475E-02 0.12500000E+03</pdfrwt>
<totfact> 0.64867632E+06</totfact>
</mgrwt>
</event>
<event>
 3    0  0.1713896E+001  0.1250000E+03  0.7546771E-02  0.1235069E+00
         21   -1    0    0  502  501  0.00000000000E+00  0.00000000000E+00  0.31596379698E+02  0.31596379698E+02  0.00000000000E+00 0.  1.
         21   -1    0    0  501  502 -0.00000000000E+00 -0.00000000000E+00 -0.12362967015E+03  0.12362967015E+03  0.00000000000E+00 0.  1.
         25    1    1    2    0    0  0.00000000000E+00  0.00000000000E+00 -0.92033290450E+02  0.15522604985E+03  0.12500000000E+03 0.  0.
<mgrwt>
<rscale>  2 0.12500000E+03</rscale>
<asrwt>0</asrwt>
<pdfrwt beam="1">  1       21 0.48609815E-02 0.12500000E+03</pdfrwt>
<pdfrwt beam="2">  1       21 0.19019949E-01 0.12500000E+03</pdfrwt>
<totfact> 0.70107575E+06</totfact>
</mgrwt>
</event>
<event>
 3    0  0.1666158E+001  0.1250000E+03  0.7546771E-02  0.1235069E+00
         21   -1    0    0  502  501  0.00000000000E+00  0.00000000000E+00  0.21269854096E+02  0.21269854096E+02  0.00000000000E+00 0.  1.
         21   -1    0    0  501  502 -0.00000000000E+00 -0.00000000000E+00 -0.18365194149E+03  0.18365194149E+03  0.00000000000E+00 0.  1.
         25    1    1    2    0    0  0.00000000000E+00  0.00000000000E+00 -0.16238208740E+03  0.20492179559E+03  0.12500000000E+03 0.  0.
<mgrwt>
<rscale>  2 0.12500000E+03</rscale>
<asrwt>0</asrwt>
<pdfrwt beam="1">  1       21 0.32722853E-02 0.12500000E+03</pdfrwt>
<pdfrwt beam="2">  1       21 0.28254144E-01 0.12500000E+03</pdfrwt>
<totfact> 0.64397813E+06</totfact>
</mgrwt>
</event>
<event>
 3    0  0.1648825E+001  0.1250000E+03  0.7546771E-02  0.1235069E+00
         21   -1    0    0  502  501  0.00000000000E+00  0.00000000000E+00  0.17338560466E+02  0.17338560466E+02  0.00000000000E+00 0.  1.
         21   -1    0    0  501  502 -0.00000000000E+00 -0.00000000000E+00 -0.22529263648E+03  0.22529263648E+03  0.00000000000E+00 0.  1.
         25    1    1    2    0    0  0.00000000000E+00  0.00000000000E+00 -0.20795407601E+03  0.24263119694E+03  0.12500000000E+03 0.  0.
<mgrwt>
<rscale>  2 0.12500000E+03</rscale>
<asrwt>0</asrwt>
<pdfrwt beam="1">  1       21 0.26674710E-02 0.12500000E+03</pdfrwt>
<pdfrwt beam="2">  1       21 0.34660404E-01 0.12500000E+03</pdfrwt>
<totfact> 0.60578974E+06</totfact>
</mgrwt>
</event>
<event>
 3    0  0.1667197E+001  0.1250000E+03  0.7546771E-02  0.1235069E+00
         21   -1    0    0  502  501  0.00000000000E+00  0.00000000000E+00  0.18651993399E+02  0.18651993399E+02  0.00000000000E+00 0.  1.
         21   -1    0    0  501  502 -0.00000000000E+00 -0.00000000000E+00 -0.20942801750E+03  0.20942801750E+03  0.00000000000E+00 0.  1.
         25    1    1    2    0    0  0.00000000000E+00  0.00000000000E+00 -0.19077602411E+03  0.22808001090E+03  0.12500000000E+03 0.  0.
<mgrwt>
<rscale>  2 0.12500000E+03</rscale>
<asrwt>0</asrwt>
<pdfrwt beam="1">  1       21 0.28695375E-02 0.12500000E+03</pdfrwt>
<pdfrwt beam="2">  1       21 0.32219695E-01 0.12500000E+03</pdfrwt>
<totfact> 0.62005572E+06</totfact>
</mgrwt>
</event>
<event>
 3    0  0.1688306E+001  0.1250000E+03  0.7546771E-02  0.1235069E+00
         21   -1    0    0  502  501  0.00000000000E+00  0.00000000000E+00  0.13919971175E+03  0.13919971175E+03  0.00000000000E+00 0. -1.
         21   -1    0    0  501  502 -0.00000000000E+00 -0.00000000000E+00 -0.28062198915E+02  0.28062198915E+02  0.00000000000E+00 0. -1.
         25    1    1    2    0    0  0.00000000000E+00  0.00000000000E+00  0.11113751283E+03  0.16726191066E+03  0.12500000000E+03 0.  0.
<mgrwt>
<rscale>  2 0.12500000E+03</rscale>
<asrwt>0</asrwt>
<pdfrwt beam="1">  1       21 0.21415340E-01 0.12500000E+03</pdfrwt>
<pdfrwt beam="2">  1       21 0.43172615E-02 0.12500000E+03</pdfrwt>
<totfact> 0.68642876E+06</totfact>
</mgrwt>
</event>
<event>
 3    0  0.1709425E+001  0.1250000E+03  0.7546771E-02  0.1235069E+00
         21   -1    0    0  502  501  0.00000000000E+00  0.00000000000E+00  0.14057547000E+03  0.14057547000E+03  0.00000000000E+00 0.  1.
         21   -1    0    0  501  502 -0.00000000000E+00 -0.00000000000E+00 -0.27787564930E+02  0.27787564930E+02  0.00000000000E+00 0.  1.
         25    1    1    2    0    0  0.00000000000E+00  0.00000000000E+00  0.11278790507E+03  0.16836303492E+03  0.12500000000E+03 0.  0.
<mgrwt>
<rscale>  2 0.12500000E+03</rscale>
<asrwt>0</asrwt>
<pdfrwt beam="1">  1       21 0.21626995E-01 0.12500000E+03</pdfrwt>
<pdfrwt beam="2">  1       21 0.42750101E-02 0.12500000E+03</pdfrwt>
<totfact> 0.68511787E+06</totfact>
</mgrwt>
</event>
<event>
 3    0  0.1574707E+001  0.1250000E+03  0.7546771E-02  0.1235069E+00
         21   -1    0    0  502  501  0.00000000000E+00  0.00000000000E+00  0.32440077732E+03  0.32440077732E+03  0.00000000000E+00 0.  1.
         21   -1    0    0  501  502 -0.00000000000E+00 -0.00000000000E+00 -0.12041432306E+02  0.12041432306E+02  0.00000000000E+00 0.  1.
         25    1    1    2    0    0  0.00000000000E+00  0.00000000000E+00  0.31235934502E+03  0.33644220963E+03  0.12500000000E+03 0.  0.
<mgrwt>
<rscale>  2 0.12500000E+03</rscale>
<asrwt>0</asrwt>
<pdfrwt beam="1">  1       21 0.49907805E-01 0.12500000E+03</pdfrwt>
<pdfrwt beam="2">  1       21 0.18525283E-02 0.12500000E+03</pdfrwt>
<totfact> 0.52555574E+06</totfact>
</mgrwt>
</event>
<event>
 3    0  0.1700522E+001  0.1250000E+03  0.7546771E-02  0.1235069E+00
         21   -1    0    0  502  501  0.00000000000E+00  0.00000000000E+00  0.26963767812E+02  0.26963767812E+02  0.00000000000E+00 0.  1.
         21   -1    0    0  501  502 -0.00000000000E+00 -0.00000000000E+00 -0.14487033219E+03  0.14487033219E+03  0.00000000000E+00 0.  1.
         25    1    1    2    0    0  0.00000000000E+00  0.00000000000E+00 -0.11790656438E+03  0.17183410000E+03  0.12500000000E+03 0.  0.
<mgrwt>
<rscale>  2 0.12500000E+03</rscale>
<asrwt>0</asrwt>
<pdfrwt beam="1">  1       21 0.41482720E-02 0.12500000E+03</pdfrwt>
<pdfrwt beam="2">  1       21 0.22287743E-01 0.12500000E+03</pdfrwt>
<totfact> 0.68100876E+06</totfact>
</mgrwt>
</event>
<event>
 3    0  0.1699903E+001  0.1250000E+03  0.7546771E-02  0.1235069E+00
         21   -1    0    0  502  501  0.00000000000E+00  0.00000000000E+00  0.26915767072E+02  0.26915767072E+02  0.00000000000E+00 0.  1.
         21   -1    0    0  501  502 -0.00000000000E+00 -0.00000000000E+00 -0.14512868943E+03  0.14512868943E+03  0.00000000000E+00 0.  1.
         25    1    1    2    0    0  0.00000000000E+00  0.00000000000E+00 -0.11821292235E+03  0.17204445650E+03  0.12500000000E+03 0.  0.
<mgrwt>
<rscale>  2 0.12500000E+03</rscale>
<asrwt>0</asrwt>
<pdfrwt beam="1">  1       21 0.41408873E-02 0.12500000E+03</pdfrwt>
<pdfrwt beam="2">  1       21 0.22327490E-01 0.12500000E+03</pdfrwt>
<totfact> 0.68076100E+06</totfact>
</mgrwt>
</event>
<event>
 3    0  0.1724606E+001  0.1250000E+03  0.7546771E-02  0.1235069E+00
         21   -1    0    0  502  501  0.00000000000E+00  0.00000000000E+00  0.98292772471E+02  0.98292772471E+02  0.00000000000E+00 0.  1.
         21   -1    0    0  501  502 -0.00000000000E+00 -0.00000000000E+00 -0.39740968759E+02  0.39740968759E+02  0.00000000000E+00 0.  1.
         25    1    1    2    0    0  0.00000000000E+00  0.00000000000E+00  0.58551803712E+02  0.13803374123E+03  0.12500000000E+03 0.  0.
<mgrwt>
<rscale>  2 0.12500000E+03</rscale>
<asrwt>0</asrwt>
<pdfrwt beam="1">  1       21 0.15121965E-01 0.12500000E+03</pdfrwt>
<pdfrwt beam="2">  1       21 0.61139952E-02 0.12500000E+03</pdfrwt>
<totfact> 0.72297050E+06</totfact>
</mgrwt>
</event>
<event>
 3    0  0.1642836E+001  0.1250000E+03  0.7546771E-02  0.1235069E+00
         21   -1    0    0  502  501  0.00000000000E+00  0.00000000000E+00  0.19076578519E+03  0.19076578519E+03  0.00000000000E+00 0. -1.
         21   -1    0    0  501  502 -0.00000000000E+00 -0.00000000000E+00 -0.20476680324E+02  0.20476680324E+02  0.00000000000E+00 0. -1.
         25    1    1    2    0    0  0.00000000000E+00  0.00000000000E+00  0.17028910487E+03  0.21124246551E+03  0.12500000000E+03 0.  0.
<mgrwt>
<rscale>  2 0.12500000E+03</rscale>
<asrwt>0</asrwt>
<pdfrwt beam="1">  1       21 0.29348581E-01 0.12500000E+03</pdfrwt>
<pdfrwt beam="2">  1       21 0.31502586E-02 0.12500000E+03</pdfrwt>
<totfact> 0.63729051E+06</totfact>
</mgrwt>
</event>
<event>
 3    0  0.1514815E+001  0.1250000E+03  0.7546771E-02  0.1235069E+00
         21   -1    0    0  502  501  0.00000000000E+00  0.00000000000E+00  0.91977556392E+01  0.91977556392E+01  0.00000000000E+00 0.  1.
         21   -1    0    0  501  502 -0.00000000000E+00 -0.00000000000E+00 -0.42469599685E+03  0.42469599685E+03  0.00000000000E+00 0.  1.
         25    1    1    2    0    0  0.00000000000E+00  0.00000000000E+00 -0.41549824121E+03  0.43389375249E+03  0.12500000000E+03 0.  0.
<mgrwt>
<rscale>  2 0.12500000E+03</rscale>
<asrwt>0</asrwt>
<pdfrwt beam="1">  1       21 0.14150394E-02 0.12500000E+03</pdfrwt>
<pdfrwt beam="2">  1       21 0.65337841E-01 0.12500000E+03</pdfrwt>
<totfact> 0.45871571E+06</totfact>
</mgrwt>
</event>
<event>
 3    0  0.1654783E+001  0.1250000E+03  0.7546771E-02  0.1235069E+00
         21   -1    0    0  502  501  0.00000000000E+00  0.00000000000E+00  0.16242568482E+03  0.16242568482E+03  0.00000000000E+00 0. -1.
         21   -1    0    0  501  502 -0.00000000000E+00 -0.00000000000E+00 -0.24049459939E+02  0.24049459939E+02  0.00000000000E+00 0. -1.
         25    1    1    2    0    0  0.00000000000E+00  0.00000000000E+00  0.13837622488E+03  0.18647514476E+03  0.12500000000E+03 0.  0.
<mgrwt>
<rscale>  2 0.12500000E+03</rscale>
<asrwt>0</asrwt>
<pdfrwt beam="1">  1       21 0.24988566E-01 0.12500000E+03</pdfrwt>
<pdfrwt beam="2">  1       21 0.36999170E-02 0.12500000E+03</pdfrwt>
<totfact> 0.66416379E+06</totfact>
</mgrwt>
</event>
<event>
 3    0  0.1368989E+001  0.1250000E+03  0.7546771E-02  0.1235069E+00
         21   -1    0    0  502  501  0.00000000000E+00  0.00000000000E+00  0.23908385197E+01  0.23908385197E+01  0.00000000000E+00 0. -1.
         21   -1    0    0  501  502 -0.00000000000E+00 -0.00000000000E+00 -0.16338410009E+04  0.16338410009E+04  0.00000000000E+00 0. -1.
         25    1    1    2    0    0  0.00000000000E+00  0.00000000000E+00 -0.16314501624E+04  0.16362318394E+04  0.12500000000E+03 0.  0.
<mgrwt>
<rscale>  2 0.12500000E+03</rscale>
<asrwt>0</asrwt>
<pdfrwt beam="1">  1       21 0.36782093E-03 0.12500000E+03</pdfrwt>
<pdfrwt beam="2">  1       21 0.25136041E+00 0.12500000E+03</pdfrwt>
<totfact> 0.12088446E+06</totfact>
</mgrwt>
</event>
<event>
 3    0  0.1671786E+001  0.1250000E+03  0.7546771E-02  0.1235069E+00
         21   -1    0    0  502  501  0.00000000000E+00  0.00000000000E+00  0.19664010577E+02  0.19664010577E+02  0.00000000000E+00 0.  1.
         21   -1    0    0  501  502 -0.00000000000E+00 -0.00000000000E+00 -0.19864971007E+03  0.19864971007E+03  0.00000000000E+00 0.  1.
         25    1    1    2    0    0  0.00000000000E+00  0.00000000000E+00 -0.17898569950E+03  0.21831372065E+03  0.12500000000E+03 0.  0.
<mgrwt>
<rscale>  2 0.12500000E+03</rscale>
<asrwt>0</asrwt>
<pdfrwt beam="1">  1       21 0.30252324E-02 0.12500000E+03</pdfrwt>
<pdfrwt beam="2">  1       21 0.30561493E-01 0.12500000E+03</pdfrwt>
<totfact> 0.62995313E+06</totfact>
</mgrwt>
</event>
<event>
 3    0  0.1675133E+001  0.1250000E+03  0.7546771E-02  0.1235069E+00
         21   -1    0    0  502  501  0.00000000000E+00  0.00000000000E+00  0.21703130074E+02  0.21703130074E+02  0.00000000000E+00 0.  1.
         21   -1    0    0  501  502 -0.00000000000E+00 -0.00000000000E+00 -0.17998555907E+03  0.17998555907E+03  0.00000000000E+00 0.  1.
         25    1    1    2    0    0  0.00000000000E+00  0.00000000000E+00 -0.15828242900E+03  0.20168868915E+03  0.12500000000E+03 0.  0.
<mgrwt>
<rscale>  2 0.12500000E+03</rscale>
<asrwt>0</asrwt>
<pdfrwt beam="1">  1       21 0.33389430E-02 0.12500000E+03</pdfrwt>
<pdfrwt beam="2">  1       21 0.27690087E-01 0.12500000E+03</pdfrwt>
<totfact> 0.64744729E+06</totfact>
</mgrwt>
</event>
<event>
 3    0  0.1712309E+001  0.1250000E+03  0.7546771E-02  0.1235069E+00
         21   -1    0    0  502  501  0.00000000000E+00  0.00000000000E+00  0.63252067724E+02  0.63252067724E+02  0.00000000000E+00 0. -1.
         21   -1    0    0  501  502 -0.00000000000E+00 -0.00000000000E+00 -0.61756874368E+02  0.61756874368E+02  0.00000000000E+00 0. -1.
         25    1    1    2    0    0  0.00000000000E+00  0.00000000000E+00  0.14951933561E+01  0.12500894209E+03  0.12500000000E+03 0.  0.
<mgrwt>
<rscale>  2 0.12500000E+03</rscale>
<asrwt>0</asrwt>
<pdfrwt beam="1">  1       21 0.97310873E-02 0.12500000E+03</pdfrwt>
<pdfrwt beam="2">  1       21 0.95010576E-02 0.12500000E+03</pdfrwt>
<totfact> 0.74042374E+06</totfact>
</mgrwt>
</event>
<event>
 3    0  0.1716354E+001  0.1250000E+03  0.7546771E-02  0.1235069E+00
         21   -1    0    0  502  501  0.00000000000E+00  0.00000000000E+00  0.28258580602E+02  0.28258580602E+02  0.00000000000E+00 0.  1.
         21   -1    0    0  501  502 -0.00000000000E+00 -0.00000000000E+00 -0.13823234985E+03  0.13823234985E+03  0.00000000000E+00 0.  1.
         25    1    1    2    0    0  0.00000000000E+00  0.00000000000E+00 -0.10997376925E+03  0.16649093045E+03  0.12500000000E+03 0.  0.
<mgrwt>
<rscale>  2 0.12500000E+03</rscale>
<asrwt>0</asrwt>
<pdfrwt beam="1">  1       21 0.43474740E-02 0.12500000E+03</pdfrwt>
<pdfrwt beam="2">  1       21 0.21266515E-01 0.12500000E+03</pdfrwt>
<totfact> 0.68734944E+06</totfact>
</mgrwt>
</event>
<event>
 3    0  0.1368989E+001  0.1250000E+03  0.7546771E-02  0.1235069E+00
         21   -1    0    0  502  501  0.00000000000E+00  0.00000000000E+00  0.97824765963E+03  0.97824765963E+03  0.00000000000E+00 0.  1.
         21   -1    0    0  501  502 -0.00000000000E+00 -0.00000000000E+00 -0.39931094765E+01  0.39931094765E+01  0.00000000000E+00 0.  1.
         25    1    1    2    0    0  0.00000000000E+00  0.00000000000E+00  0.97425455015E+03  0.98224076911E+03  0.12500000000E+03 0.  0.
<mgrwt>
<rscale>  2 0.12500000E+03</rscale>
<asrwt>0</asrwt>
<pdfrwt beam="1">  1       21 0.15049945E+00 0.12500000E+03</pdfrwt>
<pdfrwt beam="2">  1       21 0.61432531E-03 0.12500000E+03</pdfrwt>
<totfact> 0.24067640E+06</totfact>
</mgrwt>
</event>
<event>
 3    0  0.1683861E+001  0.1250000E+03  0.7546771E-02  0.1235069E+00
         21   -1    0    0  502  501  0.00000000000E+00  0.00000000000E+00  0.12633083234E+03  0.12633083234E+03  0.00000000000E+00 0. -1.
         21   -1    0    0  501  502 -0.00000000000E+00 -0.00000000000E+00 -0.30920796830E+02  0.30920796830E+02  0.00000000000E+00 0. -1.
         25    1    1    2    0    0  0.00000000000E+00  0.00000000000E+00  0.95410035507E+02  0.15725162917E+03  0.12500000000E+03 0.  0.
<mgrwt>
<rscale>  2 0.12500000E+03</rscale>
<asrwt>0</asrwt>
<pdfrwt beam="1">  1       21 0.19435512E-01 0.12500000E+03</pdfrwt>
<pdfrwt beam="2">  1       21 0.47570457E-02 0.12500000E+03</pdfrwt>
<totfact> 0.69856886E+06</totfact>
</mgrwt>
</event>
<event>
 3    0  0.1429460E+001  0.1250000E+03  0.7546771E-02  0.1235069E+00
         21   -1    0    0  502  501  0.00000000000E+00  0.00000000000E+00  0.70429091911E+01  0.70429091911E+01  0.00000000000E+00 0.  1.
         21   -1    0    0  501  502 -0.00000000000E+00 -0.00000000000E+00 -0.55463586055E+03  0.55463586055E+03  0.00000000000E+00 0.  1.
         25    1    1    2    0    0  0.00000000000E+00  0.00000000000E+00 -0.54759295136E+03  0.56167876974E+03  0.12500000000E+03 0.  0.
<mgrwt>
<rscale>  2 0.12500000E+03</rscale>
<asrwt>0</asrwt>
<pdfrwt beam="1">  1       21 0.10835243E-02 0.12500000E+03</pdfrwt>
<pdfrwt beam="2">  1       21 0.85328612E-01 0.12500000E+03</pdfrwt>
<totfact> 0.38885060E+06</totfact>
</mgrwt>
</event>
<event>
 3    0  0.1368989E+001  0.1250000E+03  0.7546771E-02  0.1235069E+00
         21   -1    0    0  502  501  0.00000000000E+00  0.00000000000E+00  0.71752627502E+03  0.71752627502E+03  0.00000000000E+00 0. -1.
         21   -1    0    0  501  502 -0.00000000000E+00 -0.00000000000E+00 -0.54440515086E+01  0.54440515086E+01  0.00000000000E+00 0. -1.
         25    1    1    2    0    0  0.00000000000E+00  0.00000000000E+00  0.71208222351E+03  0.72297032653E+03  0.12500000000E+03 0.  0.
<mgrwt>
<rscale>  2 0.12500000E+03</rscale>
<asrwt>0</asrwt>
<pdfrwt beam="1">  1       21 0.11038858E+00 0.12500000E+03</pdfrwt>
<pdfrwt beam="2">  1       21 0.83754695E-03 0.12500000E+03</pdfrwt>
<totfact> 0.32043170E+06</totfact>
</mgrwt>
</event>
<event>
 3    0  0.1376211E+001  0.1250000E+03  0.7546771E-02  0.1235069E+00
         21   -1    0    0  502  501  0.00000000000E+00  0.00000000000E+00  0.60570778879E+01  0.60570778879E+01  0.00000000000E+00 0. -1.
         21   -1    0    0  501  502 -0.00000000000E+00 -0.00000000000E+00 -0.64490668146E+03  0.64490668146E+03  0.00000000000E+00 0. -1.
         25    1    1    2    0    0  0.00000000000E+00  0.00000000000E+00 -0.63884960357E+03  0.65096375934E+03  0.12500000000E+03 0.  0.
<mgrwt>
<rscale>  2 0.12500000E+03</rscale>
<asrwt>0</asrwt>
<pdfrwt beam="1">  1       21 0.93185859E-03 0.12500000E+03</pdfrwt>
<pdfrwt beam="2">  1       21 0.99216365E-01 0.12500000E+03</pdfrwt>
<totfact> 0.34884495E+06</totfact>
</mgrwt>
</event>
<event>
 3    0  0.1400777E+001  0.1250000E+03  0.7546771E-02  0.1235069E+00
         21   -1    0    0  502  501  0.00000000000E+00  0.00000000000E+00  0.60335921480E+03  0.60335921480E+03  0.00000000000E+00 0.  1.
         21   -1    0    0  501  502 -0.00000000000E+00 -0.00000000000E+00 -0.64741697884E+01  0.64741697884E+01  0.00000000000E+00 0.  1.
         25    1    1    2    0    0  0.00000000000E+00  0.00000000000E+00  0.59688504501E+03  0.60983338459E+03  0.12500000000E+03 0.  0.
<mgrwt>
<rscale>  2 0.12500000E+03</rscale>
<asrwt>0</asrwt>
<pdfrwt beam="1">  1       21 0.92824450E-01 0.12500000E+03</pdfrwt>
<pdfrwt beam="2">  1       21 0.99602660E-03 0.12500000E+03</pdfrwt>
<totfact> 0.36651684E+06</totfact>
</mgrwt>
</event>
<event>
 3    0  0.1368989E+001  0.1250000E+03  0.7546771E-02  0.1235069E+00
         21   -1    0    0  502  501  0.00000000000E+00  0.00000000000E+00  0.66727049563E+03  0.66727049563E+03  0.00000000000E+00 0.  1.
         21   -1    0    0  501  502 -0.00000000000E+00 -0.00000000000E+00 -0.58540727120E+01  0.58540727120E+01  0.00000000000E+00 0.  1.
         25    1    1    2    0    0  0.00000000000E+00  0.00000000000E+00  0.66141642292E+03  0.67312456834E+03  0.12500000000E+03 0.  0.
<mgrwt>
<rscale>  2 0.12500000E+03</rscale>
<asrwt>0</asrwt>
<pdfrwt beam="1">  1       21 0.10265694E+00 0.12500000E+03</pdfrwt>
<pdfrwt beam="2">  1       21 0.90062710E-03 0.12500000E+03</pdfrwt>
<totfact> 0.33972263E+06</totfact>
</mgrwt>
</event>
<event>
 3    0  0.1368989E+001  0.1250000E+03  0.7546771E-02  0.1235069E+00
         21   -1    0    0  502  501  0.00000000000E+00  0.00000000000E+00  0.72983358343E+03  0.72983358343E+03  0.00000000000E+00 0. -1.
         21   -1    0    0  501  502 -0.00000000000E+00 -0.00000000000E+00 -0.53522475379E+01  0.53522475379E+01  0.00000000000E+00 0. -1.
         25    1    1    2    0    0  0.00000000000E+00  0.00000000000E+00  0.72448133590E+03  0.73518583097E+03  0.12500000000E+03 0.  0.
<mgrwt>
<rscale>  2 0.12500000E+03</rscale>
<asrwt>0</asrwt>
<pdfrwt beam="1">  1       21 0.11228201E+00 0.12500000E+03</pdfrwt>
<pdfrwt beam="2">  1       21 0.82342328E-03 0.12500000E+03</pdfrwt>
<totfact> 0.31596906E+06</totfact>
</mgrwt>
</event>
<event>
 3    0  0.1635896E+001  0.1250000E+03  0.7546771E-02  0.1235069E+00
         21   -1    0    0  502  501  0.00000000000E+00  0.00000000000E+00  0.16095565568E+02  0.16095565568E+02  0.00000000000E+00 0.  1.
         21   -1    0    0  501  502 -0.00000000000E+00 -0.00000000000E+00 -0.24269106814E+03  0.24269106814E+03  0.00000000000E+00 0.  1.
         25    1    1    2    0    0  0.00000000000E+00  0.00000000000E+00 -0.22659550257E+03  0.25878663370E+03  0.12500000000E+03 0.  0.
<mgrwt>
<rscale>  2 0.12500000E+03</rscale>
<asrwt>0</asrwt>
<pdfrwt beam="1">  1       21 0.24762409E-02 0.12500000E+03</pdfrwt>
<pdfrwt beam="2">  1       21 0.37337087E-01 0.12500000E+03</pdfrwt>
<totfact> 0.59060663E+06</totfact>
</mgrwt>
</event>
<event>
 3    0  0.1687050E+001  0.1250000E+03  0.7546771E-02  0.1235069E+00
         21   -1    0    0  502  501  0.00000000000E+00  0.00000000000E+00  0.23085640673E+02  0.23085640673E+02  0.00000000000E+00 0.  1.
         21   -1    0    0  501  502 -0.00000000000E+00 -0.00000000000E+00 -0.16920691331E+03  0.16920691331E+03  0.00000000000E+00 0.  1.
         25    1    1    2    0    0  0.00000000000E+00  0.00000000000E+00 -0.14612127264E+03  0.19229255398E+03  0.12500000000E+03 0.  0.
<mgrwt>
<rscale>  2 0.12500000E+03</rscale>
<asrwt>0</asrwt>
<pdfrwt beam="1">  1       21 0.35516372E-02 0.12500000E+03</pdfrwt>
<pdfrwt beam="2">  1       21 0.26031832E-01 0.12500000E+03</pdfrwt>
<totfact> 0.65768571E+06</totfact>
</mgrwt>
</event>
<event>
 3    0  0.1493768E+001  0.1250000E+03  0.7546771E-02  0.1235069E+00
         21   -1    0    0  502  501  0.00000000000E+00  0.00000000000E+00  0.45219110844E+03  0.45219110844E+03  0.00000000000E+00 0. -1.
         21   -1    0    0  501  502 -0.00000000000E+00 -0.00000000000E+00 -0.86384936083E+01  0.86384936083E+01  0.00000000000E+00 0. -1.
         25    1    1    2    0    0  0.00000000000E+00  0.00000000000E+00  0.44355261483E+03  0.46082960205E+03  0.12500000000E+03 0.  0.
<mgrwt>
<rscale>  2 0.12500000E+03</rscale>
<asrwt>0</asrwt>
<pdfrwt beam="1">  1       21 0.69567844E-01 0.12500000E+03</pdfrwt>
<pdfrwt beam="2">  1       21 0.13289994E-02 0.12500000E+03</pdfrwt>
<totfact> 0.44251268E+06</totfact>
</mgrwt>
</event>
<event>
 3    0  0.1672162E+001  0.1250000E+03  0.7546771E-02  0.1235069E+00
         21   -1    0    0  502  501  0.00000000000E+00  0.00000000000E+00  0.13697950894E+03  0.13697950894E+03  0.00000000000E+00 0. -1.
         21   -1    0    0  501  502 -0.00000000000E+00 -0.00000000000E+00 -0.28517039010E+02  0.28517039010E+02  0.00000000000E+00 0. -1.
         25    1    1    2    0    0  0.00000000000E+00  0.00000000000E+00  0.10846246993E+03  0.16549654795E+03  0.12500000000E+03 0.  0.
<mgrwt>
<rscale>  2 0.12500000E+03</rscale>
<asrwt>0</asrwt>
<pdfrwt beam="1">  1       21 0.21073770E-01 0.12500000E+03</pdfrwt>
<pdfrwt beam="2">  1       21 0.43872369E-02 0.12500000E+03</pdfrwt>
<totfact> 0.68854037E+06</totfact>
</mgrwt>
</event>
<event>
 3    0  0.1532884E+001  0.1250000E+03  0.7546771E-02  0.1235069E+00
         21   -1    0    0  502  501  0.00000000000E+00  0.00000000000E+00  0.93963157135E+01  0.93963157135E+01  0.00000000000E+00 0.  1.
         21   -1    0    0  501  502 -0.00000000000E+00 -0.00000000000E+00 -0.41572145074E+03  0.41572145074E+03  0.00000000000E+00 0.  1.
         25    1    1    2    0    0  0.00000000000E+00  0.00000000000E+00 -0.40632513502E+03  0.42511776645E+03  0.12500000000E+03 0.  0.
<mgrwt>
<rscale>  2 0.12500000E+03</rscale>
<asrwt>0</asrwt>
<pdfrwt beam="1">  1       21 0.14455872E-02 0.12500000E+03</pdfrwt>
<pdfrwt beam="2">  1       21 0.63957137E-01 0.12500000E+03</pdfrwt>
<totfact> 0.46418755E+06</totfact>
</mgrwt>
</event>
<event>
 3    0  0.1494046E+001  0.1250000E+03  0.7546771E-02  0.1235069E+00
         21   -1    0    0  502  501  0.00000000000E+00  0.00000000000E+00  0.42408316962E+03  0.42408316962E+03  0.00000000000E+00 0. -1.
         21   -1    0    0  501  502 -0.00000000000E+00 -0.00000000000E+00 -0.92110469828E+01  0.92110469828E+01  0.00000000000E+00 0. -1.
         25    1    1    2    0    0  0.00000000000E+00  0.00000000000E+00  0.41487212264E+03  0.43329421660E+03  0.12500000000E+03 0.  0.
<mgrwt>
<rscale>  2 0.12500000E+03</rscale>
<asrwt>0</asrwt>
<pdfrwt beam="1">  1       21 0.65243550E-01 0.12500000E+03</pdfrwt>
<pdfrwt beam="2">  1       21 0.14170845E-02 0.12500000E+03</pdfrwt>
<totfact> 0.45908643E+06</totfact>
</mgrwt>
</event>
<event>
 3    0  0.1368989E+001  0.1250000E+03  0.7546771E-02  0.1235069E+00
         21   -1    0    0  502  501  0.00000000000E+00  0.00000000000E+00  0.92196208184E+03  0.92196208184E+03  0.00000000000E+00 0.  1.
         21   -1    0    0  501  502 -0.00000000000E+00 -0.00000000000E+00 -0.42368879121E+01  0.42368879121E+01  0.00000000000E+00 0.  1.
         25    1    1    2    0    0  0.00000000000E+00  0.00000000000E+00  0.91772519393E+03  0.92619896975E+03  0.12500000000E+03 0.  0.
<mgrwt>
<rscale>  2 0.12500000E+03</rscale>
<asrwt>0</asrwt>
<pdfrwt beam="1">  1       21 0.14184016E+00 0.12500000E+03</pdfrwt>
<pdfrwt beam="2">  1       21 0.65182964E-03 0.12500000E+03</pdfrwt>
<totfact> 0.25559679E+06</totfact>
</mgrwt>
</event>
<event>
 3    0  0.1709906E+001  0.1250000E+03  0.7546771E-02  0.1235069E+00
         21   -1    0    0  502  501  0.00000000000E+00  0.00000000000E+00  0.77434708695E+02  0.77434708695E+02  0.00000000000E+00 0. -1.
         21   -1    0    0  501  502 -0.00000000000E+00 -0.00000000000E+00 -0.50445724738E+02  0.50445724738E+02  0.00000000000E+00 0. -1.
         25    1    1    2    0    0  0.00000000000E+00  0.00000000000E+00  0.26988983958E+02  0.12788043343E+03  0.12500000000E+03 0.  0.
<mgrwt>
<rscale>  2 0.12500000E+03</rscale>
<asrwt>0</asrwt>
<pdfrwt beam="1">  1       21 0.11913032E-01 0.12500000E+03</pdfrwt>
<pdfrwt beam="2">  1       21 0.77608807E-02 0.12500000E+03</pdfrwt>
<totfact> 0.73649717E+06</totfact>
</mgrwt>
</event>
<event>
 3    0  0.1735722E+001  0.1250000E+03  0.7546771E-02  0.1235069E+00
         21   -1    0    0  502  501  0.00000000000E+00  0.00000000000E+00  0.56186274411E+02  0.56186274411E+02  0.00000000000E+00 0.  1.
         21   -1    0    0  501  502 -0.00000000000E+00 -0.00000000000E+00 -0.69523207241E+02  0.69523207241E+02  0.00000000000E+00 0.  1.
         25    1    1    2    0    0  0.00000000000E+00  0.00000000000E+00 -0.13336932830E+02  0.12570948165E+03  0.12500000000E+03 0.  0.
<mgrwt>
<rscale>  2 0.12500000E+03</rscale>
<asrwt>0</asrwt>
<pdfrwt beam="1">  1       21 0.86440422E-02 0.12500000E+03</pdfrwt>
<pdfrwt beam="2">  1       21 0.10695878E-01 0.12500000E+03</pdfrwt>
<totfact> 0.73946221E+06</totfact>
</mgrwt>
</event>
<event>
 3    0  0.1368989E+001  0.1250000E+03  0.7546771E-02  0.1235069E+00
         21   -1    0    0  502  501  0.00000000000E+00  0.00000000000E+00  0.10945775200E+04  0.10945775200E+04  0.00000000000E+00 0. -1.
         21   -1    0    0  501  502 -0.00000000000E+00 -0.00000000000E+00 -0.35687285082E+01  0.35687285082E+01  0.00000000000E+00 0. -1.
         25    1    1    2    0    0  0.00000000000E+00  0.00000000000E+00  0.10910087915E+04  0.10981462485E+04  0.12500000000E+03 0.  0.
<mgrwt>
<rscale>  2 0.12500000E+03</rscale>
<asrwt>0</asrwt>
<pdfrwt beam="1">  1       21 0.16839627E+00 0.12500000E+03</pdfrwt>
<pdfrwt beam="2">  1       21 0.54903603E-03 0.12500000E+03</pdfrwt>
<totfact> 0.21292716E+06</totfact>
</mgrwt>
</event>
<event>
 3    0  0.1635813E+001  0.1250000E+03  0.7546771E-02  0.1235069E+00
         21   -1    0    0  502  501  0.00000000000E+00  0.00000000000E+00  0.22198254139E+03  0.22198254139E+03  0.00000000000E+00 0.  1.
         21   -1    0    0  501  502 -0.00000000000E+00 -0.00000000000E+00 -0.17597104599E+02  0.17597104599E+02  0.00000000000E+00 0.  1.
         25    1    1    2    0    0  0.00000000000E+00  0.00000000000E+00  0.20438543679E+03  0.23957964599E+03  0.12500000000E+03 0.  0.
<mgrwt>
<rscale>  2 0.12500000E+03</rscale>
<asrwt>0</asrwt>
<pdfrwt beam="1">  1       21 0.34151158E-01 0.12500000E+03</pdfrwt>
<pdfrwt beam="2">  1       21 0.27072470E-02 0.12500000E+03</pdfrwt>
<totfact> 0.60873364E+06</totfact>
</mgrwt>
</event>
<event>
 3    0  0.1368989E+001  0.1250000E+03  0.7546771E-02  0.1235069E+00
         21   -1    0    0  502  501  0.00000000000E+00  0.00000000000E+00  0.40191090406E+01  0.40191090406E+01  0.00000000000E+00 0.  1.
         21   -1    0    0  501  502 -0.00000000000E+00 -0.00000000000E+00 -0.97191938824E+03  0.97191938824E+03  0.00000000000E+00 0.  1.
         25    1    1    2    0    0  0.00000000000E+00  0.00000000000E+00 -0.96790027920E+03  0.97593849728E+03  0.12500000000E+03 0.  0.
<mgrwt>
<rscale>  2 0.12500000E+03</rscale>
<asrwt>0</asrwt>
<pdfrwt beam="1">  1       21 0.61832350E-03 0.12500000E+03</pdfrwt>
<pdfrwt beam="2">  1       21 0.14952629E+00 0.12500000E+03</pdfrwt>
<totfact> 0.24229521E+06</totfact>
</mgrwt>
</event>
<event>
 3    0  0.1368989E+001  0.1250000E+03  0.7546771E-02  0.1235069E+00
         21   -1    0    0  502  501  0.00000000000E+00  0.00000000000E+00  0.93724805635E+03  0.93724805635E+03  0.00000000000E+00 0.  1.
         21   -1    0    0  501  502 -0.00000000000E+00 -0.00000000000E+00 -0.41677867172E+01  0.41677867172E+01  0.00000000000E+00 0.  1.
         25    1    1    2    0    0  0.00000000000E+00  0.00000000000E+00  0.93308026963E+03  0.94141584307E+03  0.12500000000E+03 0.  0.
<mgrwt>
<rscale>  2 0.12500000E+03</rscale>
<asrwt>0</asrwt>
<pdfrwt beam="1">  1       21 0.14419184E+00 0.12500000E+03</pdfrwt>
<pdfrwt beam="2">  1       21 0.64119870E-03 0.12500000E+03</pdfrwt>
<totfact> 0.25142683E+06</totfact>
</mgrwt>
</event>
<event>
 3    0  0.1368989E+001  0.1250000E+03  0.7546771E-02  0.1235069E+00
         21   -1    0    0  502  501  0.00000000000E+00  0.00000000000E+00  0.31460367638E+01  0.31460367638E+01  0.00000000000E+00 0. -1.
         21   -1    0    0  501  502 -0.00000000000E+00 -0.00000000000E+00 -0.12416415615E+04  0.12416415615E+04  0.00000000000E+00 0. -1.
         25    1    1    2    0    0  0.00000000000E+00  0.00000000000E+00 -0.12384955248E+04  0.12447875983E+04  0.12500000000E+03 0.  0.
<mgrwt>
<rscale>  2 0.12500000E+03</rscale>
<asrwt>0</asrwt>
<pdfrwt beam="1">  1       21 0.48400510E-03 0.12500000E+03</pdfrwt>
<pdfrwt beam="2">  1       21 0.19102200E+00 0.12500000E+03</pdfrwt>
<totfact> 0.18273060E+06</totfact>
</mgrwt>
</event>
<event>
 3    0  0.1661990E+001  0.1250000E+03  0.7546771E-02  0.1235069E+00
         21   -1    0    0  502  501  0.00000000000E+00  0.00000000000E+00  0.24518611342E+02  0.24518611342E+02  0.00000000000E+00 0. -1.
         21   -1    0    0  501  502 -0.00000000000E+00 -0.00000000000E+00 -0.15931775032E+03  0.15931775032E+03  0.00000000000E+00 0. -1.
         25    1    1    2    0    0  0.00000000000E+00  0.00000000000E+00 -0.13479913898E+03  0.18383636166E+03  0.12500000000E+03 0.  0.
<mgrwt>
<rscale>  2 0.12500000E+03</rscale>
<asrwt>0</asrwt>
<pdfrwt beam="1">  1       21 0.37720940E-02 0.12500000E+03</pdfrwt>
<pdfrwt beam="2">  1       21 0.24510424E-01 0.12500000E+03</pdfrwt>
<totfact> 0.66714143E+06</totfact>
</mgrwt>
</event>
<event>
 3    0  0.1716739E+001  0.1250000E+03  0.7546771E-02  0.1235069E+00
         21   -1    0    0  502  501  0.00000000000E+00  0.00000000000E+00  0.10801129153E+03  0.10801129153E+03  0.00000000000E+00 0.  1.
         21   -1    0    0  501  502 -0.00000000000E+00 -0.00000000000E+00 -0.36165200365E+02  0.36165200365E+02  0.00000000000E+00 0.  1.
         25    1    1    2    0    0  0.00000000000E+00  0.00000000000E+00  0.71846091168E+02  0.14417649190E+03  0.12500000000E+03 0.  0.
<mgrwt>
<rscale>  2 0.12500000E+03</rscale>
<asrwt>0</asrwt>
<pdfrwt beam="1">  1       21 0.16617122E-01 0.12500000E+03</pdfrwt>
<pdfrwt beam="2">  1       21 0.55638770E-02 0.12500000E+03</pdfrwt>
<totfact> 0.71498654E+06</totfact>
</mgrwt>
</event>
<event>
 3    0  0.1690587E+001  0.1250000E+03  0.7546771E-02  0.1235069E+00
         21   -1    0    0  502  501  0.00000000000E+00  0.00000000000E+00  0.33857159574E+02  0.33857159574E+02  0.00000000000E+00 0. -1.
         21   -1    0    0  501  502 -0.00000000000E+00 -0.00000000000E+00 -0.11537441561E+03  0.11537441561E+03  0.00000000000E+00 0. -1.
         25    1    1    2    0    0  0.00000000000E+00  0.00000000000E+00 -0.81517256033E+02  0.14923157518E+03  0.12500000000E+03 0.  0.
<mgrwt>
<rscale>  2 0.12500000E+03</rscale>
<asrwt>0</asrwt>
<pdfrwt beam="1">  1       21 0.52087938E-02 0.12500000E+03</pdfrwt>
<pdfrwt beam="2">  1       21 0.17749910E-01 0.12500000E+03</pdfrwt>
<totfact> 0.70855863E+06</totfact>
</mgrwt>
</event>
<event>
 3    0  0.1707677E+001  0.1250000E+03  0.7546771E-02  0.1235069E+00
         21   -1    0    0  502  501  0.00000000000E+00  0.00000000000E+00  0.12655461970E+03  0.12655461970E+03  0.00000000000E+00 0.  1.
         21   -1    0    0  501  502 -0.00000000000E+00 -0.00000000000E+00 -0.30866119382E+02  0.30866119382E+02  0.00000000000E+00 0.  1.
         25    1    1    2    0    0  0.00000000000E+00  0.00000000000E+00  0.95688500317E+02  0.15742073908E+03  0.12500000000E+03 0.  0.
<mgrwt>
<rscale>  2 0.12500000E+03</rscale>
<asrwt>0</asrwt>
<pdfrwt beam="1">  1       21 0.19469941E-01 0.12500000E+03</pdfrwt>
<pdfrwt beam="2">  1       21 0.47486338E-02 0.12500000E+03</pdfrwt>
<totfact> 0.69836035E+06</totfact>
</mgrwt>
</event>
<event>
 3    0  0.1384721E+001  0.1250000E+03  0.7546771E-02  0.1235069E+00
         21   -1    0    0  502  501  0.00000000000E+00  0.00000000000E+00  0.68208465727E+03  0.68208465727E+03  0.00000000000E+00 0. -1.
         21   -1    0    0  501  502 -0.00000000000E+00 -0.00000000000E+00 -0.57269284074E+01  0.57269284074E+01  0.00000000000E+00 0. -1.
         25    1    1    2    0    0  0.00000000000E+00  0.00000000000E+00  0.67635772886E+03  0.68781158568E+03  0.12500000000E+03 0.  0.
<mgrwt>
<rscale>  2 0.12500000E+03</rscale>
<asrwt>0</asrwt>
<pdfrwt beam="1">  1       21 0.10493604E+00 0.12500000E+03</pdfrwt>
<pdfrwt beam="2">  1       21 0.88106645E-03 0.12500000E+03</pdfrwt>
<totfact> 0.33385382E+06</totfact>
</mgrwt>
</event>
<event>
 3    0  0.1701914E+001  0.1250000E+03  0.7546771E-02  0.1235069E+00
         21   -1    0    0  502  501  0.00000000000E+00  0.00000000000E+00  0.97269570383E+02  0.97269570383E+02  0.00000000000E+00 0. -1.
         21   -1    0    0  501  502 -0.00000000000E+00 -0.00000000000E+00 -0.40159013601E+02  0.40159013601E+02  0.00000000000E+00 0. -1.
         25    1    1    2    0    0  0.00000000000E+00  0.00000000000E+00  0.57110556782E+02  0.13742858398E+03  0.12500000000E+03 0.  0.
<mgrwt>
<rscale>  2 0.12500000E+03</rscale>
<asrwt>0</asrwt>
<pdfrwt beam="1">  1       21 0.14964549E-01 0.12500000E+03</pdfrwt>
<pdfrwt beam="2">  1       21 0.61783098E-02 0.12500000E+03</pdfrwt>
<totfact> 0.72376480E+06</totfact>
</mgrwt>
</event>
<event>
 3    0  0.1652745E+001  0.1250000E+03  0.7546771E-02  0.1235069E+00
         21   -1    0    0  502  501  0.00000000000E+00  0.00000000000E+00  0.17334939777E+03  0.17334939777E+03  0.00000000000E+00 0. -1.
         21   -1    0    0  501  502 -0.00000000000E+00 -0.00000000000E+00 -0.22533969257E+02  0.22533969257E+02  0.00000000000E+00 0. -1.
         25    1    1    2    0    0  0.00000000000E+00  0.00000000000E+00  0.15081542851E+03  0.19588336702E+03  0.12500000000E+03 0.  0.
<mgrwt>
<rscale>  2 0.12500000E+03</rscale>
<asrwt>0</asrwt>
<pdfrwt beam="1">  1       21 0.26669137E-01 0.12500000E+03</pdfrwt>
<pdfrwt beam="2">  1       21 0.34667646E-02 0.12500000E+03</pdfrwt>
<totfact> 0.65374471E+06</totfact>
</mgrwt>
</event>
<event>
 3    0  0.1368989E+001  0.1250000E+03  0.7546771E-02  0.1235069E+00
         21   -1    0    0  502  501  0.00000000000E+00  0.00000000000E+00  0.11751647801E+04  0.11751647801E+04  0.00000000000E+00 0. -1.
         21   -1    0    0  501  502 -0.00000000000E+00 -0.00000000000E+00 -0.33240019324E+01  0.33240019324E+01  0.00000000000E+00 0. -1.
         25    1    1    2    0    0  0.00000000000E+00  0.00000000000E+00  0.11718407782E+04  0.11784887821E+04  0.12500000000E+03 0.  0.
<mgrwt>
<rscale>  2 0.12500000E+03</rscale>
<asrwt>0</asrwt>
<pdfrwt beam="1">  1       21 0.18079425E+00 0.12500000E+03</pdfrwt>
<pdfrwt beam="2">  1       21 0.51138585E-03 0.12500000E+03</pdfrwt>
<totfact> 0.19577447E+06</totfact>
</mgrwt>
</event>
<event>
 3    0  0.1664840E+001  0.1250000E+03  0.7546771E-02  0.1235069E+00
         21   -1    0    0  502  501  0.00000000000E+00  0.00000000000E+00  0.19147248634E+03  0.19147248634E+03  0.00000000000E+00 0.  1.
         21   -1    0    0  501  502 -0.00000000000E+00 -0.00000000000E+00 -0.20401103441E+02  0.20401103441E+02  0.00000000000E+00 0.  1.
         25    1    1    2    0    0  0.00000000000E+00  0.00000000000E+00  0.17107138290E+03  0.21187358978E+03  0.12500000000E+03 0.  0.
<mgrwt>
<rscale>  2 0.12500000E+03</rscale>
<asrwt>0</asrwt>
<pdfrwt beam="1">  1       21 0.29457304E-01 0.12500000E+03</pdfrwt>
<pdfrwt beam="2">  1       21 0.31386314E-02 0.12500000E+03</pdfrwt>
<totfact> 0.63662951E+06</totfact>
</mgrwt>
</event>
<event>
 3    0  0.1712411E+001  0.1250000E+03  0.7546771E-02  0.1235069E+00
         21   -1    0    0  502  501  0.00000000000E+00  0.00000000000E+00  0.59979988124E+02  0.59979988124E+02  0.00000000000E+00 0. -1.
         21   -1    0    0  501  502 -0.00000000000E+00 -0.00000000000E+00 -0.65125888187E+02  0.65125888187E+02  0.00000000000E+00 0. -1.
         25    1    1    2    0    0  0.00000000000E+00  0.00000000000E+00 -0.51459000628E+01  0.12510587631E+03  0.12500000000E+03 0.  0.
<mgrwt>
<rscale>  2 0.12500000E+03</rscale>
<asrwt>0</asrwt>
<pdfrwt beam="1">  1       21 0.92276905E-02 0.12500000E+03</pdfrwt>
<pdfrwt beam="2">  1       21 0.10019367E-01 0.12500000E+03</pdfrwt>
<totfact> 0.74029282E+06</totfact>
</mgrwt>
</event>
<event>
 3    0  0.1532554E+001  0.1250000E+03  0.7546771E-02  0.1235069E+00
         21   -1    0    0  502  501  0.00000000000E+00  0.00000000000E+00  0.10608116550E+02  0.10608116550E+02  0.00000000000E+00 0. -1.
         21   -1    0    0  501  502 -0.00000000000E+00 -0.00000000000E+00 -0.36823219103E+03  0.36823219103E+03  0.00000000000E+00 0. -1.
         25    1    1    2    0    0  0.00000000000E+00  0.00000000000E+00 -0.35762407448E+03  0.37884030758E+03  0.12500000000E+03 0.  0.
<mgrwt>
<rscale>  2 0.12500000E+03</rscale>
<asrwt>0</asrwt>
<pdfrwt beam="1">  1       21 0.16320180E-02 0.12500000E+03</pdfrwt>
<pdfrwt beam="2">  1       21 0.56651105E-01 0.12500000E+03</pdfrwt>
<totfact> 0.49476510E+06</totfact>
</mgrwt>
</event>
<event>
 3    0  0.1408179E+001  0.1250000E+03  0.7546771E-02  0.1235069E+00
         21   -1    0    0  502  501  0.00000000000E+00  0.00000000000E+00  0.62587749685E+03  0.62587749685E+03  0.00000000000E+00 0. -1.
         21   -1    0    0  501  502 -0.00000000000E+00 -0.00000000000E+00 -0.62412373342E+01  0.62412373342E+01  0.00000000000E+00 0. -1.
         25    1    1    2    0    0  0.00000000000E+00  0.00000000000E+00  0.61963625952E+03  0.63211873419E+03  0.12500000000E+03 0.  0.
<mgrwt>
<rscale>  2 0.12500000E+03</rscale>
<asrwt>0</asrwt>
<pdfrwt beam="1">  1       21 0.96288796E-01 0.12500000E+03</pdfrwt>
<pdfrwt beam="2">  1       21 0.96019086E-03 0.12500000E+03</pdfrwt>
<totfact> 0.35679252E+06</totfact>
</mgrwt>
</event>
<event>
 3    0  0.1733267E+001  0.1250000E+03  0.7546771E-02  0.1235069E+00
         21   -1    0    0  502  501  0.00000000000E+00  0.00000000000E+00  0.49668660968E+02  0.49668660968E+02  0.00000000000E+00 0.  1.
         21   -1    0    0  501  502 -0.00000000000E+00 -0.00000000000E+00 -0.78646170923E+02  0.78646170923E+02  0.00000000000E+00 0.  1.
         25    1    1    2    0    0  0.00000000000E+00  0.00000000000E+00 -0.28977509956E+02  0.12831483189E+03  0.12500000000E+03 0.  0.
<mgrwt>
<rscale>  2 0.12500000E+03</rscale>
<asrwt>0</asrwt>
<pdfrwt beam="1">  1       21 0.76413325E-02 0.12500000E+03</pdfrwt>
<pdfrwt beam="2">  1       21 0.12099411E-01 0.12500000E+03</pdfrwt>
<totfact> 0.73591072E+06</totfact>
</mgrwt>
</event>
<event>
 3    0  0.1639757E+001  0.1250000E+03  0.7546771E-02  0.1235069E+00
         21   -1    0    0  502  501  0.00000000000E+00  0.00000000000E+00  0.24069953143E+03  0.24069953143E+03  0.00000000000E+00 0.  1.
         21   -1    0    0  501  502 -0.00000000000E+00 -0.00000000000E+00 -0.16228739528E+02  0.16228739528E+02  0.00000000000E+00 0.  1.
         25    1    1    2    0    0  0.00000000000E+00  0.00000000000E+00  0.22447079190E+03  0.25692827096E+03  0.12500000000E+03 0.  0.
<mgrwt>
<rscale>  2 0.12500000E+03</rscale>
<asrwt>0</asrwt>
<pdfrwt beam="1">  1       21 0.37030695E-01 0.12500000E+03</pdfrwt>
<pdfrwt beam="2">  1       21 0.24967293E-02 0.12500000E+03</pdfrwt>
<totfact> 0.59231967E+06</totfact>
</mgrwt>
</event>
<event>
 3    0  0.1411521E+001  0.1250000E+03  0.7546771E-02  0.1235069E+00
         21   -1    0    0  502  501  0.00000000000E+00  0.00000000000E+00  0.55479918217E+03  0.55479918217E+03  0.00000000000E+00 0. -1.
         21   -1    0    0  501  502 -0.00000000000E+00 -0.00000000000E+00 -0.70408359016E+01  0.70408359016E+01  0.00000000000E+00 0. -1.
         25    1    1    2    0    0  0.00000000000E+00  0.00000000000E+00  0.54775834627E+03  0.56184001807E+03  0.12500000000E+03 0.  0.
<mgrwt>
<rscale>  2 0.12500000E+03</rscale>
<asrwt>0</asrwt>
<pdfrwt beam="1">  1       21 0.85353686E-01 0.12500000E+03</pdfrwt>
<pdfrwt beam="2">  1       21 0.10832060E-02 0.12500000E+03</pdfrwt>
<totfact> 0.38877276E+06</totfact>
</mgrwt>
</event>
<event>
 3    0  0.1673895E+001  0.1250000E+03  0.7546771E-02  0.1235069E+00
         21   -1    0    0  502  501  0.00000000000E+00  0.00000000000E+00  0.14532817932E+03  0.14532817932E+03  0.00000000000E+00 0. -1.
         21   -1    0    0  501  502 -0.00000000000E+00 -0.00000000000E+00 -0.26878820187E+02  0.26878820187E+02  0.00000000000E+00 0. -1.
         25    1    1    2    0    0  0.00000000000E+00  0.00000000000E+00  0.11844935913E+03  0.17220699951E+03  0.12500000000E+03 0.  0.
<mgrwt>
<rscale>  2 0.12500000E+03</rscale>
<asrwt>0</asrwt>
<pdfrwt beam="1">  1       21 0.22358181E-01 0.12500000E+03</pdfrwt>
<pdfrwt beam="2">  1       21 0.41352032E-02 0.12500000E+03</pdfrwt>
<totfact> 0.68056967E+06</totfact>
</mgrwt>
</event>
<event>
 3    0  0.1368989E+001  0.1250000E+03  0.7546771E-02  0.1235069E+00
         21   -1    0    0  502  501  0.00000000000E+00  0.00000000000E+00  0.23758365777E+01  0.23758365777E+01  0.00000000000E+00 0. -1.
         21   -1    0    0  501  502 -0.00000000000E+00 -0.00000000000E+00 -0.16441576987E+04  0.16441576987E+04  0.00000000000E+00 0. -1.
         25    1    1    2    0    0  0.00000000000E+00  0.00000000000E+00 -0.16417818621E+04  0.16465335353E+04  0.12500000000E+03 0.  0.
<mgrwt>
<rscale>  2 0.12500000E+03</rscale>
<asrwt>0</asrwt>
<pdfrwt beam="1">  1       21 0.36551347E-03 0.12500000E+03</pdfrwt>
<pdfrwt beam="2">  1       21 0.25294723E+00 0.12500000E+03</pdfrwt>
<totfact> 0.11953157E+06</totfact>
</mgrwt>
</event>
<event>
 3    0  0.1720068E+001  0.1250000E+03  0.7546771E-02  0.1235069E+00
         21   -1    0    0  502  501  0.00000000000E+00  0.00000000000E+00  0.37853264744E+02  0.37853264744E+02  0.00000000000E+00 0.  1.
         21   -1    0    0  501  502 -0.00000000000E+00 -0.00000000000E+00 -0.10319453359E+03  0.10319453359E+03  0.00000000000E+00 0.  1.
         25    1    1    2    0    0  0.00000000000E+00  0.00000000000E+00 -0.65341268845E+02  0.14104779833E+03  0.12500000000E+03 0.  0.
<mgrwt>
<rscale>  2 0.12500000E+03</rscale>
<asrwt>0</asrwt>
<pdfrwt beam="1">  1       21 0.58235793E-02 0.12500000E+03</pdfrwt>
<pdfrwt beam="2">  1       21 0.15876082E-01 0.12500000E+03</pdfrwt>
<totfact> 0.71902814E+06</totfact>
</mgrwt>
</event>
<event>
 3    0  0.1368989E+001  0.1250000E+03  0.7546771E-02  0.1235069E+00
         21   -1    0    0  502  501  0.00000000000E+00  0.00000000000E+00  0.14383942720E+04  0.14383942720E+04  0.00000000000E+00 0. -1.
         21   -1    0    0  501  502 -0.00000000000E+00 -0.00000000000E+00 -0.27157018602E+01  0.27157018602E+01  0.00000000000E+00 0. -1.
         25    1    1    2    0    0  0.00000000000E+00  0.00000000000E+00  0.14356785701E+04  0.14411099738E+04  0.12500000000E+03 0.  0.
<mgrwt>
<rscale>  2 0.12500000E+03</rscale>
<asrwt>0</asrwt>
<pdfrwt beam="1">  1       21 0.22129082E+00 0.12500000E+03</pdfrwt>
<pdfrwt beam="2">  1       21 0.41780143E-03 0.12500000E+03</pdfrwt>
<totfact> 0.14889104E+06</totfact>
</mgrwt>
</event>
<event>
 3    0  0.1708042E+001  0.1250000E+03  0.7546771E-02  0.1235069E+00
         21   -1    0    0  502  501  0.00000000000E+00  0.00000000000E+00  0.46477018228E+02  0.46477018228E+02  0.00000000000E+00 0. -1.
         21   -1    0    0  501  502 -0.00000000000E+00 -0.00000000000E+00 -0.84046914991E+02  0.84046914991E+02  0.00000000000E+00 0. -1.
         25    1    1    2    0    0  0.00000000000E+00  0.00000000000E+00 -0.37569896763E+02  0.13052393322E+03  0.12500000000E+03 0.  0.
<mgrwt>
<rscale>  2 0.12500000E+03</rscale>
<asrwt>0</asrwt>
<pdfrwt beam="1">  1       21 0.71503106E-02 0.12500000E+03</pdfrwt>
<pdfrwt beam="2">  1       21 0.12930295E-01 0.12500000E+03</pdfrwt>
<totfact> 0.73294899E+06</totfact>
</mgrwt>
</event>
<event>
 3    0  0.1672710E+001  0.1250000E+03  0.7546771E-02  0.1235069E+00
         21   -1    0    0  502  501  0.00000000000E+00  0.00000000000E+00  0.28546177506E+02  0.28546177506E+02  0.00000000000E+00 0. -1.
         21   -1    0    0  501  502 -0.00000000000E+00 -0.00000000000E+00 -0.13683968718E+03  0.13683968718E+03  0.00000000000E+00 0. -1.
         25    1    1    2    0    0  0.00000000000E+00  0.00000000000E+00 -0.10829350967E+03  0.16538586468E+03  0.12500000000E+03 0.  0.
<mgrwt>
<rscale>  2 0.12500000E+03</rscale>
<asrwt>0</asrwt>
<pdfrwt beam="1">  1       21 0.43917196E-02 0.12500000E+03</pdfrwt>
<pdfrwt beam="2">  1       21 0.21052259E-01 0.12500000E+03</pdfrwt>
<totfact> 0.68867317E+06</totfact>
</mgrwt>
</event>
<event>
 3    0  0.1691489E+001  0.1250000E+03  0.7546771E-02  0.1235069E+00
         21   -1    0    0  502  501  0.00000000000E+00  0.00000000000E+00  0.24872144397E+02  0.24872144397E+02  0.00000000000E+00 0.  1.
         21   -1    0    0  501  502 -0.00000000000E+00 -0.00000000000E+00 -0.15705320529E+03  0.15705320529E+03  0.00000000000E+00 0.  1.
         25    1    1    2    0    0  0.00000000000E+00  0.00000000000E+00 -0.13218106090E+03  0.18192534969E+03  0.12500000000E+03 0.  0.
<mgrwt>
<rscale>  2 0.12500000E+03</rscale>
<asrwt>0</asrwt>
<pdfrwt beam="1">  1       21 0.38264838E-02 0.12500000E+03</pdfrwt>
<pdfrwt beam="2">  1       21 0.24162031E-01 0.12500000E+03</pdfrwt>
<totfact> 0.66931350E+06</totfact>
</mgrwt>
</event>
<event>
 3    0  0.1688120E+001  0.1250000E+03  0.7546771E-02  0.1235069E+00
         21   -1    0    0  502  501  0.00000000000E+00  0.00000000000E+00  0.12117353483E+03  0.12117353483E+03  0.00000000000E+00 0. -1.
         21   -1    0    0  501  502 -0.00000000000E+00 -0.00000000000E+00 -0.32236824694E+02  0.32236824694E+02  0.00000000000E+00 0. -1.
         25    1    1    2    0    0  0.00000000000E+00  0.00000000000E+00  0.88936710141E+02  0.15341035953E+03  0.12500000000E+03 0.  0.
<mgrwt>
<rscale>  2 0.12500000E+03</rscale>
<asrwt>0</asrwt>
<pdfrwt beam="1">  1       21 0.18642082E-01 0.12500000E+03</pdfrwt>
<pdfrwt beam="2">  1       21 0.49595115E-02 0.12500000E+03</pdfrwt>
<totfact> 0.70333380E+06</totfact>
</mgrwt>
</event>
<event>
 3    0  0.1599784E+001  0.1250000E+03  0.7546771E-02  0.1235069E+00
         21   -1    0    0  502  501  0.00000000000E+00  0.00000000000E+00  0.13253332122E+02  0.13253332122E+02  0.00000000000E+00 0.  1.
         21   -1    0    0  501  502 -0.00000000000E+00 -0.00000000000E+00 -0.29473719998E+03  0.29473719998E+03  0.00000000000E+00 0.  1.
         25    1    1    2    0    0  0.00000000000E+00  0.00000000000E+00 -0.28148386785E+03  0.30799053210E+03  0.12500000000E+03 0.  0.
<mgrwt>
<rscale>  2 0.12500000E+03</rscale>
<asrwt>0</asrwt>
<pdfrwt beam="1">  1       21 0.20389742E-02 0.12500000E+03</pdfrwt>
<pdfrwt beam="2">  1       21 0.45344184E-01 0.12500000E+03</pdfrwt>
<totfact> 0.54798599E+06</totfact>
</mgrwt>
</event>
<event>
 3    0  0.1496927E+001  0.1250000E+03  0.7546771E-02  0.1235069E+00
         21   -1    0    0  502  501  0.00000000000E+00  0.00000000000E+00  0.84759720013E+01  0.84759720013E+01  0.00000000000E+00 0.  1.
         21   -1    0    0  501  502 -0.00000000000E+00 -0.00000000000E+00 -0.46086159787E+03  0.46086159787E+03  0.00000000000E+00 0.  1.
         25    1    1    2    0    0  0.00000000000E+00  0.00000000000E+00 -0.45238562587E+03  0.46933756987E+03  0.12500000000E+03 0.  0.
<mgrwt>
<rscale>  2 0.12500000E+03</rscale>
<asrwt>0</asrwt>
<pdfrwt beam="1">  1       21 0.13039953E-02 0.12500000E+03</pdfrwt>
<pdfrwt beam="2">  1       21 0.70901808E-01 0.12500000E+03</pdfrwt>
<totfact> 0.43757306E+06</totfact>
</mgrwt>
</event>
<event>
 3    0  0.1656031E+001  0.1250000E+03  0.7546771E-02  0.1235069E+00
         21   -1    0    0  502  501  0.00000000000E+00  0.00000000000E+00  0.19045965566E+02  0.19045965566E+02  0.00000000000E+00 0.  1.
         21   -1    0    0  501  502 -0.00000000000E+00 -0.00000000000E+00 -0.20509592892E+03  0.20509592892E+03  0.00000000000E+00 0.  1.
         25    1    1    2    0    0  0.00000000000E+00  0.00000000000E+00 -0.18604996335E+03  0.22414189449E+03  0.12500000000E+03 0.  0.
<mgrwt>
<rscale>  2 0.12500000E+03</rscale>
<asrwt>0</asrwt>
<pdfrwt beam="1">  1       21 0.29301485E-02 0.12500000E+03</pdfrwt>
<pdfrwt beam="2">  1       21 0.31553220E-01 0.12500000E+03</pdfrwt>
<totfact> 0.62401670E+06</totfact>
</mgrwt>
</event>
<event>
 3    0  0.1722378E+001  0.1250000E+03  0.7546771E-02  0.1235069E+00
         21   -1    0    0  502  501  0.00000000000E+00  0.00000000000E+00  0.34900661255E+02  0.34900661255E+02  0.00000000000E+00 0.  1.
         21   -1    0    0  501  502 -0.00000000000E+00 -0.00000000000E+00 -0.11192481344E+03  0.11192481344E+03  0.00000000000E+00 0.  1.
         25    1    1    2    0    0  0.00000000000E+00  0.00000000000E+00 -0.77024152187E+02  0.14682547470E+03  0.12500000000E+03 0.  0.
<mgrwt>
<rscale>  2 0.12500000E+03</rscale>
<asrwt>0</asrwt>
<pdfrwt beam="1">  1       21 0.53693325E-02 0.12500000E+03</pdfrwt>
<pdfrwt beam="2">  1       21 0.17219202E-01 0.12500000E+03</pdfrwt>
<totfact> 0.71160295E+06</totfact>
</mgrwt>
</event>
<event>
 3    0  0.1732564E+001  0.1250000E+03  0.7546771E-02  0.1235069E+00
         21   -1    0    0  502  501  0.00000000000E+00  0.00000000000E+00  0.46417867411E+02  0.46417867411E+02  0.00000000000E+00 0.  1.
         21   -1    0    0  501  502 -0.00000000000E+00 -0.00000000000E+00 -0.84154016930E+02  0.84154016930E+02  0.00000000000E+00 0.  1.
         25    1    1    2    0    0  0.00000000000E+00  0.00000000000E+00 -0.37736149519E+02  0.13057188434E+03  0.12500000000E+03 0.  0.
<mgrwt>
<rscale>  2 0.12500000E+03</rscale>
<asrwt>0</asrwt>
<pdfrwt beam="1">  1       21 0.71412105E-02 0.12500000E+03</pdfrwt>
<pdfrwt beam="2">  1       21 0.12946772E-01 0.12500000E+03</pdfrwt>
<totfact> 0.73288423E+06</totfact>
</mgrwt>
</event>
<event>
 3    0  0.1673040E+001  0.1250000E+03  0.7546771E-02  0.1235069E+00
         21   -1    0    0  502  501  0.00000000000E+00  0.00000000000E+00  0.19714667814E+02  0.19714667814E+02  0.00000000000E+00 0.  1.
         21   -1    0    0  501  502 -0.00000000000E+00 -0.00000000000E+00 -0.19813927564E+03  0.19813927564E+03  0.00000000000E+00 0.  1.
         25    1    1    2    0    0  0.00000000000E+00  0.00000000000E+00 -0.17842460782E+03  0.21785394345E+03  0.12500000000E+03 0.  0.
<mgrwt>
<rscale>  2 0.12500000E+03</rscale>
<asrwt>0</asrwt>
<pdfrwt beam="1">  1       21 0.30330258E-02 0.12500000E+03</pdfrwt>
<pdfrwt beam="2">  1       21 0.30482966E-01 0.12500000E+03</pdfrwt>
<totfact> 0.63042566E+06</totfact>
</mgrwt>
</event>
<event>
 3    0  0.1368989E+001  0.1250000E+03  0.7546771E-02  0.1235069E+00
         21   -1    0    0  502  501  0.00000000000E+00  0.00000000000E+00  0.80593346322E+03  0.80593346322E+03  0.00000000000E+00 0. -1.
         21   -1    0    0  501  502 -0.00000000000E+00 -0.00000000000E+00 -0.48468641374E+01  0.48468641374E+01  0.00000000000E+00 0. -1.
         25    1    1    2    0    0  0.00000000000E+00  0.00000000000E+00  0.80108659908E+03  0.81078032736E+03  0.12500000000E+03 0.  0.
<mgrwt>
<rscale>  2 0.12500000E+03</rscale>
<asrwt>0</asrwt>
<pdfrwt beam="1">  1       21 0.12398966E+00 0.12500000E+03</pdfrwt>
<pdfrwt beam="2">  1       21 0.74567205E-03 0.12500000E+03</pdfrwt>
<totfact> 0.29008757E+06</totfact>
</mgrwt>
</event>
<event>
 3    0  0.1368989E+001  0.1250000E+03  0.7546771E-02  0.1235069E+00
         21   -1    0    0  502  501  0.00000000000E+00  0.00000000000E+00  0.54121294231E+01  0.54121294231E+01  0.00000000000E+00 0.  1.
         21   -1    0    0  501  502 -0.00000000000E+00 -0.00000000000E+00 -0.72175842347E+03  0.72175842347E+03  0.00000000000E+00 0.  1.
         25    1    1    2    0    0  0.00000000000E+00  0.00000000000E+00 -0.71634629405E+03  0.72717055289E+03  0.12500000000E+03 0.  0.
<mgrwt>
<rscale>  2 0.12500000E+03</rscale>
<asrwt>0</asrwt>
<pdfrwt beam="1">  1       21 0.83263589E-03 0.12500000E+03</pdfrwt>
<pdfrwt beam="2">  1       21 0.11103968E+00 0.12500000E+03</pdfrwt>
<totfact> 0.31888592E+06</totfact>
</mgrwt>
</event>
<event>
 3    0  0.1595389E+001  0.1250000E+03  0.7546771E-02  0.1235069E+00
         21   -1    0    0  502  501  0.00000000000E+00  0.00000000000E+00  0.29678137142E+03  0.29678137142E+03  0.00000000000E+00 0.  1.
         21   -1    0    0  501  502 -0.00000000000E+00 -0.00000000000E+00 -0.13162045789E+02  0.13162045789E+02  0.00000000000E+00 0.  1.
         25    1    1    2    0    0  0.00000000000E+00  0.00000000000E+00  0.28361932563E+03  0.30994341721E+03  0.12500000000E+03 0.  0.
<mgrwt>
<rscale>  2 0.12500000E+03</rscale>
<asrwt>0</asrwt>
<pdfrwt beam="1">  1       21 0.45658668E-01 0.12500000E+03</pdfrwt>
<pdfrwt beam="2">  1       21 0.20249303E-02 0.12500000E+03</pdfrwt>
<totfact> 0.54639831E+06</totfact>
</mgrwt>
</event>
<event>
 3    0  0.1368989E+001  0.1250000E+03  0.7546771E-02  0.1235069E+00
         21   -1    0    0  502  501  0.00000000000E+00  0.00000000000E+00  0.21912959420E+01  0.21912959420E+01  0.00000000000E+00 0. -1.
         21   -1    0    0  501  502 -0.00000000000E+00 -0.00000000000E+00 -0.17826209255E+04  0.17826209255E+04  0.00000000000E+00 0. -1.
         25    1    1    2    0    0  0.00000000000E+00  0.00000000000E+00 -0.17804296295E+04  0.17848122214E+04  0.12500000000E+03 0.  0.
<mgrwt>
<rscale>  2 0.12500000E+03</rscale>
<asrwt>0</asrwt>
<pdfrwt beam="1">  1       21 0.33712192E-03 0.12500000E+03</pdfrwt>
<pdfrwt beam="2">  1       21 0.27424981E+00 0.12500000E+03</pdfrwt>
<totfact> 0.10245763E+06</totfact>
</mgrwt>
</event>
<event>
 3    0  0.1477739E+001  0.1250000E+03  0.7546771E-02  0.1235069E+00
         21   -1    0    0  502  501  0.00000000000E+00  0.00000000000E+00  0.75659779795E+01  0.75659779795E+01  0.00000000000E+00 0. -1.
         21   -1    0    0  501  502 -0.00000000000E+00 -0.00000000000E+00 -0.51629148414E+03  0.51629148414E+03  0.00000000000E+00 0. -1.
         25    1    1    2    0    0  0.00000000000E+00  0.00000000000E+00 -0.50872550616E+03  0.52385746212E+03  0.12500000000E+03 0.  0.
<mgrwt>
<rscale>  2 0.12500000E+03</rscale>
<asrwt>0</asrwt>
<pdfrwt beam="1">  1       21 0.11639964E-02 0.12500000E+03</pdfrwt>
<pdfrwt beam="2">  1       21 0.79429472E-01 0.12500000E+03</pdfrwt>
<totfact> 0.40779090E+06</totfact>
</mgrwt>
</event>
<event>
 3    0  0.1589947E+001  0.1250000E+03  0.7546771E-02  0.1235069E+00
         21   -1    0    0  502  501  0.00000000000E+00  0.00000000000E+00  0.28909631487E+03  0.28909631487E+03  0.00000000000E+00 0. -1.
         21   -1    0    0  501  502 -0.00000000000E+00 -0.00000000000E+00 -0.13511932872E+02  0.13511932872E+02  0.00000000000E+00 0. -1.
         25    1    1    2    0    0  0.00000000000E+00  0.00000000000E+00  0.27558438199E+03  0.30260824774E+03  0.12500000000E+03 0.  0.
<mgrwt>
<rscale>  2 0.12500000E+03</rscale>
<asrwt>0</asrwt>
<pdfrwt beam="1">  1       21 0.44476351E-01 0.12500000E+03</pdfrwt>
<pdfrwt beam="2">  1       21 0.20787591E-02 0.12500000E+03</pdfrwt>
<totfact> 0.55240114E+06</totfact>
</mgrwt>
</event>
<event>
 3    0  0.1599176E+001  0.1250000E+03  0.7546771E-02  0.1235069E+00
         21   -1    0    0  502  501  0.00000000000E+00  0.00000000000E+00  0.23589106676E+03  0.23589106676E+03  0.00000000000E+00 0. -1.
         21   -1    0    0  501  502 -0.00000000000E+00 -0.00000000000E+00 -0.16559550362E+02  0.16559550362E+02  0.00000000000E+00 0. -1.
         25    1    1    2    0    0  0.00000000000E+00  0.00000000000E+00  0.21933151639E+03  0.25245061712E+03  0.12500000000E+03 0.  0.
<mgrwt>
<rscale>  2 0.12500000E+03</rscale>
<asrwt>0</asrwt>
<pdfrwt beam="1">  1       21 0.36290931E-01 0.12500000E+03</pdfrwt>
<pdfrwt beam="2">  1       21 0.25476233E-02 0.12500000E+03</pdfrwt>
<totfact> 0.59648233E+06</totfact>
</mgrwt>
</event>
<event>
 3    0  0.1733401E+001  0.1250000E+03  0.7546771E-02  0.1235069E+00
         21   -1    0    0  502  501  0.00000000000E+00  0.00000000000E+00  0.48136828794E+02  0.48136828794E+02  0.00000000000E+00 0.  1.
         21   -1    0    0  501  502 -0.00000000000E+00 -0.00000000000E+00 -0.81148885331E+02  0.81148885331E+02  0.00000000000E+00 0.  1.
         25    1    1    2    0    0  0.00000000000E+00  0.00000000000E+00 -0.33012056537E+02  0.12928571413E+03  0.12500000000E+03 0.  0.
<mgrwt>
<rscale>  2 0.12500000E+03</rscale>
<asrwt>0</asrwt>
<pdfrwt beam="1">  1       21 0.74056660E-02 0.12500000E+03</pdfrwt>
<pdfrwt beam="2">  1       21 0.12484444E-01 0.12500000E+03</pdfrwt>
<totfact> 0.73460538E+06</totfact>
</mgrwt>
</event>
<event>
 3    0  0.1636947E+001  0.1250000E+03  0.7546771E-02  0.1235069E+00
         21   -1    0    0  502  501  0.00000000000E+00  0.00000000000E+00  0.15318140787E+02  0.15318140787E+02  0.00000000000E+00 0.  1.
         21   -1    0    0  501  502 -0.00000000000E+00 -0.00000000000E+00 -0.25500810146E+03  0.25500810146E+03  0.00000000000E+00 0.  1.
         25    1    1    2    0    0  0.00000000000E+00  0.00000000000E+00 -0.23968996067E+03  0.27032624225E+03  0.12500000000E+03 0.  0.
<mgrwt>
<rscale>  2 0.12500000E+03</rscale>
<asrwt>0</asrwt>
<pdfrwt beam="1">  1       21 0.23566372E-02 0.12500000E+03</pdfrwt>
<pdfrwt beam="2">  1       21 0.39232012E-01 0.12500000E+03</pdfrwt>
<totfact> 0.58015549E+06</totfact>
</mgrwt>
</event>
<event>
 3    0  0.1693706E+001  0.1250000E+03  0.7546771E-02  0.1235069E+00
         21   -1    0    0  502  501  0.00000000000E+00  0.00000000000E+00  0.11860689804E+03  0.11860689804E+03  0.00000000000E+00 0. -1.
         21   -1    0    0  501  502 -0.00000000000E+00 -0.00000000000E+00 -0.32934425101E+02  0.32934425101E+02  0.00000000000E+00 0. -1.
         25    1    1    2    0    0  0.00000000000E+00  0.00000000000E+00  0.85672472939E+02  0.15154132314E+03  0.12500000000E+03 0.  0.
<mgrwt>
<rscale>  2 0.12500000E+03</rscale>
<asrwt>0</asrwt>
<pdfrwt beam="1">  1       21 0.18247215E-01 0.12500000E+03</pdfrwt>
<pdfrwt beam="2">  1       21 0.50668347E-02 0.12500000E+03</pdfrwt>
<totfact> 0.70566116E+06</totfact>
</mgrwt>
</event>
<event>
 3    0  0.1591142E+001  0.1250000E+03  0.7546771E-02  0.1235069E+00
         21   -1    0    0  502  501  0.00000000000E+00  0.00000000000E+00  0.12335557838E+02  0.12335557838E+02  0.00000000000E+00 0.  1.
         21   -1    0    0  501  502 -0.00000000000E+00 -0.00000000000E+00 -0.31666585746E+03  0.31666585746E+03  0.00000000000E+00 0.  1.
         25    1    1    2    0    0  0.00000000000E+00  0.00000000000E+00 -0.30433029963E+03  0.32900141530E+03  0.12500000000E+03 0.  0.
<mgrwt>
<rscale>  2 0.12500000E+03</rscale>
<asrwt>0</asrwt>
<pdfrwt beam="1">  1       21 0.18977781E-02 0.12500000E+03</pdfrwt>
<pdfrwt beam="2">  1       21 0.48717825E-01 0.12500000E+03</pdfrwt>
<totfact> 0.53127647E+06</totfact>
</mgrwt>
</event>
<event>
 3    0  0.1529935E+001  0.1250000E+03  0.7546771E-02  0.1235069E+00
         21   -1    0    0  502  501  0.00000000000E+00  0.00000000000E+00  0.98318365756E+01  0.98318365756E+01  0.00000000000E+00 0.  1.
         21   -1    0    0  501  502 -0.00000000000E+00 -0.00000000000E+00 -0.39730623775E+03  0.39730623775E+03  0.00000000000E+00 0.  1.
         25    1    1    2    0    0  0.00000000000E+00  0.00000000000E+00 -0.38747440117E+03  0.40713807432E+03  0.12500000000E+03 0.  0.
<mgrwt>
<rscale>  2 0.12500000E+03</rscale>
<asrwt>0</asrwt>
<pdfrwt beam="1">  1       21 0.15125904E-02 0.12500000E+03</pdfrwt>
<pdfrwt beam="2">  1       21 0.61124031E-01 0.12500000E+03</pdfrwt>
<totfact> 0.47571469E+06</totfact>
</mgrwt>
</event>
<event>
 3    0  0.1680624E+001  0.1250000E+03  0.7546771E-02  0.1235069E+00
         21   -1    0    0  502  501  0.00000000000E+00  0.00000000000E+00  0.13330213209E+03  0.13330213209E+03  0.00000000000E+00 0. -1.
         21   -1    0    0  501  502 -0.00000000000E+00 -0.00000000000E+00 -0.29303732346E+02  0.29303732346E+02  0.00000000000E+00 0. -1.
         25    1    1    2    0    0  0.00000000000E+00  0.00000000000E+00  0.10399839975E+03  0.16260586444E+03  0.12500000000E+03 0.  0.
<mgrwt>
<rscale>  2 0.12500000E+03</rscale>
<asrwt>0</asrwt>
<pdfrwt beam="1">  1       21 0.20508020E-01 0.12500000E+03</pdfrwt>
<pdfrwt beam="2">  1       21 0.45082666E-02 0.12500000E+03</pdfrwt>
<totfact> 0.69202481E+06</totfact>
</mgrwt>
</event>
<event>
 3    0  0.1580056E+001  0.1250000E+03  0.7546771E-02  0.1235069E+00
         21   -1    0    0  502  501  0.00000000000E+00  0.00000000000E+00  0.12871023028E+02  0.12871023028E+02  0.00000000000E+00 0.  1.
         21   -1    0    0  501  502 -0.00000000000E+00 -0.00000000000E+00 -0.30349180416E+03  0.30349180416E+03  0.00000000000E+00 0.  1.
         25    1    1    2    0    0  0.00000000000E+00  0.00000000000E+00 -0.29062078113E+03  0.31636282718E+03  0.12500000000E+03 0.  0.
<mgrwt>
<rscale>  2 0.12500000E+03</rscale>
<asrwt>0</asrwt>
<pdfrwt beam="1">  1       21 0.19801576E-02 0.12500000E+03</pdfrwt>
<pdfrwt beam="2">  1       21 0.46691042E-01 0.12500000E+03</pdfrwt>
<totfact> 0.54122837E+06</totfact>
</mgrwt>
</event>
<event>
 3    0  0.1708603E+001  0.1250000E+03  0.7546771E-02  0.1235069E+00
         21   -1    0    0  502  501  0.00000000000E+00  0.00000000000E+00  0.12614832701E+03  0.12614832701E+03  0.00000000000E+00 0.  1.
         21   -1    0    0  501  502 -0.00000000000E+00 -0.00000000000E+00 -0.30965531551E+02  0.30965531551E+02  0.00000000000E+00 0.  1.
         25    1    1    2    0    0  0.00000000000E+00  0.00000000000E+00  0.95182795454E+02  0.15711385856E+03  0.12500000000E+03 0.  0.
<mgrwt>
<rscale>  2 0.12500000E+03</rscale>
<asrwt>0</asrwt>
<pdfrwt beam="1">  1       21 0.19407435E-01 0.12500000E+03</pdfrwt>
<pdfrwt beam="2">  1       21 0.47639280E-02 0.12500000E+03</pdfrwt>
<totfact> 0.69873882E+06</totfact>
</mgrwt>
</event>
<event>
 3    0  0.1731540E+001  0.1250000E+03  0.7546771E-02  0.1235069E+00
         21   -1    0    0  502  501  0.00000000000E+00  0.00000000000E+00  0.46030202932E+02  0.46030202932E+02  0.00000000000E+00 0.  1.
         21   -1    0    0  501  502 -0.00000000000E+00 -0.00000000000E+00 -0.84862758606E+02  0.84862758606E+02  0.00000000000E+00 0.  1.
         25    1    1    2    0    0  0.00000000000E+00  0.00000000000E+00 -0.38832555674E+02  0.13089296154E+03  0.12500000000E+03 0.  0.
<mgrwt>
<rscale>  2 0.12500000E+03</rscale>
<asrwt>0</asrwt>
<pdfrwt beam="1">  1       21 0.70815697E-02 0.12500000E+03</pdfrwt>
<pdfrwt beam="2">  1       21 0.13055809E-01 0.12500000E+03</pdfrwt>
<totfact> 0.73245099E+06</totfact>
</mgrwt>
</event>
<event>
 3    0  0.1435501E+001  0.1250000E+03  0.7546771E-02  0.1235069E+00
         21   -1    0    0  502  501  0.00000000000E+00  0.00000000000E+00  0.54113101998E+03  0.54113101998E+03  0.00000000000E+00 0. -1.
         21   -1    0    0  501  502 -0.00000000000E+00 -0.00000000000E+00 -0.72186769115E+01  0.72186769115E+01  0.00000000000E+00 0. -1.
         25    1    1    2    0    0  0.00000000000E+00  0.00000000000E+00  0.53391234307E+03  0.54834969689E+03  0.12500000000E+03 0.  0.
<mgrwt>
<rscale>  2 0.12500000E+03</rscale>
<asrwt>0</asrwt>
<pdfrwt beam="1">  1       21 0.83250894E-01 0.12500000E+03</pdfrwt>
<pdfrwt beam="2">  1       21 0.11105661E-02 0.12500000E+03</pdfrwt>
<totfact> 0.39537752E+06</totfact>
</mgrwt>
</event>
<event>
 3    0  0.1700432E+001  0.1250000E+03  0.7546771E-02  0.1235069E+00
         21   -1    0    0  502  501  0.00000000000E+00  0.00000000000E+00  0.10082834009E+03  0.10082834009E+03  0.00000000000E+00 0. -1.
         21   -1    0    0  501  502 -0.00000000000E+00 -0.00000000000E+00 -0.38741587895E+02  0.38741587895E+02  0.00000000000E+00 0. -1.
         25    1    1    2    0    0  0.00000000000E+00  0.00000000000E+00  0.62086752196E+02  0.13956992799E+03  0.12500000000E+03 0.  0.
<mgrwt>
<rscale>  2 0.12500000E+03</rscale>
<asrwt>0</asrwt>
<pdfrwt beam="1">  1       21 0.15512052E-01 0.12500000E+03</pdfrwt>
<pdfrwt beam="2">  1       21 0.59602443E-02 0.12500000E+03</pdfrwt>
<totfact> 0.72095503E+06</totfact>
</mgrwt>
</event>
<event>
 3    0  0.1368989E+001  0.1250000E+03  0.7546771E-02  0.1235069E+00
         21   -1    0    0  502  501  0.00000000000E+00  0.00000000000E+00  0.14914167908E+01  0.14914167908E+01  0.00000000000E+00 0. -1.
         21   -1    0    0  501  502 -0.00000000000E+00 -0.00000000000E+00 -0.26191538302E+04  0.26191538302E+04  0.00000000000E+00 0. -1.
         25    1    1    2    0    0  0.00000000000E+00  0.00000000000E+00 -0.26176624134E+04  0.26206452470E+04  0.12500000000E+03 0.  0.
<mgrwt>
<rscale>  2 0.12500000E+03</rscale>
<asrwt>0</asrwt>
<pdfrwt beam="1">  1       21 0.22944926E-03 0.12500000E+03</pdfrwt>
<pdfrwt beam="2">  1       21 0.40294583E+00 0.12500000E+03</pdfrwt>
<totfact> 0.33352219E+05</totfact>
</mgrwt>
</event>
<event>
 3    0  0.1615331E+001  0.1250000E+03  0.7546771E-02  0.1235069E+00
         21   -1    0    0  502  501  0.00000000000E+00  0.00000000000E+00  0.17019370518E+02  0.17019370518E+02  0.00000000000E+00 0. -1.
         21   -1    0    0  501  502 -0.00000000000E+00 -0.00000000000E+00 -0.22951788938E+03  0.22951788938E+03  0.00000000000E+00 0. -1.
         25    1    1    2    0    0  0.00000000000E+00  0.00000000000E+00 -0.21249851887E+03  0.24653725990E+03  0.12500000000E+03 0.  0.
<mgrwt>
<rscale>  2 0.12500000E+03</rscale>
<asrwt>0</asrwt>
<pdfrwt beam="1">  1       21 0.26183647E-02 0.12500000E+03</pdfrwt>
<pdfrwt beam="2">  1       21 0.35310445E-01 0.12500000E+03</pdfrwt>
<totfact> 0.60205741E+06</totfact>
</mgrwt>
</event>
<event>
 3    0  0.1368989E+001  0.1250000E+03  0.7546771E-02  0.1235069E+00
         21   -1    0    0  502  501  0.00000000000E+00  0.00000000000E+00  0.46017602242E+01  0.46017602242E+01  0.00000000000E+00 0. -1.
         21   -1    0    0  501  502 -0.00000000000E+00 -0.00000000000E+00 -0.84885996004E+03  0.84885996004E+03  0.00000000000E+00 0. -1.
         25    1    1    2    0    0  0.00000000000E+00  0.00000000000E+00 -0.84425819982E+03  0.85346172026E+03  0.12500000000E+03 0.  0.
<mgrwt>
<rscale>  2 0.12500000E+03</rscale>
<asrwt>0</asrwt>
<pdfrwt beam="1">  1       21 0.70796301E-03 0.12500000E+03</pdfrwt>
<pdfrwt beam="2">  1       21 0.13059386E+00 0.12500000E+03</pdfrwt>
<totfact> 0.27666254E+06</totfact>
</mgrwt>
</event>
<event>
 3    0  0.1585937E+001  0.1250000E+03  0.7546771E-02  0.1235069E+00
         21   -1    0    0  502  501  0.00000000000E+00  0.00000000000E+00  0.28590725603E+03  0.28590725603E+03  0.00000000000E+00 0.  1.
         21   -1    0    0  501  502 -0.00000000000E+00 -0.00000000000E+00 -0.13662647301E+02  0.13662647301E+02  0.00000000000E+00 0.  1.
         25    1    1    2    0    0  0.00000000000E+00  0.00000000000E+00  0.27224460873E+03  0.29956990334E+03  0.12500000000E+03 0.  0.
<mgrwt>
<rscale>  2 0.12500000E+03</rscale>
<asrwt>0</asrwt>
<pdfrwt beam="1">  1       21 0.43985727E-01 0.12500000E+03</pdfrwt>
<pdfrwt beam="2">  1       21 0.21019460E-02 0.12500000E+03</pdfrwt>
<totfact> 0.55491937E+06</totfact>
</mgrwt>
</event>
<event>
 3    0  0.1382831E+001  0.1250000E+03  0.7546771E-02  0.1235069E+00
         21   -1    0    0  502  501  0.00000000000E+00  0.00000000000E+00  0.68325159148E+03  0.68325159148E+03  0.00000000000E+00 0. -1.
         21   -1    0    0  501  502 -0.00000000000E+00 -0.00000000000E+00 -0.57171473125E+01  0.57171473125E+01  0.00000000000E+00 0. -1.
         25    1    1    2    0    0  0.00000000000E+00  0.00000000000E+00  0.67753444416E+03  0.68896873879E+03  0.12500000000E+03 0.  0.
<mgrwt>
<rscale>  2 0.12500000E+03</rscale>
<asrwt>0</asrwt>
<pdfrwt beam="1">  1       21 0.10511556E+00 0.12500000E+03</pdfrwt>
<pdfrwt beam="2">  1       21 0.87956167E-03 0.12500000E+03</pdfrwt>
<totfact> 0.33339805E+06</totfact>
</mgrwt>
</event>
<event>
 3    0  0.1507723E+001  0.1250000E+03  0.7546771E-02  0.1235069E+00
         21   -1    0    0  502  501  0.00000000000E+00  0.00000000000E+00  0.42805576698E+03  0.42805576698E+03  0.00000000000E+00 0.  1.
         21   -1    0    0  501  502 -0.00000000000E+00 -0.00000000000E+00 -0.91255633059E+01  0.91255633059E+01  0.00000000000E+00 0.  1.
         25    1    1    2    0    0  0.00000000000E+00  0.00000000000E+00  0.41893020367E+03  0.43718133028E+03  0.12500000000E+03 0.  0.
<mgrwt>
<rscale>  2 0.12500000E+03</rscale>
<asrwt>0</asrwt>
<pdfrwt beam="1">  1       21 0.65854718E-01 0.12500000E+03</pdfrwt>
<pdfrwt beam="2">  1       21 0.14039331E-02 0.12500000E+03</pdfrwt>
<totfact> 0.45669125E+06</totfact>
</mgrwt>
</event>
<event>
 3    0  0.1727665E+001  0.1250000E+03  0.7546771E-02  0.1235069E+00
         21   -1    0    0  502  501  0.00000000000E+00  0.00000000000E+00  0.40573621372E+02  0.40573621372E+02  0.00000000000E+00 0.  1.
         21   -1    0    0  501  502 -0.00000000000E+00 -0.00000000000E+00 -0.96275606364E+02  0.96275606364E+02  0.00000000000E+00 0.  1.
         25    1    1    2    0    0  0.00000000000E+00  0.00000000000E+00 -0.55701984992E+02  0.13684922774E+03  0.12500000000E+03 0.  0.
<mgrwt>
<rscale>  2 0.12500000E+03</rscale>
<asrwt>0</asrwt>
<pdfrwt beam="1">  1       21 0.62420956E-02 0.12500000E+03</pdfrwt>
<pdfrwt beam="2">  1       21 0.14811632E-01 0.12500000E+03</pdfrwt>
<totfact> 0.72452536E+06</totfact>
</mgrwt>
</event>
<event>
 3    0  0.1715958E+001  0.1250000E+03  0.7546771E-02  0.1235069E+00
         21   -1    0    0  502  501  0.00000000000E+00  0.00000000000E+00  0.28224488790E+02  0.28224488790E+02  0.00000000000E+00 0.  1.
         21   -1    0    0  501  502 -0.00000000000E+00 -0.00000000000E+00 -0.13839931802E+03  0.13839931802E+03  0.00000000000E+00 0.  1.
         25    1    1    2    0    0  0.00000000000E+00  0.00000000000E+00 -0.11017482923E+03  0.16662380681E+03  0.12500000000E+03 0.  0.
<mgrwt>
<rscale>  2 0.12500000E+03</rscale>
<asrwt>0</asrwt>
<pdfrwt beam="1">  1       21 0.43422290E-02 0.12500000E+03</pdfrwt>
<pdfrwt beam="2">  1       21 0.21292203E-01 0.12500000E+03</pdfrwt>
<totfact> 0.68719060E+06</totfact>
</mgrwt>
</event>
<event>
 3    0  0.1485302E+001  0.1250000E+03  0.7546771E-02  0.1235069E+00
         21   -1    0    0  502  501  0.00000000000E+00  0.00000000000E+00  0.48889349210E+03  0.48889349210E+03  0.00000000000E+00 0.  1.
         21   -1    0    0  501  502 -0.00000000000E+00 -0.00000000000E+00 -0.79899815872E+01  0.79899815872E+01  0.00000000000E+00 0.  1.
         25    1    1    2    0    0  0.00000000000E+00  0.00000000000E+00  0.48090351052E+03  0.49688347369E+03  0.12500000000E+03 0.  0.
<mgrwt>
<rscale>  2 0.12500000E+03</rscale>
<asrwt>0</asrwt>
<pdfrwt beam="1">  1       21 0.75214360E-01 0.12500000E+03</pdfrwt>
<pdfrwt beam="2">  1       21 0.12292283E-02 0.12500000E+03</pdfrwt>
<totfact> 0.42213601E+06</totfact>
</mgrwt>
</event>
<event>
 3    0  0.1368989E+001  0.1250000E+03  0.7546771E-02  0.1235069E+00
         21   -1    0    0  502  501  0.00000000000E+00  0.00000000000E+00  0.24779313513E+01  0.24779313513E+01  0.00000000000E+00 0. -1.
         21   -1    0    0  501  502 -0.00000000000E+00 -0.00000000000E+00 -0.15764157461E+04  0.15764157461E+04  0.00000000000E+00 0. -1.
         25    1    1    2    0    0  0.00000000000E+00  0.00000000000E+00 -0.15739378148E+04  0.15788936775E+04  0.12500000000E+03 0.  0.
<mgrwt>
<rscale>  2 0.12500000E+03</rscale>
<asrwt>0</asrwt>
<pdfrwt beam="1">  1       21 0.38121963E-03 0.12500000E+03</pdfrwt>
<pdfrwt beam="2">  1       21 0.24252587E+00 0.12500000E+03</pdfrwt>
<totfact> 0.12862786E+06</totfact>
</mgrwt>
</event>
<event>
 3    0  0.1724041E+001  0.1250000E+03  0.7546771E-02  0.1235069E+00
         21   -1    0    0  502  501  0.00000000000E+00  0.00000000000E+00  0.39759168128E+02  0.39759168128E+02  0.00000000000E+00 0.  1.
         21   -1    0    0  501  502 -0.00000000000E+00 -0.00000000000E+00 -0.98247779918E+02  0.98247779918E+02  0.00000000000E+00 0.  1.
         25    1    1    2    0    0  0.00000000000E+00  0.00000000000E+00 -0.58488611790E+02  0.13800694805E+03  0.12500000000E+03 0.  0.
<mgrwt>
<rscale>  2 0.12500000E+03</rscale>
<asrwt>0</asrwt>
<pdfrwt beam="1">  1       21 0.61167951E-02 0.12500000E+03</pdfrwt>
<pdfrwt beam="2">  1       21 0.15115043E-01 0.12500000E+03</pdfrwt>
<totfact> 0.72300577E+06</totfact>
</mgrwt>
</event>
<event>
 3    0  0.1481225E+001  0.1250000E+03  0.7546771E-02  0.1235069E+00
         21   -1    0    0  502  501  0.00000000000E+00  0.00000000000E+00  0.90666117307E+01  0.90666117307E+01  0.00000000000E+00 0. -1.
         21   -1    0    0  501  502 -0.00000000000E+00 -0.00000000000E+00 -0.43083900756E+03  0.43083900756E+03  0.00000000000E+00 0. -1.
         25    1    1    2    0    0  0.00000000000E+00  0.00000000000E+00 -0.42177239583E+03  0.43990561929E+03  0.12500000000E+03 0.  0.
<mgrwt>
<rscale>  2 0.12500000E+03</rscale>
<asrwt>0</asrwt>
<pdfrwt beam="1">  1       21 0.13948636E-02 0.12500000E+03</pdfrwt>
<pdfrwt beam="2">  1       21 0.66282912E-01 0.12500000E+03</pdfrwt>
<totfact> 0.45502389E+06</totfact>
</mgrwt>
</event>
<event>
 3    0  0.1707519E+001  0.1250000E+03  0.7546771E-02  0.1235069E+00
         21   -1    0    0  502  501  0.00000000000E+00  0.00000000000E+00  0.94110282124E+02  0.94110282124E+02  0.00000000000E+00 0. -1.
         21   -1    0    0  501  502 -0.00000000000E+00 -0.00000000000E+00 -0.41507154286E+02  0.41507154286E+02  0.00000000000E+00 0. -1.
         25    1    1    2    0    0  0.00000000000E+00  0.00000000000E+00  0.52603127838E+02  0.13561743641E+03  0.12500000000E+03 0.  0.
<mgrwt>
<rscale>  2 0.12500000E+03</rscale>
<asrwt>0</asrwt>
<pdfrwt beam="1">  1       21 0.14478505E-01 0.12500000E+03</pdfrwt>
<pdfrwt beam="2">  1       21 0.63857161E-02 0.12500000E+03</pdfrwt>
<totfact> 0.72614823E+06</totfact>
</mgrwt>
</event>
<event>
 3    0  0.1678906E+001  0.1250000E+03  0.7546771E-02  0.1235069E+00
         21   -1    0    0  502  501  0.00000000000E+00  0.00000000000E+00  0.27170475453E+02  0.27170475453E+02  0.00000000000E+00 0. -1.
         21   -1    0    0  501  502 -0.00000000000E+00 -0.00000000000E+00 -0.14376818716E+03  0.14376818716E+03  0.00000000000E+00 0. -1.
         25    1    1    2    0    0  0.00000000000E+00  0.00000000000E+00 -0.11659771170E+03  0.17093866261E+03  0.12500000000E+03 0.  0.
<mgrwt>
<rscale>  2 0.12500000E+03</rscale>
<asrwt>0</asrwt>
<pdfrwt beam="1">  1       21 0.41800731E-02 0.12500000E+03</pdfrwt>
<pdfrwt beam="2">  1       21 0.22118183E-01 0.12500000E+03</pdfrwt>
<totfact> 0.68206536E+06</totfact>
</mgrwt>
</event>
<event>
 3    0  0.1684871E+001  0.1250000E+03  0.7546771E-02  0.1235069E+00
         21   -1    0    0  502  501  0.00000000000E+00  0.00000000000E+00  0.13144880748E+03  0.13144880748E+03  0.00000000000E+00 0. -1.
         21   -1    0    0  501  502 -0.00000000000E+00 -0.00000000000E+00 -0.29716891883E+02  0.29716891883E+02  0.00000000000E+00 0. -1.
         25    1    1    2    0    0  0.00000000000E+00  0.00000000000E+00  0.10173191560E+03  0.16116569936E+03  0.12500000000E+03 0.  0.
<mgrwt>
<rscale>  2 0.12500000E+03</rscale>
<asrwt>0</asrwt>
<pdfrwt beam="1">  1       21 0.20222893E-01 0.12500000E+03</pdfrwt>
<pdfrwt beam="2">  1       21 0.45718296E-02 0.12500000E+03</pdfrwt>
<totfact> 0.69377340E+06</totfact>
</mgrwt>
</event>
<event>
 3    0  0.1451212E+001  0.1250000E+03  0.7546771E-02  0.1235069E+00
         21   -1    0    0  502  501  0.00000000000E+00  0.00000000000E+00  0.56233238445E+03  0.56233238445E+03  0.00000000000E+00 0. -1.
         21   -1    0    0  501  502 -0.00000000000E+00 -0.00000000000E+00 -0.69465143890E+01  0.69465143890E+01  0.00000000000E+00 0. -1.
         25    1    1    2    0    0  0.00000000000E+00  0.00000000000E+00  0.55538587006E+03  0.56927889884E+03  0.12500000000E+03 0.  0.
<mgrwt>
<rscale>  2 0.12500000E+03</rscale>
<asrwt>0</asrwt>
<pdfrwt beam="1">  1       21 0.86512639E-01 0.12500000E+03</pdfrwt>
<pdfrwt beam="2">  1       21 0.10686950E-02 0.12500000E+03</pdfrwt>
<totfact> 0.38519872E+06</totfact>
</mgrwt>
</event>
<event>
 3    0  0.1675009E+001  0.1250000E+03  0.7546771E-02  0.1235069E+00
         21   -1    0    0  502  501  0.00000000000E+00  0.00000000000E+00  0.19794672060E+02  0.19794672060E+02  0.00000000000E+00 0.  1.
         21   -1    0    0  501  502 -0.00000000000E+00 -0.00000000000E+00 -0.19733845492E+03  0.19733845492E+03  0.00000000000E+00 0.  1.
         25    1    1    2    0    0  0.00000000000E+00  0.00000000000E+00 -0.17754378286E+03  0.21713312698E+03  0.12500000000E+03 0.  0.
<mgrwt>
<rscale>  2 0.12500000E+03</rscale>
<asrwt>0</asrwt>
<pdfrwt beam="1">  1       21 0.30453341E-02 0.12500000E+03</pdfrwt>
<pdfrwt beam="2">  1       21 0.30359763E-01 0.12500000E+03</pdfrwt>
<totfact> 0.63116775E+06</totfact>
</mgrwt>
</event>
<event>
 3    0  0.1424121E+001  0.1250000E+03  0.7546771E-02  0.1235069E+00
         21   -1    0    0  502  501  0.00000000000E+00  0.00000000000E+00  0.51082950902E+03  0.51082950902E+03  0.00000000000E+00 0. -1.
         21   -1    0    0  501  502 -0.00000000000E+00 -0.00000000000E+00 -0.76468761711E+01  0.76468761711E+01  0.00000000000E+00 0. -1.
         25    1    1    2    0    0  0.00000000000E+00  0.00000000000E+00  0.50318263285E+03  0.51847638519E+03  0.12500000000E+03 0.  0.
<mgrwt>
<rscale>  2 0.12500000E+03</rscale>
<asrwt>0</asrwt>
<pdfrwt beam="1">  1       21 0.78589128E-01 0.12500000E+03</pdfrwt>
<pdfrwt beam="2">  1       21 0.11764429E-02 0.12500000E+03</pdfrwt>
<totfact> 0.41059469E+06</totfact>
</mgrwt>
</event>
<event>
 3    0  0.1592826E+001  0.1250000E+03  0.7546771E-02  0.1235069E+00
         21   -1    0    0  502  501  0.00000000000E+00  0.00000000000E+00  0.13576492847E+02  0.13576492847E+02  0.00000000000E+00 0. -1.
         21   -1    0    0  501  502 -0.00000000000E+00 -0.00000000000E+00 -0.28772158201E+03  0.28772158201E+03  0.00000000000E+00 0. -1.
         25    1    1    2    0    0  0.00000000000E+00  0.00000000000E+00 -0.27414508916E+03  0.30129807486E+03  0.12500000000E+03 0.  0.
<mgrwt>
<rscale>  2 0.12500000E+03</rscale>
<asrwt>0</asrwt>
<pdfrwt beam="1">  1       21 0.20886913E-02 0.12500000E+03</pdfrwt>
<pdfrwt beam="2">  1       21 0.44264857E-01 0.12500000E+03</pdfrwt>
<totfact> 0.55348471E+06</totfact>
</mgrwt>
</event>
<event>
 3    0  0.1368989E+001  0.1250000E+03  0.7546771E-02  0.1235069E+00
         21   -1    0    0  502  501  0.00000000000E+00  0.00000000000E+00  0.20801493280E+04  0.20801493280E+04  0.00000000000E+00 0.  1.
         21   -1    0    0  501  502 -0.00000000000E+00 -0.00000000000E+00 -0.18778699911E+01  0.18778699911E+01  0.00000000000E+00 0.  1.
         25    1    1    2    0    0  0.00000000000E+00  0.00000000000E+00  0.20782714580E+04  0.20820271980E+04  0.12500000000E+03 0.  0.
<mgrwt>
<rscale>  2 0.12500000E+03</rscale>
<asrwt>0</asrwt>
<pdfrwt beam="1">  1       21 0.32002113E+00 0.12500000E+03</pdfrwt>
<pdfrwt beam="2">  1       21 0.28890474E-03 0.12500000E+03</pdfrwt>
<totfact> 0.71757414E+05</totfact>
</mgrwt>
</event>
<event>
 3    0  0.1719607E+001  0.1250000E+03  0.7546771E-02  0.1235069E+00
         21   -1    0    0  502  501  0.00000000000E+00  0.00000000000E+00  0.34498581789E+02  0.34498581789E+02  0.00000000000E+00 0.  1.
         21   -1    0    0  501  502 -0.00000000000E+00 -0.00000000000E+00 -0.11322929226E+03  0.11322929226E+03  0.00000000000E+00 0.  1.
         25    1    1    2    0    0  0.00000000000E+00  0.00000000000E+00 -0.78730710472E+02  0.14772787405E+03  0.12500000000E+03 0.  0.
<mgrwt>
<rscale>  2 0.12500000E+03</rscale>
<asrwt>0</asrwt>
<pdfrwt beam="1">  1       21 0.53074742E-02 0.12500000E+03</pdfrwt>
<pdfrwt beam="2">  1       21 0.17419891E-01 0.12500000E+03</pdfrwt>
<totfact> 0.71045801E+06</totfact>
</mgrwt>
</event>
<event>
 3    0  0.1676901E+001  0.1250000E+03  0.7546771E-02  0.1235069E+00
         21   -1    0    0  502  501  0.00000000000E+00  0.00000000000E+00  0.18655533538E+03  0.18655533538E+03  0.00000000000E+00 0.  1.
         21   -1    0    0  501  502 -0.00000000000E+00 -0.00000000000E+00 -0.20938827571E+02  0.20938827571E+02  0.00000000000E+00 0.  1.
         25    1    1    2    0    0  0.00000000000E+00  0.00000000000E+00  0.16561650781E+03  0.20749416295E+03  0.12500000000E+03 0.  0.
<mgrwt>
<rscale>  2 0.12500000E+03</rscale>
<asrwt>0</asrwt>
<pdfrwt beam="1">  1       21 0.28700820E-01 0.12500000E+03</pdfrwt>
<pdfrwt beam="2">  1       21 0.32213582E-02 0.12500000E+03</pdfrwt>
<totfact> 0.64124147E+06</totfact>
</mgrwt>
</event>
<event>
 3    0  0.1537921E+001  0.1250000E+03  0.7546771E-02  0.1235069E+00
         21   -1    0    0  502  501  0.00000000000E+00  0.00000000000E+00  0.38186165405E+03  0.38186165405E+03  0.00000000000E+00 0. -1.
         21   -1    0    0  501  502 -0.00000000000E+00 -0.00000000000E+00 -0.10229490075E+02  0.10229490075E+02  0.00000000000E+00 0. -1.
         25    1    1    2    0    0  0.00000000000E+00  0.00000000000E+00  0.37163216398E+03  0.39209114413E+03  0.12500000000E+03 0.  0.
<mgrwt>
<rscale>  2 0.12500000E+03</rscale>
<asrwt>0</asrwt>
<pdfrwt beam="1">  1       21 0.58747936E-01 0.12500000E+03</pdfrwt>
<pdfrwt beam="2">  1       21 0.15737680E-02 0.12500000E+03</pdfrwt>
<totfact> 0.48570403E+06</totfact>
</mgrwt>
</event>
<event>
 3    0  0.1736766E+001  0.1250000E+03  0.7546771E-02  0.1235069E+00
         21   -1    0    0  502  501  0.00000000000E+00  0.00000000000E+00  0.65507121446E+02  0.65507121446E+02  0.00000000000E+00 0.  1.
         21   -1    0    0  501  502 -0.00000000000E+00 -0.00000000000E+00 -0.59630921246E+02  0.59630921246E+02  0.00000000000E+00 0.  1.
         25    1    1    2    0    0  0.00000000000E+00  0.00000000000E+00  0.58762001996E+01  0.12513804269E+03  0.12500000000E+03 0.  0.
<mgrwt>
<rscale>  2 0.12500000E+03</rscale>
<asrwt>0</asrwt>
<pdfrwt beam="1">  1       21 0.10078019E-01 0.12500000E+03</pdfrwt>
<pdfrwt beam="2">  1       21 0.91739879E-02 0.12500000E+03</pdfrwt>
<totfact> 0.74024938E+06</totfact>
</mgrwt>
</event>
<event>
 3    0  0.1553969E+001  0.1250000E+03  0.7546771E-02  0.1235069E+00
         21   -1    0    0  502  501  0.00000000000E+00  0.00000000000E+00  0.35781489298E+03  0.35781489298E+03  0.00000000000E+00 0. -1.
         21   -1    0    0  501  502 -0.00000000000E+00 -0.00000000000E+00 -0.10916957557E+02  0.10916957557E+02  0.00000000000E+00 0. -1.
         25    1    1    2    0    0  0.00000000000E+00  0.00000000000E+00  0.34689793543E+03  0.36873185054E+03  0.12500000000E+03 0.  0.
<mgrwt>
<rscale>  2 0.12500000E+03</rscale>
<asrwt>0</asrwt>
<pdfrwt beam="1">  1       21 0.55048436E-01 0.12500000E+03</pdfrwt>
<pdfrwt beam="2">  1       21 0.16795322E-02 0.12500000E+03</pdfrwt>
<totfact> 0.50184095E+06</totfact>
</mgrwt>
</event>
<event>
 3    0  0.1736457E+001  0.1250000E+03  0.7546771E-02  0.1235069E+00
         21   -1    0    0  502  501  0.00000000000E+00  0.00000000000E+00  0.54252296795E+02  0.54252296795E+02  0.00000000000E+00 0.  1.
         21   -1    0    0  501  502 -0.00000000000E+00 -0.00000000000E+00 -0.72001559947E+02  0.72001559947E+02  0.00000000000E+00 0.  1.
         25    1    1    2    0    0  0.00000000000E+00  0.00000000000E+00 -0.17749263152E+02  0.12625385674E+03  0.12500000000E+03 0.  0.
<mgrwt>
<rscale>  2 0.12500000E+03</rscale>
<asrwt>0</asrwt>
<pdfrwt beam="1">  1       21 0.83465072E-02 0.12500000E+03</pdfrwt>
<pdfrwt beam="2">  1       21 0.11077163E-01 0.12500000E+03</pdfrwt>
<totfact> 0.73871112E+06</totfact>
</mgrwt>
</event>
<event>
 3    0  0.1701217E+001  0.1250000E+03  0.7546771E-02  0.1235069E+00
         21   -1    0    0  502  501  0.00000000000E+00  0.00000000000E+00  0.93043340062E+02  0.93043340062E+02  0.00000000000E+00 0. -1.
         21   -1    0    0  501  502 -0.00000000000E+00 -0.00000000000E+00 -0.41983123106E+02  0.41983123106E+02  0.00000000000E+00 0. -1.
         25    1    1    2    0    0  0.00000000000E+00  0.00000000000E+00  0.51060216956E+02  0.13502646317E+03  0.12500000000E+03 0.  0.
<mgrwt>
<rscale>  2 0.12500000E+03</rscale>
<asrwt>0</asrwt>
<pdfrwt beam="1">  1       21 0.14314360E-01 0.12500000E+03</pdfrwt>
<pdfrwt beam="2">  1       21 0.64589420E-02 0.12500000E+03</pdfrwt>
<totfact> 0.72692968E+06</totfact>
</mgrwt>
</event>
<event>
 3    0  0.1586079E+001  0.1250000E+03  0.7546771E-02  0.1235069E+00
         21   -1    0    0  502  501  0.00000000000E+00  0.00000000000E+00  0.13652544734E+02  0.13652544734E+02  0.00000000000E+00 0.  1.
         21   -1    0    0  501  502 -0.00000000000E+00 -0.00000000000E+00 -0.28611882078E+03  0.28611882078E+03  0.00000000000E+00 0.  1.
         25    1    1    2    0    0  0.00000000000E+00  0.00000000000E+00 -0.27246627605E+03  0.29977136551E+03  0.12500000000E+03 0.  0.
<mgrwt>
<rscale>  2 0.12500000E+03</rscale>
<asrwt>0</asrwt>
<pdfrwt beam="1">  1       21 0.21003916E-02 0.12500000E+03</pdfrwt>
<pdfrwt beam="2">  1       21 0.44018278E-01 0.12500000E+03</pdfrwt>
<totfact> 0.55475180E+06</totfact>
</mgrwt>
</event>
<event>
 3    0  0.1688539E+001  0.1250000E+03  0.7546771E-02  0.1235069E+00
         21   -1    0    0  502  501  0.00000000000E+00  0.00000000000E+00  0.32322137531E+02  0.32322137531E+02  0.00000000000E+00 0. -1.
         21   -1    0    0  501  502 -0.00000000000E+00 -0.00000000000E+00 -0.12085370271E+03  0.12085370271E+03  0.00000000000E+00 0. -1.
         25    1    1    2    0    0  0.00000000000E+00  0.00000000000E+00 -0.88531565174E+02  0.15317584024E+03  0.12500000000E+03 0.  0.
<mgrwt>
<rscale>  2 0.12500000E+03</rscale>
<asrwt>0</asrwt>
<pdfrwt beam="1">  1       21 0.49726365E-02 0.12500000E+03</pdfrwt>
<pdfrwt beam="2">  1       21 0.18592878E-01 0.12500000E+03</pdfrwt>
<totfact> 0.70362500E+06</totfact>
</mgrwt>
</event>
<event>
 3    0  0.1656563E+001  0.1250000E+03  0.7546771E-02  0.1235069E+00
         21   -1    0    0  502  501  0.00000000000E+00  0.00000000000E+00  0.21339140211E+03  0.21339140211E+03  0.00000000000E+00 0.  1.
         21   -1    0    0  501  502 -0.00000000000E+00 -0.00000000000E+00 -0.18305564149E+02  0.18305564149E+02  0.00000000000E+00 0.  1.
         25    1    1    2    0    0  0.00000000000E+00  0.00000000000E+00  0.19508583796E+03  0.23169696625E+03  0.12500000000E+03 0.  0.
<mgrwt>
<rscale>  2 0.12500000E+03</rscale>
<asrwt>0</asrwt>
<pdfrwt beam="1">  1       21 0.32829445E-01 0.12500000E+03</pdfrwt>
<pdfrwt beam="2">  1       21 0.28162408E-02 0.12500000E+03</pdfrwt>
<totfact> 0.61645507E+06</totfact>
</mgrwt>
</event>
<event>
 3    0  0.1703651E+001  0.1250000E+03  0.7546771E-02  0.1235069E+00
         21   -1    0    0  502  501  0.00000000000E+00  0.00000000000E+00  0.42847710863E+02  0.42847710863E+02  0.00000000000E+00 0. -1.
         21   -1    0    0  501  502 -0.00000000000E+00 -0.00000000000E+00 -0.91165897112E+02  0.91165897112E+02  0.00000000000E+00 0. -1.
         25    1    1    2    0    0  0.00000000000E+00  0.00000000000E+00 -0.48318186249E+02  0.13401360797E+03  0.12500000000E+03 0.  0.
<mgrwt>
<rscale>  2 0.12500000E+03</rscale>
<asrwt>0</asrwt>
<pdfrwt beam="1">  1       21 0.65919555E-02 0.12500000E+03</pdfrwt>
<pdfrwt beam="2">  1       21 0.14025523E-01 0.12500000E+03</pdfrwt>
<totfact> 0.72827344E+06</totfact>
</mgrwt>
</event>
<event>
 3    0  0.1524782E+001  0.1250000E+03  0.7546771E-02  0.1235069E+00
         21   -1    0    0  502  501  0.00000000000E+00  0.00000000000E+00  0.11239533657E+02  0.11239533657E+02  0.00000000000E+00 0. -1.
         21   -1    0    0  501  502 -0.00000000000E+00 -0.00000000000E+00 -0.34754555831E+03  0.34754555831E+03  0.00000000000E+00 0. -1.
         25    1    1    2    0    0  0.00000000000E+00  0.00000000000E+00 -0.33630602466E+03  0.35878509197E+03  0.12500000000E+03 0.  0.
<mgrwt>
<rscale>  2 0.12500000E+03</rscale>
<asrwt>0</asrwt>
<pdfrwt beam="1">  1       21 0.17291593E-02 0.12500000E+03</pdfrwt>
<pdfrwt beam="2">  1       21 0.53468538E-01 0.12500000E+03</pdfrwt>
<totfact> 0.50896105E+06</totfact>
</mgrwt>
</event>
<event>
 3    0  0.1608191E+001  0.1250000E+03  0.7546771E-02  0.1235069E+00
         21   -1    0    0  502  501  0.00000000000E+00  0.00000000000E+00  0.12638011772E+02  0.12638011772E+02  0.00000000000E+00 0.  1.
         21   -1    0    0  501  502 -0.00000000000E+00 -0.00000000000E+00 -0.30908738420E+03  0.30908738420E+03  0.00000000000E+00 0.  1.
         25    1    1    2    0    0  0.00000000000E+00  0.00000000000E+00 -0.29644937243E+03  0.32172539597E+03  0.12500000000E+03 0.  0.
<mgrwt>
<rscale>  2 0.12500000E+03</rscale>
<asrwt>0</asrwt>
<pdfrwt beam="1">  1       21 0.19443098E-02 0.12500000E+03</pdfrwt>
<pdfrwt beam="2">  1       21 0.47551899E-01 0.12500000E+03</pdfrwt>
<totfact> 0.53696899E+06</totfact>
</mgrwt>
</event>
<event>
 3    0  0.1667428E+001  0.1250000E+03  0.7546771E-02  0.1235069E+00
         21   -1    0    0  502  501  0.00000000000E+00  0.00000000000E+00  0.24873947174E+02  0.24873947174E+02  0.00000000000E+00 0. -1.
         21   -1    0    0  501  502 -0.00000000000E+00 -0.00000000000E+00 -0.15704182262E+03  0.15704182262E+03  0.00000000000E+00 0. -1.
         25    1    1    2    0    0  0.00000000000E+00  0.00000000000E+00 -0.13216787545E+03  0.18191576980E+03  0.12500000000E+03 0.  0.
<mgrwt>
<rscale>  2 0.12500000E+03</rscale>
<asrwt>0</asrwt>
<pdfrwt beam="1">  1       21 0.38267610E-02 0.12500000E+03</pdfrwt>
<pdfrwt beam="2">  1       21 0.24160281E-01 0.12500000E+03</pdfrwt>
<totfact> 0.66932442E+06</totfact>
</mgrwt>
</event>
<event>
 3    0  0.1735681E+001  0.1250000E+03  0.7546771E-02  0.1235069E+00
         21   -1    0    0  502  501  0.00000000000E+00  0.00000000000E+00  0.51073854087E+02  0.51073854087E+02  0.00000000000E+00 0.  1.
         21   -1    0    0  501  502 -0.00000000000E+00 -0.00000000000E+00 -0.76482381638E+02  0.76482381638E+02  0.00000000000E+00 0.  1.
         25    1    1    2    0    0  0.00000000000E+00  0.00000000000E+00 -0.25408527551E+02  0.12755623572E+03  0.12500000000E+03 0.  0.
<mgrwt>
<rscale>  2 0.12500000E+03</rscale>
<asrwt>0</asrwt>
<pdfrwt beam="1">  1       21 0.78575160E-02 0.12500000E+03</pdfrwt>
<pdfrwt beam="2">  1       21 0.11766520E-01 0.12500000E+03</pdfrwt>
<totfact> 0.73693596E+06</totfact>
</mgrwt>
</event>
<event>
 3    0  0.1702775E+001  0.1250000E+03  0.7546771E-02  0.1235069E+00
         21   -1    0    0  502  501  0.00000000000E+00  0.00000000000E+00  0.27140077684E+02  0.27140077684E+02  0.00000000000E+00 0.  1.
         21   -1    0    0  501  502 -0.00000000000E+00 -0.00000000000E+00 -0.14392921220E+03  0.14392921220E+03  0.00000000000E+00 0.  1.
         25    1    1    2    0    0  0.00000000000E+00  0.00000000000E+00 -0.11678913451E+03  0.17106928988E+03  0.12500000000E+03 0.  0.
<mgrwt>
<rscale>  2 0.12500000E+03</rscale>
<asrwt>0</asrwt>
<pdfrwt beam="1">  1       21 0.41753966E-02 0.12500000E+03</pdfrwt>
<pdfrwt beam="2">  1       21 0.22142956E-01 0.12500000E+03</pdfrwt>
<totfact> 0.68191103E+06</totfact>
</mgrwt>
</event>
<event>
 3    0  0.1735129E+001  0.1250000E+03  0.7546771E-02  0.1235069E+00
         21   -1    0    0  502  501  0.00000000000E+00  0.00000000000E+00  0.73370332759E+02  0.73370332759E+02  0.00000000000E+00 0.  1.
         21   -1    0    0  501  502 -0.00000000000E+00 -0.00000000000E+00 -0.53240183779E+02  0.53240183779E+02  0.00000000000E+00 0.  1.
         25    1    1    2    0    0  0.00000000000E+00  0.00000000000E+00  0.20130148981E+02  0.12661051654E+03  0.12500000000E+03 0.  0.
<mgrwt>
<rscale>  2 0.12500000E+03</rscale>
<asrwt>0</asrwt>
<pdfrwt beam="1">  1       21 0.11287743E-01 0.12500000E+03</pdfrwt>
<pdfrwt beam="2">  1       21 0.81907975E-02 0.12500000E+03</pdfrwt>
<totfact> 0.73822259E+06</totfact>
</mgrwt>
</event>
<event>
 3    0  0.1574528E+001  0.1250000E+03  0.7546771E-02  0.1235069E+00
         21   -1    0    0  502  501  0.00000000000E+00  0.00000000000E+00  0.11671179803E+02  0.11671179803E+02  0.00000000000E+00 0.  1.
         21   -1    0    0  501  502 -0.00000000000E+00 -0.00000000000E+00 -0.33469195624E+03  0.33469195624E+03  0.00000000000E+00 0.  1.
         25    1    1    2    0    0  0.00000000000E+00  0.00000000000E+00 -0.32302077644E+03  0.34636313604E+03  0.12500000000E+03 0.  0.
<mgrwt>
<rscale>  2 0.12500000E+03</rscale>
<asrwt>0</asrwt>
<pdfrwt beam="1">  1       21 0.17955660E-02 0.12500000E+03</pdfrwt>
<pdfrwt beam="2">  1       21 0.51491075E-01 0.12500000E+03</pdfrwt>
<totfact> 0.51808148E+06</totfact>
</mgrwt>
</event>
<event>
 3    0  0.1368989E+001  0.1250000E+03  0.7546771E-02  0.1235069E+00
         21   -1    0    0  502  501  0.00000000000E+00  0.00000000000E+00  0.20286980858E+01  0.20286980858E+01  0.00000000000E+00 0. -1.
         21   -1    0    0  501  502 -0.00000000000E+00 -0.00000000000E+00 -0.19254959756E+04  0.19254959756E+04  0.00000000000E+00 0. -1.
         25    1    1    2    0    0  0.00000000000E+00  0.00000000000E+00 -0.19234672775E+04  0.19275246737E+04  0.12500000000E+03 0.  0.
<mgrwt>
<rscale>  2 0.12500000E+03</rscale>
<asrwt>0</asrwt>
<pdfrwt beam="1">  1       21 0.31210519E-03 0.12500000E+03</pdfrwt>
<pdfrwt beam="2">  1       21 0.29623225E+00 0.12500000E+03</pdfrwt>
<totfact> 0.86764104E+05</totfact>
</mgrwt>
</event>
<event>
 3    0  0.1701591E+001  0.1250000E+03  0.7546771E-02  0.1235069E+00
         21   -1    0    0  502  501  0.00000000000E+00  0.00000000000E+00  0.44193022182E+02  0.44193022182E+02  0.00000000000E+00 0. -1.
         21   -1    0    0  501  502 -0.00000000000E+00 -0.00000000000E+00 -0.88390650993E+02  0.88390650993E+02  0.00000000000E+00 0. -1.
         25    1    1    2    0    0  0.00000000000E+00  0.00000000000E+00 -0.44197628812E+02  0.13258367318E+03  0.12500000000E+03 0.  0.
<mgrwt>
<rscale>  2 0.12500000E+03</rscale>
<asrwt>0</asrwt>
<pdfrwt beam="1">  1       21 0.67989265E-02 0.12500000E+03</pdfrwt>
<pdfrwt beam="2">  1       21 0.13598562E-01 0.12500000E+03</pdfrwt>
<totfact> 0.73018043E+06</totfact>
</mgrwt>
</event>
<event>
 3    0  0.1368989E+001  0.1250000E+03  0.7546771E-02  0.1235069E+00
         21   -1    0    0  502  501  0.00000000000E+00  0.00000000000E+00  0.14946101697E+04  0.14946101697E+04  0.00000000000E+00 0.  1.
         21   -1    0    0  501  502 -0.00000000000E+00 -0.00000000000E+00 -0.26135577552E+01  0.26135577552E+01  0.00000000000E+00 0.  1.
         25    1    1    2    0    0  0.00000000000E+00  0.00000000000E+00  0.14919966119E+04  0.14972237274E+04  0.12500000000E+03 0.  0.
<mgrwt>
<rscale>  2 0.12500000E+03</rscale>
<asrwt>0</asrwt>
<pdfrwt beam="1">  1       21 0.22993934E+00 0.12500000E+03</pdfrwt>
<pdfrwt beam="2">  1       21 0.40208700E-03 0.12500000E+03</pdfrwt>
<totfact> 0.14034409E+06</totfact>
</mgrwt>
</event>
<event>
 3    0  0.1376442E+001  0.1250000E+03  0.7546771E-02  0.1235069E+00
         21   -1    0    0  502  501  0.00000000000E+00  0.00000000000E+00  0.64513506614E+03  0.64513506614E+03  0.00000000000E+00 0. -1.
         21   -1    0    0  501  502 -0.00000000000E+00 -0.00000000000E+00 -0.60549336178E+01  0.60549336178E+01  0.00000000000E+00 0. -1.
         25    1    1    2    0    0  0.00000000000E+00  0.00000000000E+00  0.63908013252E+03  0.65118999976E+03  0.12500000000E+03 0.  0.
<mgrwt>
<rscale>  2 0.12500000E+03</rscale>
<asrwt>0</asrwt>
<pdfrwt beam="1">  1       21 0.99251494E-01 0.12500000E+03</pdfrwt>
<pdfrwt beam="2">  1       21 0.93152876E-03 0.12500000E+03</pdfrwt>
<totfact> 0.34875104E+06</totfact>
</mgrwt>
</event>
<event>
 3    0  0.1635155E+001  0.1250000E+03  0.7546771E-02  0.1235069E+00
         21   -1    0    0  502  501  0.00000000000E+00  0.00000000000E+00  0.16911193362E+02  0.16911193362E+02  0.00000000000E+00 0.  1.
         21   -1    0    0  501  502 -0.00000000000E+00 -0.00000000000E+00 -0.23098606446E+03  0.23098606446E+03  0.00000000000E+00 0.  1.
         25    1    1    2    0    0  0.00000000000E+00  0.00000000000E+00 -0.21407487109E+03  0.24789725782E+03  0.12500000000E+03 0.  0.
<mgrwt>
<rscale>  2 0.12500000E+03</rscale>
<asrwt>0</asrwt>
<pdfrwt beam="1">  1       21 0.26017221E-02 0.12500000E+03</pdfrwt>
<pdfrwt beam="2">  1       21 0.35536317E-01 0.12500000E+03</pdfrwt>
<totfact> 0.60076726E+06</totfact>
</mgrwt>
</event>
<event>
 3    0  0.1702642E+001  0.1250000E+03  0.7546771E-02  0.1235069E+00
         21   -1    0    0  502  501  0.00000000000E+00  0.00000000000E+00  0.30380948854E+02  0.30380948854E+02  0.00000000000E+00 0.  1.
         21   -1    0    0  501  502 -0.00000000000E+00 -0.00000000000E+00 -0.12857564189E+03  0.12857564189E+03  0.00000000000E+00 0.  1.
         25    1    1    2    0    0  0.00000000000E+00  0.00000000000E+00 -0.98194693032E+02  0.15895659074E+03  0.12500000000E+03 0.  0.
<mgrwt>
<rscale>  2 0.12500000E+03</rscale>
<asrwt>0</asrwt>
<pdfrwt beam="1">  1       21 0.46739920E-02 0.12500000E+03</pdfrwt>
<pdfrwt beam="2">  1       21 0.19780868E-01 0.12500000E+03</pdfrwt>
<totfact> 0.69647214E+06</totfact>
</mgrwt>
</event>
<event>
 3    0  0.1368989E+001  0.1250000E+03  0.7546771E-02  0.1235069E+00
         21   -1    0    0  502  501  0.00000000000E+00  0.00000000000E+00  0.41805922832E+01  0.41805922832E+01  0.00000000000E+00 0. -1.
         21   -1    0    0  501  502 -0.00000000000E+00 -0.00000000000E+00 -0.93437717324E+03  0.93437717324E+03  0.00000000000E+00 0. -1.
         25    1    1    2    0    0  0.00000000000E+00  0.00000000000E+00 -0.93019658095E+03  0.93855776552E+03  0.12500000000E+03 0.  0.
<mgrwt>
<rscale>  2 0.12500000E+03</rscale>
<asrwt>0</asrwt>
<pdfrwt beam="1">  1       21 0.64316793E-03 0.12500000E+03</pdfrwt>
<pdfrwt beam="2">  1       21 0.14375036E+00 0.12500000E+03</pdfrwt>
<totfact> 0.25220277E+06</totfact>
</mgrwt>
</event>
<event>
 3    0  0.1555935E+001  0.1250000E+03  0.7546771E-02  0.1235069E+00
         21   -1    0    0  502  501  0.00000000000E+00  0.00000000000E+00  0.11733396316E+02  0.11733396316E+02  0.00000000000E+00 0. -1.
         21   -1    0    0  501  502 -0.00000000000E+00 -0.00000000000E+00 -0.33291724703E+03  0.33291724703E+03  0.00000000000E+00 0. -1.
         25    1    1    2    0    0  0.00000000000E+00  0.00000000000E+00 -0.32118385071E+03  0.34465064335E+03  0.12500000000E+03 0.  0.
<mgrwt>
<rscale>  2 0.12500000E+03</rscale>
<asrwt>0</asrwt>
<pdfrwt beam="1">  1       21 0.18051380E-02 0.12500000E+03</pdfrwt>
<pdfrwt beam="2">  1       21 0.51218035E-01 0.12500000E+03</pdfrwt>
<totfact> 0.51935940E+06</totfact>
</mgrwt>
</event>
<event>
 3    0  0.1708575E+001  0.1250000E+03  0.7546771E-02  0.1235069E+00
         21   -1    0    0  502  501  0.00000000000E+00  0.00000000000E+00  0.14093242999E+03  0.14093242999E+03  0.00000000000E+00 0.  1.
         21   -1    0    0  501  502 -0.00000000000E+00 -0.00000000000E+00 -0.27717183336E+02  0.27717183336E+02  0.00000000000E+00 0.  1.
         25    1    1    2    0    0  0.00000000000E+00  0.00000000000E+00  0.11321524665E+03  0.16864961332E+03  0.12500000000E+03 0.  0.
<mgrwt>
<rscale>  2 0.12500000E+03</rscale>
<asrwt>0</asrwt>
<pdfrwt beam="1">  1       21 0.21681912E-01 0.12500000E+03</pdfrwt>
<pdfrwt beam="2">  1       21 0.42641821E-02 0.12500000E+03</pdfrwt>
<totfact> 0.68477748E+06</totfact>
</mgrwt>
</event>
<event>
 3    0  0.1726661E+001  0.1250000E+03  0.7546771E-02  0.1235069E+00
         21   -1    0    0  502  501  0.00000000000E+00  0.00000000000E+00  0.92538056365E+02  0.92538056365E+02  0.00000000000E+00 0.  1.
         21   -1    0    0  501  502 -0.00000000000E+00 -0.00000000000E+00 -0.42212362713E+02  0.42212362713E+02  0.00000000000E+00 0.  1.
         25    1    1    2    0    0  0.00000000000E+00  0.00000000000E+00  0.50325693652E+02  0.13475041908E+03  0.12500000000E+03 0.  0.
<mgrwt>
<rscale>  2 0.12500000E+03</rscale>
<asrwt>0</asrwt>
<pdfrwt beam="1">  1       21 0.14236624E-01 0.12500000E+03</pdfrwt>
<pdfrwt beam="2">  1       21 0.64942097E-02 0.12500000E+03</pdfrwt>
<totfact> 0.72729535E+06</totfact>
</mgrwt>
</event>
<event>
 3    0  0.1734144E+001  0.1250000E+03  0.7546771E-02  0.1235069E+00
         21   -1    0    0  502  501  0.00000000000E+00  0.00000000000E+00  0.52336748595E+02  0.52336748595E+02  0.00000000000E+00 0.  1.
         21   -1    0    0  501  502 -0.00000000000E+00 -0.00000000000E+00 -0.74636848961E+02  0.74636848961E+02  0.00000000000E+00 0.  1.
         25    1    1    2    0    0  0.00000000000E+00  0.00000000000E+00 -0.22300100365E+02  0.12697359756E+03  0.12500000000E+03 0.  0.
<mgrwt>
<rscale>  2 0.12500000E+03</rscale>
<asrwt>0</asrwt>
<pdfrwt beam="1">  1       21 0.80518075E-02 0.12500000E+03</pdfrwt>
<pdfrwt beam="2">  1       21 0.11482592E-01 0.12500000E+03</pdfrwt>
<totfact> 0.73772731E+06</totfact>
</mgrwt>
</event>
<event>
 3    0  0.1706765E+001  0.1250000E+03  0.7546771E-02  0.1235069E+00
         21   -1    0    0  502  501  0.00000000000E+00  0.00000000000E+00  0.47263165519E+02  0.47263165519E+02  0.00000000000E+00 0. -1.
         21   -1    0    0  501  502 -0.00000000000E+00 -0.00000000000E+00 -0.82648928760E+02  0.82648928760E+02  0.00000000000E+00 0. -1.
         25    1    1    2    0    0  0.00000000000E+00  0.00000000000E+00 -0.35385763241E+02  0.12991209428E+03  0.12500000000E+03 0.  0.
<mgrwt>
<rscale>  2 0.12500000E+03</rscale>
<asrwt>0</asrwt>
<pdfrwt beam="1">  1       21 0.72712562E-02 0.12500000E+03</pdfrwt>
<pdfrwt beam="2">  1       21 0.12715220E-01 0.12500000E+03</pdfrwt>
<totfact> 0.73376666E+06</totfact>
</mgrwt>
</event>
