<event>
 3    0  0.1633617E+001  0.1250000E+03  0.7546771E-02  0.1235069E+00
         21   -1    0    0  502  501  0.00000000000E+00  0.00000000000E+00  0.22417677717E+03  0.22417677717E+03  0.00000000000E+00 0.  1.
         21   -1    0    0  501  502 -0.00000000000E+00 -0.00000000000E+00 -0.17424864651E+02  0.17424864651E+02  0.00000000000E+00 0.  1.
         25    1    1    2    0    0  0.00000000000E+00  0.00000000000E+00  0.20675191252E+03  0.24160164182E+03  0.12500000000E+03 0.  0.
<mgrwt>
<rscale>  2 0.12500000E+03</rscale>
<asrwt>0</asrwt>
<pdfrwt beam="1">  1       21 0.34488733E-01 0.12500000E+03</pdfrwt>
<pdfrwt beam="2">  1       21 0.26807486E-02 0.12500000E+03</pdfrwt>
<totfact> 0.60678020E+06</totfact>
</mgrwt>
</event>
<event>
 3    0  0.1368989E+001  0.1250000E+03  0.7546771E-02  0.1235069E+00
         21   -1    0    0  502  501  0.00000000000E+00  0.00000000000E+00  0.53202243955E+01  0.53202243955E+01  0.00000000000E+00 0.  1.
         21   -1    0    0  501  502 -0.00000000000E+00 -0.00000000000E+00 -0.73422654941E+03  0.73422654941E+03  0.00000000000E+00 0.  1.
         25    1    1    2    0    0  0.00000000000E+00  0.00000000000E+00 -0.72890632501E+03  0.73954677380E+03  0.12500000000E+03 0.  0.
<mgrwt>
<rscale>  2 0.12500000E+03</rscale>
<asrwt>0</asrwt>
<pdfrwt beam="1">  1       21 0.81849584E-03 0.12500000E+03</pdfrwt>
<pdfrwt beam="2">  1       21 0.11295796E+00 0.12500000E+03</pdfrwt>
<totfact> 0.31439969E+06</totfact>
</mgrwt>
</event>
<event>
 3    0  0.1600125E+001  0.1250000E+03  0.7546771E-02  0.1235069E+00
         21   -1    0    0  502  501  0.00000000000E+00  0.00000000000E+00  0.25055985311E+03  0.25055985311E+03  0.00000000000E+00 0.  1.
         21   -1    0    0  501  502 -0.00000000000E+00 -0.00000000000E+00 -0.15590087364E+02  0.15590087364E+02  0.00000000000E+00 0.  1.
         25    1    1    2    0    0  0.00000000000E+00  0.00000000000E+00  0.23496976574E+03  0.26614994047E+03  0.12500000000E+03 0.  0.
<mgrwt>
<rscale>  2 0.12500000E+03</rscale>
<asrwt>0</asrwt>
<pdfrwt beam="1">  1       21 0.38547667E-01 0.12500000E+03</pdfrwt>
<pdfrwt beam="2">  1       21 0.23984752E-02 0.12500000E+03</pdfrwt>
<totfact> 0.58390144E+06</totfact>
</mgrwt>
</event>
<event>
 3    0  0.1593886E+001  0.1250000E+03  0.7546771E-02  0.1235069E+00
         21   -1    0    0  502  501  0.00000000000E+00  0.00000000000E+00  0.25623399280E+03  0.25623399280E+03  0.00000000000E+00 0. -1.
         21   -1    0    0  501  502 -0.00000000000E+00 -0.00000000000E+00 -0.15244854741E+02  0.15244854741E+02  0.00000000000E+00 0. -1.
         25    1    1    2    0    0  0.00000000000E+00  0.00000000000E+00  0.24098913806E+03  0.27147884755E+03  0.12500000000E+03 0.  0.
<mgrwt>
<rscale>  2 0.12500000E+03</rscale>
<asrwt>0</asrwt>
<pdfrwt beam="1">  1       21 0.39420611E-01 0.12500000E+03</pdfrwt>
<pdfrwt beam="2">  1       21 0.23453625E-02 0.12500000E+03</pdfrwt>
<totfact> 0.57912878E+06</totfact>
</mgrwt>
</event>
<event>
 3    0  0.1656146E+001  0.1250000E+03  0.7546771E-02  0.1235069E+00
         21   -1    0    0  502  501  0.00000000000E+00  0.00000000000E+00  0.23666306304E+02  0.23666306304E+02  0.00000000000E+00 0. -1.
         21   -1    0    0  501  502 -0.00000000000E+00 -0.00000000000E+00 -0.16505533013E+03  0.16505533013E+03  0.00000000000E+00 0. -1.
         25    1    1    2    0    0  0.00000000000E+00  0.00000000000E+00 -0.14138902383E+03  0.18872163644E+03  0.12500000000E+03 0.  0.
<mgrwt>
<rscale>  2 0.12500000E+03</rscale>
<asrwt>0</asrwt>
<pdfrwt beam="1">  1       21 0.36409701E-02 0.12500000E+03</pdfrwt>
<pdfrwt beam="2">  1       21 0.25393128E-01 0.12500000E+03</pdfrwt>
<totfact> 0.66164824E+06</totfact>
</mgrwt>
</event>
<event>
 3    0  0.1649898E+001  0.1250000E+03  0.7546771E-02  0.1235069E+00
         21   -1    0    0  502  501  0.00000000000E+00  0.00000000000E+00  0.19069882234E+03  0.19069882234E+03  0.00000000000E+00 0.  1.
         21   -1    0    0  501  502 -0.00000000000E+00 -0.00000000000E+00 -0.20483870598E+02  0.20483870598E+02  0.00000000000E+00 0.  1.
         25    1    1    2    0    0  0.00000000000E+00  0.00000000000E+00  0.17021495174E+03  0.21118269293E+03  0.12500000000E+03 0.  0.
<mgrwt>
<rscale>  2 0.12500000E+03</rscale>
<asrwt>0</asrwt>
<pdfrwt beam="1">  1       21 0.29338279E-01 0.12500000E+03</pdfrwt>
<pdfrwt beam="2">  1       21 0.31513648E-02 0.12500000E+03</pdfrwt>
<totfact> 0.63735318E+06</totfact>
</mgrwt>
</event>
<event>
 3    0  0.1368989E+001  0.1250000E+03  0.7546771E-02  0.1235069E+00
         21   -1    0    0  502  501  0.00000000000E+00  0.00000000000E+00  0.38860215175E+01  0.38860215175E+01  0.00000000000E+00 0.  1.
         21   -1    0    0  501  502 -0.00000000000E+00 -0.00000000000E+00 -0.10052054479E+04  0.10052054479E+04  0.00000000000E+00 0.  1.
         25    1    1    2    0    0  0.00000000000E+00  0.00000000000E+00 -0.10013194264E+04  0.10090914694E+04  0.12500000000E+03 0.  0.
<mgrwt>
<rscale>  2 0.12500000E+03</rscale>
<asrwt>0</asrwt>
<pdfrwt beam="1">  1       21 0.59785059E-03 0.12500000E+03</pdfrwt>
<pdfrwt beam="2">  1       21 0.15464670E+00 0.12500000E+03</pdfrwt>
<totfact> 0.23393022E+06</totfact>
</mgrwt>
</event>
<event>
 3    0  0.1368989E+001  0.1250000E+03  0.7546771E-02  0.1235069E+00
         21   -1    0    0  502  501  0.00000000000E+00  0.00000000000E+00  0.10760422403E+04  0.10760422403E+04  0.00000000000E+00 0.  1.
         21   -1    0    0  501  502 -0.00000000000E+00 -0.00000000000E+00 -0.36302013560E+01  0.36302013560E+01  0.00000000000E+00 0.  1.
         25    1    1    2    0    0  0.00000000000E+00  0.00000000000E+00  0.10724120390E+04  0.10796724417E+04  0.12500000000E+03 0.  0.
<mgrwt>
<rscale>  2 0.12500000E+03</rscale>
<asrwt>0</asrwt>
<pdfrwt beam="1">  1       21 0.16554471E+00 0.12500000E+03</pdfrwt>
<pdfrwt beam="2">  1       21 0.55849338E-03 0.12500000E+03</pdfrwt>
<totfact> 0.21709282E+06</totfact>
</mgrwt>
</event>
<event>
 3    0  0.1624759E+001  0.1250000E+03  0.7546771E-02  0.1235069E+00
         21   -1    0    0  502  501  0.00000000000E+00  0.00000000000E+00  0.20401696042E+02  0.20401696042E+02  0.00000000000E+00 0. -1.
         21   -1    0    0  501  502 -0.00000000000E+00 -0.00000000000E+00 -0.19146692471E+03  0.19146692471E+03  0.00000000000E+00 0. -1.
         25    1    1    2    0    0  0.00000000000E+00  0.00000000000E+00 -0.17106522867E+03  0.21186862075E+03  0.12500000000E+03 0.  0.
<mgrwt>
<rscale>  2 0.12500000E+03</rscale>
<asrwt>0</asrwt>
<pdfrwt beam="1">  1       21 0.31387226E-02 0.12500000E+03</pdfrwt>
<pdfrwt beam="2">  1       21 0.29456449E-01 0.12500000E+03</pdfrwt>
<totfact> 0.63663471E+06</totfact>
</mgrwt>
</event>
<event>
 3    0  0.1368989E+001  0.1250000E+03  0.7546771E-02  0.1235069E+00
         21   -1    0    0  502  501  0.00000000000E+00  0.00000000000E+00  0.77620384146E+03  0.77620384146E+03  0.00000000000E+00 0. -1.
         21   -1    0    0  501  502 -0.00000000000E+00 -0.00000000000E+00 -0.50325053695E+01  0.50325053695E+01  0.00000000000E+00 0. -1.
         25    1    1    2    0    0  0.00000000000E+00  0.00000000000E+00  0.77117133609E+03  0.78123634683E+03  0.12500000000E+03 0.  0.
<mgrwt>
<rscale>  2 0.12500000E+03</rscale>
<asrwt>0</asrwt>
<pdfrwt beam="1">  1       21 0.11941588E+00 0.12500000E+03</pdfrwt>
<pdfrwt beam="2">  1       21 0.77423221E-03 0.12500000E+03</pdfrwt>
<totfact> 0.29994012E+06</totfact>
</mgrwt>
</event>
<event>
 3    0  0.1574011E+001  0.1250000E+03  0.7546771E-02  0.1235069E+00
         21   -1    0    0  502  501  0.00000000000E+00  0.00000000000E+00  0.13519448195E+02  0.13519448195E+02  0.00000000000E+00 0. -1.
         21   -1    0    0  501  502 -0.00000000000E+00 -0.00000000000E+00 -0.28893560918E+03  0.28893560918E+03  0.00000000000E+00 0. -1.
         25    1    1    2    0    0  0.00000000000E+00  0.00000000000E+00 -0.27541616099E+03  0.30245505738E+03  0.12500000000E+03 0.  0.
<mgrwt>
<rscale>  2 0.12500000E+03</rscale>
<asrwt>0</asrwt>
<pdfrwt beam="1">  1       21 0.20799152E-02 0.12500000E+03</pdfrwt>
<pdfrwt beam="2">  1       21 0.44451629E-01 0.12500000E+03</pdfrwt>
<totfact> 0.55252765E+06</totfact>
</mgrwt>
</event>
<event>
 3    0  0.1597595E+001  0.1250000E+03  0.7546771E-02  0.1235069E+00
         21   -1    0    0  502  501  0.00000000000E+00  0.00000000000E+00  0.16132311062E+02  0.16132311062E+02  0.00000000000E+00 0. -1.
         21   -1    0    0  501  502 -0.00000000000E+00 -0.00000000000E+00 -0.24213827672E+03  0.24213827672E+03  0.00000000000E+00 0. -1.
         25    1    1    2    0    0  0.00000000000E+00  0.00000000000E+00 -0.22600596566E+03  0.25827058778E+03  0.12500000000E+03 0.  0.
<mgrwt>
<rscale>  2 0.12500000E+03</rscale>
<asrwt>0</asrwt>
<pdfrwt beam="1">  1       21 0.24818941E-02 0.12500000E+03</pdfrwt>
<pdfrwt beam="2">  1       21 0.37252041E-01 0.12500000E+03</pdfrwt>
<totfact> 0.59108147E+06</totfact>
</mgrwt>
</event>
<event>
 3    0  0.1677245E+001  0.1250000E+03  0.7546771E-02  0.1235069E+00
         21   -1    0    0  502  501  0.00000000000E+00  0.00000000000E+00  0.25991402416E+02  0.25991402416E+02  0.00000000000E+00 0.  1.
         21   -1    0    0  501  502 -0.00000000000E+00 -0.00000000000E+00 -0.15029008198E+03  0.15029008198E+03  0.00000000000E+00 0.  1.
         25    1    1    2    0    0  0.00000000000E+00  0.00000000000E+00 -0.12429867957E+03  0.17628148440E+03  0.12500000000E+03 0.  0.
<mgrwt>
<rscale>  2 0.12500000E+03</rscale>
<asrwt>0</asrwt>
<pdfrwt beam="1">  1       21 0.39986773E-02 0.12500000E+03</pdfrwt>
<pdfrwt beam="2">  1       21 0.23121551E-01 0.12500000E+03</pdfrwt>
<totfact> 0.67580694E+06</totfact>
</mgrwt>
</event>
<event>
 3    0  0.1368989E+001  0.1250000E+03  0.7546771E-02  0.1235069E+00
         21   -1    0    0  502  501  0.00000000000E+00  0.00000000000E+00  0.51647594609E+01  0.51647594609E+01  0.00000000000E+00 0.  1.
         21   -1    0    0  501  502 -0.00000000000E+00 -0.00000000000E+00 -0.75632757529E+03  0.75632757529E+03  0.00000000000E+00 0.  1.
         25    1    1    2    0    0  0.00000000000E+00  0.00000000000E+00 -0.75116281583E+03  0.76149233475E+03  0.12500000000E+03 0.  0.
<mgrwt>
<rscale>  2 0.12500000E+03</rscale>
<asrwt>0</asrwt>
<pdfrwt beam="1">  1       21 0.79457821E-03 0.12500000E+03</pdfrwt>
<pdfrwt beam="2">  1       21 0.11635811E+00 0.12500000E+03</pdfrwt>
<totfact> 0.30668718E+06</totfact>
</mgrwt>
</event>
<event>
 3    0  0.1368989E+001  0.1250000E+03  0.7546771E-02  0.1235069E+00
         21   -1    0    0  502  501  0.00000000000E+00  0.00000000000E+00  0.44237828743E+01  0.44237828743E+01  0.00000000000E+00 0.  1.
         21   -1    0    0  501  502 -0.00000000000E+00 -0.00000000000E+00 -0.88301123971E+03  0.88301123971E+03  0.00000000000E+00 0.  1.
         25    1    1    2    0    0  0.00000000000E+00  0.00000000000E+00 -0.87858745684E+03  0.88743502258E+03  0.12500000000E+03 0.  0.
<mgrwt>
<rscale>  2 0.12500000E+03</rscale>
<asrwt>0</asrwt>
<pdfrwt beam="1">  1       21 0.68058127E-03 0.12500000E+03</pdfrwt>
<pdfrwt beam="2">  1       21 0.13584803E+00 0.12500000E+03</pdfrwt>
<totfact> 0.26661046E+06</totfact>
</mgrwt>
</event>
<event>
 3    0  0.1634665E+001  0.1250000E+03  0.7546771E-02  0.1235069E+00
         21   -1    0    0  502  501  0.00000000000E+00  0.00000000000E+00  0.18868532372E+02  0.18868532372E+02  0.00000000000E+00 0.  1.
         21   -1    0    0  501  502 -0.00000000000E+00 -0.00000000000E+00 -0.20702458055E+03  0.20702458055E+03  0.00000000000E+00 0.  1.
         25    1    1    2    0    0  0.00000000000E+00  0.00000000000E+00 -0.18815604818E+03  0.22589311292E+03  0.12500000000E+03 0.  0.
<mgrwt>
<rscale>  2 0.12500000E+03</rscale>
<asrwt>0</asrwt>
<pdfrwt beam="1">  1       21 0.29028512E-02 0.12500000E+03</pdfrwt>
<pdfrwt beam="2">  1       21 0.31849935E-01 0.12500000E+03</pdfrwt>
<totfact> 0.62225075E+06</totfact>
</mgrwt>
</event>
<event>
 3    0  0.1368989E+001  0.1250000E+03  0.7546771E-02  0.1235069E+00
         21   -1    0    0  502  501  0.00000000000E+00  0.00000000000E+00  0.66741640672E+03  0.66741640672E+03  0.00000000000E+00 0. -1.
         21   -1    0    0  501  502 -0.00000000000E+00 -0.00000000000E+00 -0.58527928901E+01  0.58527928901E+01  0.00000000000E+00 0. -1.
         25    1    1    2    0    0  0.00000000000E+00  0.00000000000E+00  0.66156361383E+03  0.67326919961E+03  0.12500000000E+03 0.  0.
<mgrwt>
<rscale>  2 0.12500000E+03</rscale>
<asrwt>0</asrwt>
<pdfrwt beam="1">  1       21 0.10267939E+00 0.12500000E+03</pdfrwt>
<pdfrwt beam="2">  1       21 0.90043020E-03 0.12500000E+03</pdfrwt>
<totfact> 0.33966408E+06</totfact>
</mgrwt>
</event>
<event>
 3    0  0.1368989E+001  0.1250000E+03  0.7546771E-02  0.1235069E+00
         21   -1    0    0  502  501  0.00000000000E+00  0.00000000000E+00  0.11599139110E+04  0.11599139110E+04  0.00000000000E+00 0.  1.
         21   -1    0    0  501  502 -0.00000000000E+00 -0.00000000000E+00 -0.33677068299E+01  0.33677068299E+01  0.00000000000E+00 0.  1.
         25    1    1    2    0    0  0.00000000000E+00  0.00000000000E+00  0.11565462041E+04  0.11632816178E+04  0.12500000000E+03 0.  0.
<mgrwt>
<rscale>  2 0.12500000E+03</rscale>
<asrwt>0</asrwt>
<pdfrwt beam="1">  1       21 0.17844797E+00 0.12500000E+03</pdfrwt>
<pdfrwt beam="2">  1       21 0.51810967E-03 0.12500000E+03</pdfrwt>
<totfact> 0.19890880E+06</totfact>
</mgrwt>
</event>
<event>
 3    0  0.1562797E+001  0.1250000E+03  0.7546771E-02  0.1235069E+00
         21   -1    0    0  502  501  0.00000000000E+00  0.00000000000E+00  0.27905716612E+03  0.27905716612E+03  0.00000000000E+00 0. -1.
         21   -1    0    0  501  502 -0.00000000000E+00 -0.00000000000E+00 -0.13998027911E+02  0.13998027911E+02  0.00000000000E+00 0. -1.
         25    1    1    2    0    0  0.00000000000E+00  0.00000000000E+00  0.26505913820E+03  0.29305519403E+03  0.12500000000E+03 0.  0.
<mgrwt>
<rscale>  2 0.12500000E+03</rscale>
<asrwt>0</asrwt>
<pdfrwt beam="1">  1       21 0.42931867E-01 0.12500000E+03</pdfrwt>
<pdfrwt beam="2">  1       21 0.21535430E-02 0.12500000E+03</pdfrwt>
<totfact> 0.56038300E+06</totfact>
</mgrwt>
</event>
<event>
 3    0  0.1377802E+001  0.1250000E+03  0.7546771E-02  0.1235069E+00
         21   -1    0    0  502  501  0.00000000000E+00  0.00000000000E+00  0.65577561038E+01  0.65577561038E+01  0.00000000000E+00 0. -1.
         21   -1    0    0  501  502 -0.00000000000E+00 -0.00000000000E+00 -0.59566869188E+03  0.59566869188E+03  0.00000000000E+00 0. -1.
         25    1    1    2    0    0  0.00000000000E+00  0.00000000000E+00 -0.58911093578E+03  0.60222644798E+03  0.12500000000E+03 0.  0.
<mgrwt>
<rscale>  2 0.12500000E+03</rscale>
<asrwt>0</asrwt>
<pdfrwt beam="1">  1       21 0.10088853E-02 0.12500000E+03</pdfrwt>
<pdfrwt beam="2">  1       21 0.91641364E-01 0.12500000E+03</pdfrwt>
<totfact> 0.36992128E+06</totfact>
</mgrwt>
</event>
<event>
 3    0  0.1684568E+001  0.1250000E+03  0.7546771E-02  0.1235069E+00
         21   -1    0    0  502  501  0.00000000000E+00  0.00000000000E+00  0.10012804331E+03  0.10012804331E+03  0.00000000000E+00 0. -1.
         21   -1    0    0  501  502 -0.00000000000E+00 -0.00000000000E+00 -0.39012547044E+02  0.39012547044E+02  0.00000000000E+00 0. -1.
         25    1    1    2    0    0  0.00000000000E+00  0.00000000000E+00  0.61115496266E+02  0.13914059035E+03  0.12500000000E+03 0.  0.
<mgrwt>
<rscale>  2 0.12500000E+03</rscale>
<asrwt>0</asrwt>
<pdfrwt beam="1">  1       21 0.15404314E-01 0.12500000E+03</pdfrwt>
<pdfrwt beam="2">  1       21 0.60019303E-02 0.12500000E+03</pdfrwt>
<totfact> 0.72151702E+06</totfact>
</mgrwt>
</event>
<event>
 3    0  0.1671619E+001  0.1250000E+03  0.7546771E-02  0.1235069E+00
         21   -1    0    0  502  501  0.00000000000E+00  0.00000000000E+00  0.12091911499E+03  0.12091911499E+03  0.00000000000E+00 0. -1.
         21   -1    0    0  501  502 -0.00000000000E+00 -0.00000000000E+00 -0.32304652579E+02  0.32304652579E+02  0.00000000000E+00 0. -1.
         25    1    1    2    0    0  0.00000000000E+00  0.00000000000E+00  0.88614462412E+02  0.15322376757E+03  0.12500000000E+03 0.  0.
<mgrwt>
<rscale>  2 0.12500000E+03</rscale>
<asrwt>0</asrwt>
<pdfrwt beam="1">  1       21 0.18602941E-01 0.12500000E+03</pdfrwt>
<pdfrwt beam="2">  1       21 0.49699466E-02 0.12500000E+03</pdfrwt>
<totfact> 0.70356547E+06</totfact>
</mgrwt>
</event>
<event>
 3    0  0.1550341E+001  0.1250000E+03  0.7546771E-02  0.1235069E+00
         21   -1    0    0  502  501  0.00000000000E+00  0.00000000000E+00  0.33894753963E+03  0.33894753963E+03  0.00000000000E+00 0.  1.
         21   -1    0    0  501  502 -0.00000000000E+00 -0.00000000000E+00 -0.11524644800E+02  0.11524644800E+02  0.00000000000E+00 0.  1.
         25    1    1    2    0    0  0.00000000000E+00  0.00000000000E+00  0.32742289483E+03  0.35047218443E+03  0.12500000000E+03 0.  0.
<mgrwt>
<rscale>  2 0.12500000E+03</rscale>
<asrwt>0</asrwt>
<pdfrwt beam="1">  1       21 0.52145768E-01 0.12500000E+03</pdfrwt>
<pdfrwt beam="2">  1       21 0.17730225E-02 0.12500000E+03</pdfrwt>
<totfact> 0.51503582E+06</totfact>
</mgrwt>
</event>
<event>
 3    0  0.1521942E+001  0.1250000E+03  0.7546771E-02  0.1235069E+00
         21   -1    0    0  502  501  0.00000000000E+00  0.00000000000E+00  0.11098841661E+02  0.11098841661E+02  0.00000000000E+00 0.  1.
         21   -1    0    0  501  502 -0.00000000000E+00 -0.00000000000E+00 -0.35195114223E+03  0.35195114223E+03  0.00000000000E+00 0.  1.
         25    1    1    2    0    0  0.00000000000E+00  0.00000000000E+00 -0.34085230056E+03  0.36304998389E+03  0.12500000000E+03 0.  0.
<mgrwt>
<rscale>  2 0.12500000E+03</rscale>
<asrwt>0</asrwt>
<pdfrwt beam="1">  1       21 0.17075142E-02 0.12500000E+03</pdfrwt>
<pdfrwt beam="2">  1       21 0.54146326E-01 0.12500000E+03</pdfrwt>
<totfact> 0.50588861E+06</totfact>
</mgrwt>
</event>
<event>
 3    0  0.1719490E+001  0.1250000E+03  0.7546771E-02  0.1235069E+00
         21   -1    0    0  502  501  0.00000000000E+00  0.00000000000E+00  0.63370688904E+02  0.63370688904E+02  0.00000000000E+00 0.  1.
         21   -1    0    0  501  502 -0.00000000000E+00 -0.00000000000E+00 -0.61641274027E+02  0.61641274027E+02  0.00000000000E+00 0.  1.
         25    1    1    2    0    0  0.00000000000E+00  0.00000000000E+00  0.17294148772E+01  0.12501196293E+03  0.12500000000E+03 0.  0.
<mgrwt>
<rscale>  2 0.12500000E+03</rscale>
<asrwt>0</asrwt>
<pdfrwt beam="1">  1       21 0.97493367E-02 0.12500000E+03</pdfrwt>
<pdfrwt beam="2">  1       21 0.94832730E-02 0.12500000E+03</pdfrwt>
<totfact> 0.74041966E+06</totfact>
</mgrwt>
</event>
<event>
 3    0  0.1695034E+001  0.1250000E+03  0.7546771E-02  0.1235069E+00
         21   -1    0    0  502  501  0.00000000000E+00  0.00000000000E+00  0.62875068669E+02  0.62875068669E+02  0.00000000000E+00 0. -1.
         21   -1    0    0  501  502 -0.00000000000E+00 -0.00000000000E+00 -0.62127168729E+02  0.62127168729E+02  0.00000000000E+00 0. -1.
         25    1    1    2    0    0  0.00000000000E+00  0.00000000000E+00  0.74789994019E+00  0.12500223740E+03  0.12500000000E+03 0.  0.
<mgrwt>
<rscale>  2 0.12500000E+03</rscale>
<asrwt>0</asrwt>
<pdfrwt beam="1">  1       21 0.96730875E-02 0.12500000E+03</pdfrwt>
<pdfrwt beam="2">  1       21 0.95580260E-02 0.12500000E+03</pdfrwt>
<totfact> 0.74043279E+06</totfact>
</mgrwt>
</event>
<event>
 3    0  0.1688042E+001  0.1250000E+03  0.7546771E-02  0.1235069E+00
         21   -1    0    0  502  501  0.00000000000E+00  0.00000000000E+00  0.90614112766E+02  0.90614112766E+02  0.00000000000E+00 0. -1.
         21   -1    0    0  501  502 -0.00000000000E+00 -0.00000000000E+00 -0.43108627131E+02  0.43108627131E+02  0.00000000000E+00 0. -1.
         25    1    1    2    0    0  0.00000000000E+00  0.00000000000E+00  0.47505485635E+02  0.13372273990E+03  0.12500000000E+03 0.  0.
<mgrwt>
<rscale>  2 0.12500000E+03</rscale>
<asrwt>0</asrwt>
<pdfrwt beam="1">  1       21 0.13940633E-01 0.12500000E+03</pdfrwt>
<pdfrwt beam="2">  1       21 0.66320965E-02 0.12500000E+03</pdfrwt>
<totfact> 0.72866039E+06</totfact>
</mgrwt>
</event>
<event>
 3    0  0.1712757E+001  0.1250000E+03  0.7546771E-02  0.1235069E+00
         21   -1    0    0  502  501  0.00000000000E+00  0.00000000000E+00  0.86174927332E+02  0.86174927332E+02  0.00000000000E+00 0.  1.
         21   -1    0    0  501  502 -0.00000000000E+00 -0.00000000000E+00 -0.45329310055E+02  0.45329310055E+02  0.00000000000E+00 0.  1.
         25    1    1    2    0    0  0.00000000000E+00  0.00000000000E+00  0.40845617278E+02  0.13150423739E+03  0.12500000000E+03 0.  0.
<mgrwt>
<rscale>  2 0.12500000E+03</rscale>
<asrwt>0</asrwt>
<pdfrwt beam="1">  1       21 0.13257681E-01 0.12500000E+03</pdfrwt>
<pdfrwt beam="2">  1       21 0.69737400E-02 0.12500000E+03</pdfrwt>
<totfact> 0.73162802E+06</totfact>
</mgrwt>
</event>
<event>
 3    0  0.1688242E+001  0.1250000E+03  0.7546771E-02  0.1235069E+00
         21   -1    0    0  502  501  0.00000000000E+00  0.00000000000E+00  0.83816523038E+02  0.83816523038E+02  0.00000000000E+00 0. -1.
         21   -1    0    0  501  502 -0.00000000000E+00 -0.00000000000E+00 -0.46604772644E+02  0.46604772644E+02  0.00000000000E+00 0. -1.
         25    1    1    2    0    0  0.00000000000E+00  0.00000000000E+00  0.37211750394E+02  0.13042129568E+03  0.12500000000E+03 0.  0.
<mgrwt>
<rscale>  2 0.12500000E+03</rscale>
<asrwt>0</asrwt>
<pdfrwt beam="1">  1       21 0.12894850E-01 0.12500000E+03</pdfrwt>
<pdfrwt beam="2">  1       21 0.71699650E-02 0.12500000E+03</pdfrwt>
<totfact> 0.73308662E+06</totfact>
</mgrwt>
</event>
<event>
 3    0  0.1480349E+001  0.1250000E+03  0.7546771E-02  0.1235069E+00
         21   -1    0    0  502  501  0.00000000000E+00  0.00000000000E+00  0.84619717248E+01  0.84619717248E+01  0.00000000000E+00 0.  1.
         21   -1    0    0  501  502 -0.00000000000E+00 -0.00000000000E+00 -0.46162409035E+03  0.46162409035E+03  0.00000000000E+00 0.  1.
         25    1    1    2    0    0  0.00000000000E+00  0.00000000000E+00 -0.45316211862E+03  0.47008606207E+03  0.12500000000E+03 0.  0.
<mgrwt>
<rscale>  2 0.12500000E+03</rscale>
<asrwt>0</asrwt>
<pdfrwt beam="1">  1       21 0.13018416E-02 0.12500000E+03</pdfrwt>
<pdfrwt beam="2">  1       21 0.71019101E-01 0.12500000E+03</pdfrwt>
<totfact> 0.43714254E+06</totfact>
</mgrwt>
</event>
<event>
 3    0  0.1680436E+001  0.1250000E+03  0.7546771E-02  0.1235069E+00
         21   -1    0    0  502  501  0.00000000000E+00  0.00000000000E+00  0.10536873475E+03  0.10536873475E+03  0.00000000000E+00 0. -1.
         21   -1    0    0  501  502 -0.00000000000E+00 -0.00000000000E+00 -0.37072192327E+02  0.37072192327E+02  0.00000000000E+00 0. -1.
         25    1    1    2    0    0  0.00000000000E+00  0.00000000000E+00  0.68296542426E+02  0.14244092708E+03  0.12500000000E+03 0.  0.
<mgrwt>
<rscale>  2 0.12500000E+03</rscale>
<asrwt>0</asrwt>
<pdfrwt beam="1">  1       21 0.16210574E-01 0.12500000E+03</pdfrwt>
<pdfrwt beam="2">  1       21 0.57034142E-02 0.12500000E+03</pdfrwt>
<totfact> 0.71722231E+06</totfact>
</mgrwt>
</event>
<event>
 3    0  0.1650880E+001  0.1250000E+03  0.7546771E-02  0.1235069E+00
         21   -1    0    0  502  501  0.00000000000E+00  0.00000000000E+00  0.19501512311E+02  0.19501512311E+02  0.00000000000E+00 0.  1.
         21   -1    0    0  501  502 -0.00000000000E+00 -0.00000000000E+00 -0.20030497829E+03  0.20030497829E+03  0.00000000000E+00 0.  1.
         25    1    1    2    0    0  0.00000000000E+00  0.00000000000E+00 -0.18080346598E+03  0.21980649060E+03  0.12500000000E+03 0.  0.
<mgrwt>
<rscale>  2 0.12500000E+03</rscale>
<asrwt>0</asrwt>
<pdfrwt beam="1">  1       21 0.30002327E-02 0.12500000E+03</pdfrwt>
<pdfrwt beam="2">  1       21 0.30816150E-01 0.12500000E+03</pdfrwt>
<totfact> 0.62842320E+06</totfact>
</mgrwt>
</event>
<event>
 3    0  0.1368989E+001  0.1250000E+03  0.7546771E-02  0.1235069E+00
         21   -1    0    0  502  501  0.00000000000E+00  0.00000000000E+00  0.29366320409E+04  0.29366320409E+04  0.00000000000E+00 0. -1.
         21   -1    0    0  501  502 -0.00000000000E+00 -0.00000000000E+00 -0.13301802696E+01  0.13301802696E+01  0.00000000000E+00 0. -1.
         25    1    1    2    0    0  0.00000000000E+00  0.00000000000E+00  0.29353018607E+04  0.29379622212E+04  0.12500000000E+03 0.  0.
<mgrwt>
<rscale>  2 0.12500000E+03</rscale>
<asrwt>0</asrwt>
<pdfrwt beam="1">  1       21 0.45178436E+00 0.12500000E+03</pdfrwt>
<pdfrwt beam="2">  1       21 0.20464547E-03 0.12500000E+03</pdfrwt>
<totfact> 0.19451843E+05</totfact>
</mgrwt>
</event>
<event>
 3    0  0.1677898E+001  0.1250000E+03  0.7546771E-02  0.1235069E+00
         21   -1    0    0  502  501  0.00000000000E+00  0.00000000000E+00  0.23538565548E+02  0.23538565548E+02  0.00000000000E+00 0.  1.
         21   -1    0    0  501  502 -0.00000000000E+00 -0.00000000000E+00 -0.16595106410E+03  0.16595106410E+03  0.00000000000E+00 0.  1.
         25    1    1    2    0    0  0.00000000000E+00  0.00000000000E+00 -0.14241249855E+03  0.18948962964E+03  0.12500000000E+03 0.  0.
<mgrwt>
<rscale>  2 0.12500000E+03</rscale>
<asrwt>0</asrwt>
<pdfrwt beam="1">  1       21 0.36213179E-02 0.12500000E+03</pdfrwt>
<pdfrwt beam="2">  1       21 0.25530932E-01 0.12500000E+03</pdfrwt>
<totfact> 0.66079232E+06</totfact>
</mgrwt>
</event>
<event>
 3    0  0.1709571E+001  0.1250000E+03  0.7546771E-02  0.1235069E+00
         21   -1    0    0  502  501  0.00000000000E+00  0.00000000000E+00  0.44462853689E+02  0.44462853689E+02  0.00000000000E+00 0.  1.
         21   -1    0    0  501  502 -0.00000000000E+00 -0.00000000000E+00 -0.87854235073E+02  0.87854235073E+02  0.00000000000E+00 0.  1.
         25    1    1    2    0    0  0.00000000000E+00  0.00000000000E+00 -0.43391381384E+02  0.13231708876E+03  0.12500000000E+03 0.  0.
<mgrwt>
<rscale>  2 0.12500000E+03</rscale>
<asrwt>0</asrwt>
<pdfrwt beam="1">  1       21 0.68404391E-02 0.12500000E+03</pdfrwt>
<pdfrwt beam="2">  1       21 0.13516036E-01 0.12500000E+03</pdfrwt>
<totfact> 0.73053728E+06</totfact>
</mgrwt>
</event>
<event>
 3    0  0.1715863E+001  0.1250000E+03  0.7546771E-02  0.1235069E+00
         21   -1    0    0  502  501  0.00000000000E+00  0.00000000000E+00  0.75245687356E+02  0.75245687356E+02  0.00000000000E+00 0.  1.
         21   -1    0    0  501  502 -0.00000000000E+00 -0.00000000000E+00 -0.51913274199E+02  0.51913274199E+02  0.00000000000E+00 0.  1.
         25    1    1    2    0    0  0.00000000000E+00  0.00000000000E+00  0.23332413156E+02  0.12715896155E+03  0.12500000000E+03 0.  0.
<mgrwt>
<rscale>  2 0.12500000E+03</rscale>
<asrwt>0</asrwt>
<pdfrwt beam="1">  1       21 0.11576260E-01 0.12500000E+03</pdfrwt>
<pdfrwt beam="2">  1       21 0.79866576E-02 0.12500000E+03</pdfrwt>
<totfact> 0.73747512E+06</totfact>
</mgrwt>
</event>
<event>
 3    0  0.1368989E+001  0.1250000E+03  0.7546771E-02  0.1235069E+00
         21   -1    0    0  502  501  0.00000000000E+00  0.00000000000E+00  0.69714969246E+03  0.69714969246E+03  0.00000000000E+00 0.  1.
         21   -1    0    0  501  502 -0.00000000000E+00 -0.00000000000E+00 -0.56031725213E+01  0.56031725213E+01  0.00000000000E+00 0.  1.
         25    1    1    2    0    0  0.00000000000E+00  0.00000000000E+00  0.69154651993E+03  0.70275286498E+03  0.12500000000E+03 0.  0.
<mgrwt>
<rscale>  2 0.12500000E+03</rscale>
<asrwt>0</asrwt>
<pdfrwt beam="1">  1       21 0.10725373E+00 0.12500000E+03</pdfrwt>
<pdfrwt beam="2">  1       21 0.86202709E-03 0.12500000E+03</pdfrwt>
<totfact> 0.32804294E+06</totfact>
</mgrwt>
</event>
<event>
 3    0  0.1368989E+001  0.1250000E+03  0.7546771E-02  0.1235069E+00
         21   -1    0    0  502  501  0.00000000000E+00  0.00000000000E+00  0.20945925294E+01  0.20945925294E+01  0.00000000000E+00 0.  1.
         21   -1    0    0  501  502 -0.00000000000E+00 -0.00000000000E+00 -0.18649211936E+04  0.18649211936E+04  0.00000000000E+00 0.  1.
         25    1    1    2    0    0  0.00000000000E+00  0.00000000000E+00 -0.18628266011E+04  0.18670157861E+04  0.12500000000E+03 0.  0.
<mgrwt>
<rscale>  2 0.12500000E+03</rscale>
<asrwt>0</asrwt>
<pdfrwt beam="1">  1       21 0.32224477E-03 0.12500000E+03</pdfrwt>
<pdfrwt beam="2">  1       21 0.28691116E+00 0.12500000E+03</pdfrwt>
<totfact> 0.93195645E+05</totfact>
</mgrwt>
</event>
<event>
 3    0  0.1368989E+001  0.1250000E+03  0.7546771E-02  0.1235069E+00
         21   -1    0    0  502  501  0.00000000000E+00  0.00000000000E+00  0.59030088754E+01  0.59030088754E+01  0.00000000000E+00 0. -1.
         21   -1    0    0  501  502 -0.00000000000E+00 -0.00000000000E+00 -0.66173879838E+03  0.66173879838E+03  0.00000000000E+00 0. -1.
         25    1    1    2    0    0  0.00000000000E+00  0.00000000000E+00 -0.65583578950E+03  0.66764180725E+03  0.12500000000E+03 0.  0.
<mgrwt>
<rscale>  2 0.12500000E+03</rscale>
<asrwt>0</asrwt>
<pdfrwt beam="1">  1       21 0.90815487E-03 0.12500000E+03</pdfrwt>
<pdfrwt beam="2">  1       21 0.10180601E+00 0.12500000E+03</pdfrwt>
<totfact> 0.34195326E+06</totfact>
</mgrwt>
</event>
<event>
 3    0  0.1695122E+001  0.1250000E+03  0.7546771E-02  0.1235069E+00
         21   -1    0    0  502  501  0.00000000000E+00  0.00000000000E+00  0.60011160184E+02  0.60011160184E+02  0.00000000000E+00 0. -1.
         21   -1    0    0  501  502 -0.00000000000E+00 -0.00000000000E+00 -0.65092059344E+02  0.65092059344E+02  0.00000000000E+00 0. -1.
         25    1    1    2    0    0  0.00000000000E+00  0.00000000000E+00 -0.50808991606E+01  0.12510321953E+03  0.12500000000E+03 0.  0.
<mgrwt>
<rscale>  2 0.12500000E+03</rscale>
<asrwt>0</asrwt>
<pdfrwt beam="1">  1       21 0.92324862E-02 0.12500000E+03</pdfrwt>
<pdfrwt beam="2">  1       21 0.10014163E-01 0.12500000E+03</pdfrwt>
<totfact> 0.74029641E+06</totfact>
</mgrwt>
</event>
<event>
 3    0  0.1531367E+001  0.1250000E+03  0.7546771E-02  0.1235069E+00
         21   -1    0    0  502  501  0.00000000000E+00  0.00000000000E+00  0.10322376462E+02  0.10322376462E+02  0.00000000000E+00 0. -1.
         21   -1    0    0  501  502 -0.00000000000E+00 -0.00000000000E+00 -0.37842545410E+03  0.37842545410E+03  0.00000000000E+00 0. -1.
         25    1    1    2    0    0  0.00000000000E+00  0.00000000000E+00 -0.36810307763E+03  0.38874783056E+03  0.12500000000E+03 0.  0.
<mgrwt>
<rscale>  2 0.12500000E+03</rscale>
<asrwt>0</asrwt>
<pdfrwt beam="1">  1       21 0.15880583E-02 0.12500000E+03</pdfrwt>
<pdfrwt beam="2">  1       21 0.58219287E-01 0.12500000E+03</pdfrwt>
<totfact> 0.48796766E+06</totfact>
</mgrwt>
</event>
<event>
 3    0  0.1694510E+001  0.1250000E+03  0.7546771E-02  0.1235069E+00
         21   -1    0    0  502  501  0.00000000000E+00  0.00000000000E+00  0.75625701694E+02  0.75625701694E+02  0.00000000000E+00 0. -1.
         21   -1    0    0  501  502 -0.00000000000E+00 -0.00000000000E+00 -0.51652413300E+02  0.51652413300E+02  0.00000000000E+00 0. -1.
         25    1    1    2    0    0  0.00000000000E+00  0.00000000000E+00  0.23973288394E+02  0.12727811499E+03  0.12500000000E+03 0.  0.
<mgrwt>
<rscale>  2 0.12500000E+03</rscale>
<asrwt>0</asrwt>
<pdfrwt beam="1">  1       21 0.11634723E-01 0.12500000E+03</pdfrwt>
<pdfrwt beam="2">  1       21 0.79465251E-02 0.12500000E+03</pdfrwt>
<totfact> 0.73731323E+06</totfact>
</mgrwt>
</event>
<event>
 3    0  0.1698512E+001  0.1250000E+03  0.7546771E-02  0.1235069E+00
         21   -1    0    0  502  501  0.00000000000E+00  0.00000000000E+00  0.32678322978E+02  0.32678322978E+02  0.00000000000E+00 0.  1.
         21   -1    0    0  501  502 -0.00000000000E+00 -0.00000000000E+00 -0.11953642794E+03  0.11953642794E+03  0.00000000000E+00 0.  1.
         25    1    1    2    0    0  0.00000000000E+00  0.00000000000E+00 -0.86858104967E+02  0.15221475092E+03  0.12500000000E+03 0.  0.
<mgrwt>
<rscale>  2 0.12500000E+03</rscale>
<asrwt>0</asrwt>
<pdfrwt beam="1">  1       21 0.50274345E-02 0.12500000E+03</pdfrwt>
<pdfrwt beam="2">  1       21 0.18390219E-01 0.12500000E+03</pdfrwt>
<totfact> 0.70482085E+06</totfact>
</mgrwt>
</event>
<event>
 3    0  0.1680962E+001  0.1250000E+03  0.7546771E-02  0.1235069E+00
         21   -1    0    0  502  501  0.00000000000E+00  0.00000000000E+00  0.10204125255E+03  0.10204125255E+03  0.00000000000E+00 0. -1.
         21   -1    0    0  501  502 -0.00000000000E+00 -0.00000000000E+00 -0.38281086349E+02  0.38281086349E+02  0.00000000000E+00 0. -1.
         25    1    1    2    0    0  0.00000000000E+00  0.00000000000E+00  0.63760166201E+02  0.14032233890E+03  0.12500000000E+03 0.  0.
<mgrwt>
<rscale>  2 0.12500000E+03</rscale>
<asrwt>0</asrwt>
<pdfrwt beam="1">  1       21 0.15698654E-01 0.12500000E+03</pdfrwt>
<pdfrwt beam="2">  1       21 0.58893979E-02 0.12500000E+03</pdfrwt>
<totfact> 0.71997256E+06</totfact>
</mgrwt>
</event>
<event>
 3    0  0.1384375E+001  0.1250000E+03  0.7546771E-02  0.1235069E+00
         21   -1    0    0  502  501  0.00000000000E+00  0.00000000000E+00  0.59278901563E+03  0.59278901563E+03  0.00000000000E+00 0. -1.
         21   -1    0    0  501  502 -0.00000000000E+00 -0.00000000000E+00 -0.65896126565E+01  0.65896126565E+01  0.00000000000E+00 0. -1.
         25    1    1    2    0    0  0.00000000000E+00  0.00000000000E+00  0.58619940297E+03  0.59937862829E+03  0.12500000000E+03 0.  0.
<mgrwt>
<rscale>  2 0.12500000E+03</rscale>
<asrwt>0</asrwt>
<pdfrwt beam="1">  1       21 0.91198268E-01 0.12500000E+03</pdfrwt>
<pdfrwt beam="2">  1       21 0.10137870E-02 0.12500000E+03</pdfrwt>
<totfact> 0.37120759E+06</totfact>
</mgrwt>
</event>
<event>
 3    0  0.1547211E+001  0.1250000E+03  0.7546771E-02  0.1235069E+00
         21   -1    0    0  502  501  0.00000000000E+00  0.00000000000E+00  0.13641996411E+02  0.13641996411E+02  0.00000000000E+00 0. -1.
         21   -1    0    0  501  502 -0.00000000000E+00 -0.00000000000E+00 -0.28634005481E+03  0.28634005481E+03  0.00000000000E+00 0. -1.
         25    1    1    2    0    0  0.00000000000E+00  0.00000000000E+00 -0.27269805840E+03  0.29998205122E+03  0.12500000000E+03 0.  0.
<mgrwt>
<rscale>  2 0.12500000E+03</rscale>
<asrwt>0</asrwt>
<pdfrwt beam="1">  1       21 0.20987689E-02 0.12500000E+03</pdfrwt>
<pdfrwt beam="2">  1       21 0.44052312E-01 0.12500000E+03</pdfrwt>
<totfact> 0.55457667E+06</totfact>
</mgrwt>
</event>
<event>
 3    0  0.1496254E+001  0.1250000E+03  0.7546771E-02  0.1235069E+00
         21   -1    0    0  502  501  0.00000000000E+00  0.00000000000E+00  0.37817530936E+03  0.37817530936E+03  0.00000000000E+00 0. -1.
         21   -1    0    0  501  502 -0.00000000000E+00 -0.00000000000E+00 -0.10329204217E+02  0.10329204217E+02  0.00000000000E+00 0. -1.
         25    1    1    2    0    0  0.00000000000E+00  0.00000000000E+00  0.36784610514E+03  0.38850451357E+03  0.12500000000E+03 0.  0.
<mgrwt>
<rscale>  2 0.12500000E+03</rscale>
<asrwt>0</asrwt>
<pdfrwt beam="1">  1       21 0.58180806E-01 0.12500000E+03</pdfrwt>
<pdfrwt beam="2">  1       21 0.15891086E-02 0.12500000E+03</pdfrwt>
<totfact> 0.48813302E+06</totfact>
</mgrwt>
</event>
<event>
 3    0  0.1448837E+001  0.1250000E+03  0.7546771E-02  0.1235069E+00
         21   -1    0    0  502  501  0.00000000000E+00  0.00000000000E+00  0.74550865622E+01  0.74550865622E+01  0.00000000000E+00 0. -1.
         21   -1    0    0  501  502 -0.00000000000E+00 -0.00000000000E+00 -0.52397111253E+03  0.52397111253E+03  0.00000000000E+00 0. -1.
         25    1    1    2    0    0  0.00000000000E+00  0.00000000000E+00 -0.51651602597E+03  0.53142619910E+03  0.12500000000E+03 0.  0.
<mgrwt>
<rscale>  2 0.12500000E+03</rscale>
<asrwt>0</asrwt>
<pdfrwt beam="1">  1       21 0.11469366E-02 0.12500000E+03</pdfrwt>
<pdfrwt beam="2">  1       21 0.80610929E-01 0.12500000E+03</pdfrwt>
<totfact> 0.40389483E+06</totfact>
</mgrwt>
</event>
<event>
 3    0  0.1679728E+001  0.1250000E+03  0.7546771E-02  0.1235069E+00
         21   -1    0    0  502  501  0.00000000000E+00  0.00000000000E+00  0.38100365911E+02  0.38100365911E+02  0.00000000000E+00 0. -1.
         21   -1    0    0  501  502 -0.00000000000E+00 -0.00000000000E+00 -0.10252526207E+03  0.10252526207E+03  0.00000000000E+00 0. -1.
         25    1    1    2    0    0  0.00000000000E+00  0.00000000000E+00 -0.64424896158E+02  0.14062562798E+03  0.12500000000E+03 0.  0.
<mgrwt>
<rscale>  2 0.12500000E+03</rscale>
<asrwt>0</asrwt>
<pdfrwt beam="1">  1       21 0.58615948E-02 0.12500000E+03</pdfrwt>
<pdfrwt beam="2">  1       21 0.15773117E-01 0.12500000E+03</pdfrwt>
<totfact> 0.71957739E+06</totfact>
</mgrwt>
</event>
<event>
 3    0  0.1368989E+001  0.1250000E+03  0.7546771E-02  0.1235069E+00
         21   -1    0    0  502  501  0.00000000000E+00  0.00000000000E+00  0.45427652350E+01  0.45427652350E+01  0.00000000000E+00 0.  1.
         21   -1    0    0  501  502 -0.00000000000E+00 -0.00000000000E+00 -0.85988374876E+03  0.85988374876E+03  0.00000000000E+00 0.  1.
         25    1    1    2    0    0  0.00000000000E+00  0.00000000000E+00 -0.85534098352E+03  0.86442651399E+03  0.12500000000E+03 0.  0.
<mgrwt>
<rscale>  2 0.12500000E+03</rscale>
<asrwt>0</asrwt>
<pdfrwt beam="1">  1       21 0.69888717E-03 0.12500000E+03</pdfrwt>
<pdfrwt beam="2">  1       21 0.13228977E+00 0.12500000E+03</pdfrwt>
<totfact> 0.27336028E+06</totfact>
</mgrwt>
</event>
<event>
 3    0  0.1688246E+001  0.1250000E+03  0.7546771E-02  0.1235069E+00
         21   -1    0    0  502  501  0.00000000000E+00  0.00000000000E+00  0.90487933223E+02  0.90487933223E+02  0.00000000000E+00 0. -1.
         21   -1    0    0  501  502 -0.00000000000E+00 -0.00000000000E+00 -0.43168739310E+02  0.43168739310E+02  0.00000000000E+00 0. -1.
         25    1    1    2    0    0  0.00000000000E+00  0.00000000000E+00  0.47319193914E+02  0.13365667253E+03  0.12500000000E+03 0.  0.
<mgrwt>
<rscale>  2 0.12500000E+03</rscale>
<asrwt>0</asrwt>
<pdfrwt beam="1">  1       21 0.13921221E-01 0.12500000E+03</pdfrwt>
<pdfrwt beam="2">  1       21 0.66413445E-02 0.12500000E+03</pdfrwt>
<totfact> 0.72874835E+06</totfact>
</mgrwt>
</event>
<event>
 3    0  0.1672360E+001  0.1250000E+03  0.7546771E-02  0.1235069E+00
         21   -1    0    0  502  501  0.00000000000E+00  0.00000000000E+00  0.33697517106E+02  0.33697517106E+02  0.00000000000E+00 0. -1.
         21   -1    0    0  501  502 -0.00000000000E+00 -0.00000000000E+00 -0.11592100355E+03  0.11592100355E+03  0.00000000000E+00 0. -1.
         25    1    1    2    0    0  0.00000000000E+00  0.00000000000E+00 -0.82223486442E+02  0.14961852065E+03  0.12500000000E+03 0.  0.
<mgrwt>
<rscale>  2 0.12500000E+03</rscale>
<asrwt>0</asrwt>
<pdfrwt beam="1">  1       21 0.51842335E-02 0.12500000E+03</pdfrwt>
<pdfrwt beam="2">  1       21 0.17834000E-01 0.12500000E+03</pdfrwt>
<totfact> 0.70807155E+06</totfact>
</mgrwt>
</event>
<event>
 3    0  0.1591757E+001  0.1250000E+03  0.7546771E-02  0.1235069E+00
         21   -1    0    0  502  501  0.00000000000E+00  0.00000000000E+00  0.14126019383E+02  0.14126019383E+02  0.00000000000E+00 0.  1.
         21   -1    0    0  501  502 -0.00000000000E+00 -0.00000000000E+00 -0.27652871584E+03  0.27652871584E+03  0.00000000000E+00 0.  1.
         25    1    1    2    0    0  0.00000000000E+00  0.00000000000E+00 -0.26240269646E+03  0.29065473523E+03  0.12500000000E+03 0.  0.
<mgrwt>
<rscale>  2 0.12500000E+03</rscale>
<asrwt>0</asrwt>
<pdfrwt beam="1">  1       21 0.21732338E-02 0.12500000E+03</pdfrwt>
<pdfrwt beam="2">  1       21 0.42542879E-01 0.12500000E+03</pdfrwt>
<totfact> 0.56241855E+06</totfact>
</mgrwt>
</event>
<event>
 3    0  0.1626373E+001  0.1250000E+03  0.7546771E-02  0.1235069E+00
         21   -1    0    0  502  501  0.00000000000E+00  0.00000000000E+00  0.23935512194E+03  0.23935512194E+03  0.00000000000E+00 0.  1.
         21   -1    0    0  501  502 -0.00000000000E+00 -0.00000000000E+00 -0.16319893087E+02  0.16319893087E+02  0.00000000000E+00 0.  1.
         25    1    1    2    0    0  0.00000000000E+00  0.00000000000E+00  0.22303522886E+03  0.25567501503E+03  0.12500000000E+03 0.  0.
<mgrwt>
<rscale>  2 0.12500000E+03</rscale>
<asrwt>0</asrwt>
<pdfrwt beam="1">  1       21 0.36823862E-01 0.12500000E+03</pdfrwt>
<pdfrwt beam="2">  1       21 0.25107530E-02 0.12500000E+03</pdfrwt>
<totfact> 0.59347973E+06</totfact>
</mgrwt>
</event>
<event>
 3    0  0.1584856E+001  0.1250000E+03  0.7546771E-02  0.1235069E+00
         21   -1    0    0  502  501  0.00000000000E+00  0.00000000000E+00  0.24727948498E+03  0.24727948498E+03  0.00000000000E+00 0. -1.
         21   -1    0    0  501  502 -0.00000000000E+00 -0.00000000000E+00 -0.15796902846E+02  0.15796902846E+02  0.00000000000E+00 0. -1.
         25    1    1    2    0    0  0.00000000000E+00  0.00000000000E+00  0.23148258214E+03  0.26307638783E+03  0.12500000000E+03 0.  0.
<mgrwt>
<rscale>  2 0.12500000E+03</rscale>
<asrwt>0</asrwt>
<pdfrwt beam="1">  1       21 0.38042995E-01 0.12500000E+03</pdfrwt>
<pdfrwt beam="2">  1       21 0.24302929E-02 0.12500000E+03</pdfrwt>
<totfact> 0.58668447E+06</totfact>
</mgrwt>
</event>
<event>
 3    0  0.1368989E+001  0.1250000E+03  0.7546771E-02  0.1235069E+00
         21   -1    0    0  502  501  0.00000000000E+00  0.00000000000E+00  0.65833434233E+03  0.65833434233E+03  0.00000000000E+00 0. -1.
         21   -1    0    0  501  502 -0.00000000000E+00 -0.00000000000E+00 -0.59335352097E+01  0.59335352097E+01  0.00000000000E+00 0. -1.
         25    1    1    2    0    0  0.00000000000E+00  0.00000000000E+00  0.65240080712E+03  0.66426787754E+03  0.12500000000E+03 0.  0.
<mgrwt>
<rscale>  2 0.12500000E+03</rscale>
<asrwt>0</asrwt>
<pdfrwt beam="1">  1       21 0.10128215E+00 0.12500000E+03</pdfrwt>
<pdfrwt beam="2">  1       21 0.91285209E-03 0.12500000E+03</pdfrwt>
<totfact> 0.34333715E+06</totfact>
</mgrwt>
</event>
<event>
 3    0  0.1629569E+001  0.1250000E+03  0.7546771E-02  0.1235069E+00
         21   -1    0    0  502  501  0.00000000000E+00  0.00000000000E+00  0.21766708165E+03  0.21766708165E+03  0.00000000000E+00 0.  1.
         21   -1    0    0  501  502 -0.00000000000E+00 -0.00000000000E+00 -0.17945984162E+02  0.17945984162E+02  0.00000000000E+00 0.  1.
         25    1    1    2    0    0  0.00000000000E+00  0.00000000000E+00  0.19972109749E+03  0.23561306581E+03  0.12500000000E+03 0.  0.
<mgrwt>
<rscale>  2 0.12500000E+03</rscale>
<asrwt>0</asrwt>
<pdfrwt beam="1">  1       21 0.33487241E-01 0.12500000E+03</pdfrwt>
<pdfrwt beam="2">  1       21 0.27609208E-02 0.12500000E+03</pdfrwt>
<totfact> 0.61259779E+06</totfact>
</mgrwt>
</event>
<event>
 3    0  0.1717969E+001  0.1250000E+03  0.7546771E-02  0.1235069E+00
         21   -1    0    0  502  501  0.00000000000E+00  0.00000000000E+00  0.76615879248E+02  0.76615879248E+02  0.00000000000E+00 0.  1.
         21   -1    0    0  501  502 -0.00000000000E+00 -0.00000000000E+00 -0.50984861602E+02  0.50984861602E+02  0.00000000000E+00 0.  1.
         25    1    1    2    0    0  0.00000000000E+00  0.00000000000E+00  0.25631017646E+02  0.12760074085E+03  0.12500000000E+03 0.  0.
<mgrwt>
<rscale>  2 0.12500000E+03</rscale>
<asrwt>0</asrwt>
<pdfrwt beam="1">  1       21 0.11787058E-01 0.12500000E+03</pdfrwt>
<pdfrwt beam="2">  1       21 0.78438249E-02 0.12500000E+03</pdfrwt>
<totfact> 0.73687567E+06</totfact>
</mgrwt>
</event>
<event>
 3    0  0.1630943E+001  0.1250000E+03  0.7546771E-02  0.1235069E+00
         21   -1    0    0  502  501  0.00000000000E+00  0.00000000000E+00  0.19647928362E+02  0.19647928362E+02  0.00000000000E+00 0. -1.
         21   -1    0    0  501  502 -0.00000000000E+00 -0.00000000000E+00 -0.19881230876E+03  0.19881230876E+03  0.00000000000E+00 0. -1.
         25    1    1    2    0    0  0.00000000000E+00  0.00000000000E+00 -0.17916438040E+03  0.21846023713E+03  0.12500000000E+03 0.  0.
<mgrwt>
<rscale>  2 0.12500000E+03</rscale>
<asrwt>0</asrwt>
<pdfrwt beam="1">  1       21 0.30227581E-02 0.12500000E+03</pdfrwt>
<pdfrwt beam="2">  1       21 0.30586510E-01 0.12500000E+03</pdfrwt>
<totfact> 0.62980266E+06</totfact>
</mgrwt>
</event>
<event>
 3    0  0.1653702E+001  0.1250000E+03  0.7546771E-02  0.1235069E+00
         21   -1    0    0  502  501  0.00000000000E+00  0.00000000000E+00  0.16594492337E+03  0.16594492337E+03  0.00000000000E+00 0. -1.
         21   -1    0    0  501  502 -0.00000000000E+00 -0.00000000000E+00 -0.23539436584E+02  0.23539436584E+02  0.00000000000E+00 0. -1.
         25    1    1    2    0    0  0.00000000000E+00  0.00000000000E+00  0.14240548679E+03  0.18948435995E+03  0.12500000000E+03 0.  0.
<mgrwt>
<rscale>  2 0.12500000E+03</rscale>
<asrwt>0</asrwt>
<pdfrwt beam="1">  1       21 0.25529987E-01 0.12500000E+03</pdfrwt>
<pdfrwt beam="2">  1       21 0.36214519E-02 0.12500000E+03</pdfrwt>
<totfact> 0.66079819E+06</totfact>
</mgrwt>
</event>
<event>
 3    0  0.1676133E+001  0.1250000E+03  0.7546771E-02  0.1235069E+00
         21   -1    0    0  502  501  0.00000000000E+00  0.00000000000E+00  0.15642205476E+03  0.15642205476E+03  0.00000000000E+00 0.  1.
         21   -1    0    0  501  502 -0.00000000000E+00 -0.00000000000E+00 -0.24972501518E+02  0.24972501518E+02  0.00000000000E+00 0.  1.
         25    1    1    2    0    0  0.00000000000E+00  0.00000000000E+00  0.13144955324E+03  0.18139455628E+03  0.12500000000E+03 0.  0.
<mgrwt>
<rscale>  2 0.12500000E+03</rscale>
<asrwt>0</asrwt>
<pdfrwt beam="1">  1       21 0.24064931E-01 0.12500000E+03</pdfrwt>
<pdfrwt beam="2">  1       21 0.38419234E-02 0.12500000E+03</pdfrwt>
<totfact> 0.66991917E+06</totfact>
</mgrwt>
</event>
<event>
 3    0  0.1670372E+001  0.1250000E+03  0.7546771E-02  0.1235069E+00
         21   -1    0    0  502  501  0.00000000000E+00  0.00000000000E+00  0.11040432341E+03  0.11040432341E+03  0.00000000000E+00 0. -1.
         21   -1    0    0  501  502 -0.00000000000E+00 -0.00000000000E+00 -0.35381313697E+02  0.35381313697E+02  0.00000000000E+00 0. -1.
         25    1    1    2    0    0  0.00000000000E+00  0.00000000000E+00  0.75023009712E+02  0.14578563711E+03  0.12500000000E+03 0.  0.
<mgrwt>
<rscale>  2 0.12500000E+03</rscale>
<asrwt>0</asrwt>
<pdfrwt beam="1">  1       21 0.16985280E-01 0.12500000E+03</pdfrwt>
<pdfrwt beam="2">  1       21 0.54432791E-02 0.12500000E+03</pdfrwt>
<totfact> 0.71292708E+06</totfact>
</mgrwt>
</event>
<event>
 3    0  0.1502694E+001  0.1250000E+03  0.7546771E-02  0.1235069E+00
         21   -1    0    0  502  501  0.00000000000E+00  0.00000000000E+00  0.45083013925E+03  0.45083013925E+03  0.00000000000E+00 0.  1.
         21   -1    0    0  501  502 -0.00000000000E+00 -0.00000000000E+00 -0.86645715534E+01  0.86645715534E+01  0.00000000000E+00 0.  1.
         25    1    1    2    0    0  0.00000000000E+00  0.00000000000E+00  0.44216556770E+03  0.45949471081E+03  0.12500000000E+03 0.  0.
<mgrwt>
<rscale>  2 0.12500000E+03</rscale>
<asrwt>0</asrwt>
<pdfrwt beam="1">  1       21 0.69358465E-01 0.12500000E+03</pdfrwt>
<pdfrwt beam="2">  1       21 0.13330114E-02 0.12500000E+03</pdfrwt>
<totfact> 0.44329531E+06</totfact>
</mgrwt>
</event>
<event>
 3    0  0.1517283E+001  0.1250000E+03  0.7546771E-02  0.1235069E+00
         21   -1    0    0  502  501  0.00000000000E+00  0.00000000000E+00  0.98660994444E+01  0.98660994444E+01  0.00000000000E+00 0.  1.
         21   -1    0    0  501  502 -0.00000000000E+00 -0.00000000000E+00 -0.39592647753E+03  0.39592647753E+03  0.00000000000E+00 0.  1.
         25    1    1    2    0    0  0.00000000000E+00  0.00000000000E+00 -0.38606037809E+03  0.40579257698E+03  0.12500000000E+03 0.  0.
<mgrwt>
<rscale>  2 0.12500000E+03</rscale>
<asrwt>0</asrwt>
<pdfrwt beam="1">  1       21 0.15178614E-02 0.12500000E+03</pdfrwt>
<pdfrwt beam="2">  1       21 0.60911767E-01 0.12500000E+03</pdfrwt>
<totfact> 0.47659494E+06</totfact>
</mgrwt>
</event>
<event>
 3    0  0.1690982E+001  0.1250000E+03  0.7546771E-02  0.1235069E+00
         21   -1    0    0  502  501  0.00000000000E+00  0.00000000000E+00  0.12630915701E+03  0.12630915701E+03  0.00000000000E+00 0.  1.
         21   -1    0    0  501  502 -0.00000000000E+00 -0.00000000000E+00 -0.30926103004E+02  0.30926103004E+02  0.00000000000E+00 0.  1.
         25    1    1    2    0    0  0.00000000000E+00  0.00000000000E+00  0.95383054005E+02  0.15723526001E+03  0.12500000000E+03 0.  0.
<mgrwt>
<rscale>  2 0.12500000E+03</rscale>
<asrwt>0</asrwt>
<pdfrwt beam="1">  1       21 0.19432178E-01 0.12500000E+03</pdfrwt>
<pdfrwt beam="2">  1       21 0.47578621E-02 0.12500000E+03</pdfrwt>
<totfact> 0.69858905E+06</totfact>
</mgrwt>
</event>
<event>
 3    0  0.1691954E+001  0.1250000E+03  0.7546771E-02  0.1235069E+00
         21   -1    0    0  502  501  0.00000000000E+00  0.00000000000E+00  0.14066212164E+03  0.14066212164E+03  0.00000000000E+00 0.  1.
         21   -1    0    0  501  502 -0.00000000000E+00 -0.00000000000E+00 -0.27770447043E+02  0.27770447043E+02  0.00000000000E+00 0.  1.
         25    1    1    2    0    0  0.00000000000E+00  0.00000000000E+00  0.11289167460E+03  0.16843256868E+03  0.12500000000E+03 0.  0.
<mgrwt>
<rscale>  2 0.12500000E+03</rscale>
<asrwt>0</asrwt>
<pdfrwt beam="1">  1       21 0.21640326E-01 0.12500000E+03</pdfrwt>
<pdfrwt beam="2">  1       21 0.42723766E-02 0.12500000E+03</pdfrwt>
<totfact> 0.68503525E+06</totfact>
</mgrwt>
</event>
<event>
 3    0  0.1368989E+001  0.1250000E+03  0.7546771E-02  0.1235069E+00
         21   -1    0    0  502  501  0.00000000000E+00  0.00000000000E+00  0.46326790230E+01  0.46326790230E+01  0.00000000000E+00 0.  1.
         21   -1    0    0  501  502 -0.00000000000E+00 -0.00000000000E+00 -0.84319461387E+03  0.84319461387E+03  0.00000000000E+00 0.  1.
         25    1    1    2    0    0  0.00000000000E+00  0.00000000000E+00 -0.83856193484E+03  0.84782729289E+03  0.12500000000E+03 0.  0.
<mgrwt>
<rscale>  2 0.12500000E+03</rscale>
<asrwt>0</asrwt>
<pdfrwt beam="1">  1       21 0.71272003E-03 0.12500000E+03</pdfrwt>
<pdfrwt beam="2">  1       21 0.12972221E+00 0.12500000E+03</pdfrwt>
<totfact> 0.27838217E+06</totfact>
</mgrwt>
</event>
<event>
 3    0  0.1713642E+001  0.1250000E+03  0.7546771E-02  0.1235069E+00
         21   -1    0    0  502  501  0.00000000000E+00  0.00000000000E+00  0.85577389219E+02  0.85577389219E+02  0.00000000000E+00 0.  1.
         21   -1    0    0  501  502 -0.00000000000E+00 -0.00000000000E+00 -0.45645818781E+02  0.45645818781E+02  0.00000000000E+00 0.  1.
         25    1    1    2    0    0  0.00000000000E+00  0.00000000000E+00  0.39931570438E+02  0.13122320800E+03  0.12500000000E+03 0.  0.
<mgrwt>
<rscale>  2 0.12500000E+03</rscale>
<asrwt>0</asrwt>
<pdfrwt beam="1">  1       21 0.13165752E-01 0.12500000E+03</pdfrwt>
<pdfrwt beam="2">  1       21 0.70224337E-02 0.12500000E+03</pdfrwt>
<totfact> 0.73200608E+06</totfact>
</mgrwt>
</event>
<event>
 3    0  0.1368989E+001  0.1250000E+03  0.7546771E-02  0.1235069E+00
         21   -1    0    0  502  501  0.00000000000E+00  0.00000000000E+00  0.77994119396E+03  0.77994119396E+03  0.00000000000E+00 0. -1.
         21   -1    0    0  501  502 -0.00000000000E+00 -0.00000000000E+00 -0.50083904149E+01  0.50083904149E+01  0.00000000000E+00 0. -1.
         25    1    1    2    0    0  0.00000000000E+00  0.00000000000E+00  0.77493280354E+03  0.78494958437E+03  0.12500000000E+03 0.  0.
<mgrwt>
<rscale>  2 0.12500000E+03</rscale>
<asrwt>0</asrwt>
<pdfrwt beam="1">  1       21 0.11999086E+00 0.12500000E+03</pdfrwt>
<pdfrwt beam="2">  1       21 0.77052222E-03 0.12500000E+03</pdfrwt>
<totfact> 0.29867596E+06</totfact>
</mgrwt>
</event>
<event>
 3    0  0.1368989E+001  0.1250000E+03  0.7546771E-02  0.1235069E+00
         21   -1    0    0  502  501  0.00000000000E+00  0.00000000000E+00  0.84955204165E+03  0.84955204165E+03  0.00000000000E+00 0. -1.
         21   -1    0    0  501  502 -0.00000000000E+00 -0.00000000000E+00 -0.45980114325E+01  0.45980114325E+01  0.00000000000E+00 0. -1.
         25    1    1    2    0    0  0.00000000000E+00  0.00000000000E+00  0.84495403022E+03  0.85415005309E+03  0.12500000000E+03 0.  0.
<mgrwt>
<rscale>  2 0.12500000E+03</rscale>
<asrwt>0</asrwt>
<pdfrwt beam="1">  1       21 0.13070019E+00 0.12500000E+03</pdfrwt>
<pdfrwt beam="2">  1       21 0.70738705E-03 0.12500000E+03</pdfrwt>
<totfact> 0.27645382E+06</totfact>
</mgrwt>
</event>
<event>
 3    0  0.1564831E+001  0.1250000E+03  0.7546771E-02  0.1235069E+00
         21   -1    0    0  502  501  0.00000000000E+00  0.00000000000E+00  0.13329865997E+02  0.13329865997E+02  0.00000000000E+00 0. -1.
         21   -1    0    0  501  502 -0.00000000000E+00 -0.00000000000E+00 -0.29304495640E+03  0.29304495640E+03  0.00000000000E+00 0. -1.
         25    1    1    2    0    0  0.00000000000E+00  0.00000000000E+00 -0.27971509040E+03  0.30637482240E+03  0.12500000000E+03 0.  0.
<mgrwt>
<rscale>  2 0.12500000E+03</rscale>
<asrwt>0</asrwt>
<pdfrwt beam="1">  1       21 0.20507489E-02 0.12500000E+03</pdfrwt>
<pdfrwt beam="2">  1       21 0.45083833E-01 0.12500000E+03</pdfrwt>
<totfact> 0.54930530E+06</totfact>
</mgrwt>
</event>
<event>
 3    0  0.1440106E+001  0.1250000E+03  0.7546771E-02  0.1235069E+00
         21   -1    0    0  502  501  0.00000000000E+00  0.00000000000E+00  0.53036139618E+03  0.53036139618E+03  0.00000000000E+00 0. -1.
         21   -1    0    0  501  502 -0.00000000000E+00 -0.00000000000E+00 -0.73652607979E+01  0.73652607979E+01  0.00000000000E+00 0. -1.
         25    1    1    2    0    0  0.00000000000E+00  0.00000000000E+00  0.52299613538E+03  0.53772665698E+03  0.12500000000E+03 0.  0.
<mgrwt>
<rscale>  2 0.12500000E+03</rscale>
<asrwt>0</asrwt>
<pdfrwt beam="1">  1       21 0.81594031E-01 0.12500000E+03</pdfrwt>
<pdfrwt beam="2">  1       21 0.11331175E-02 0.12500000E+03</pdfrwt>
<totfact> 0.40069302E+06</totfact>
</mgrwt>
</event>
<event>
 3    0  0.1368989E+001  0.1250000E+03  0.7546771E-02  0.1235069E+00
         21   -1    0    0  502  501  0.00000000000E+00  0.00000000000E+00  0.40423294043E+01  0.40423294043E+01  0.00000000000E+00 0.  1.
         21   -1    0    0  501  502 -0.00000000000E+00 -0.00000000000E+00 -0.96633638907E+03  0.96633638907E+03  0.00000000000E+00 0.  1.
         25    1    1    2    0    0  0.00000000000E+00  0.00000000000E+00 -0.96229405967E+03  0.97037871848E+03  0.12500000000E+03 0.  0.
<mgrwt>
<rscale>  2 0.12500000E+03</rscale>
<asrwt>0</asrwt>
<pdfrwt beam="1">  1       21 0.62189601E-03 0.12500000E+03</pdfrwt>
<pdfrwt beam="2">  1       21 0.14866733E+00 0.12500000E+03</pdfrwt>
<totfact> 0.24373583E+06</totfact>
</mgrwt>
</event>
<event>
 3    0  0.1436482E+001  0.1250000E+03  0.7546771E-02  0.1235069E+00
         21   -1    0    0  502  501  0.00000000000E+00  0.00000000000E+00  0.69590383126E+01  0.69590383126E+01  0.00000000000E+00 0. -1.
         21   -1    0    0  501  502 -0.00000000000E+00 -0.00000000000E+00 -0.56132037568E+03  0.56132037568E+03  0.00000000000E+00 0. -1.
         25    1    1    2    0    0  0.00000000000E+00  0.00000000000E+00 -0.55436133737E+03  0.56827941399E+03  0.12500000000E+03 0.  0.
<mgrwt>
<rscale>  2 0.12500000E+03</rscale>
<asrwt>0</asrwt>
<pdfrwt beam="1">  1       21 0.10706212E-02 0.12500000E+03</pdfrwt>
<pdfrwt beam="2">  1       21 0.86356985E-01 0.12500000E+03</pdfrwt>
<totfact> 0.38567604E+06</totfact>
</mgrwt>
</event>
<event>
 3    0  0.1538844E+001  0.1250000E+03  0.7546771E-02  0.1235069E+00
         21   -1    0    0  502  501  0.00000000000E+00  0.00000000000E+00  0.12813295010E+02  0.12813295010E+02  0.00000000000E+00 0. -1.
         21   -1    0    0  501  502 -0.00000000000E+00 -0.00000000000E+00 -0.30485913242E+03  0.30485913242E+03  0.00000000000E+00 0. -1.
         25    1    1    2    0    0  0.00000000000E+00  0.00000000000E+00 -0.29204583741E+03  0.31767242743E+03  0.12500000000E+03 0.  0.
<mgrwt>
<rscale>  2 0.12500000E+03</rscale>
<asrwt>0</asrwt>
<pdfrwt beam="1">  1       21 0.19712762E-02 0.12500000E+03</pdfrwt>
<pdfrwt beam="2">  1       21 0.46901405E-01 0.12500000E+03</pdfrwt>
<totfact> 0.54018308E+06</totfact>
</mgrwt>
</event>
<event>
 3    0  0.1691941E+001  0.1250000E+03  0.7546771E-02  0.1235069E+00
         21   -1    0    0  502  501  0.00000000000E+00  0.00000000000E+00  0.31076317788E+02  0.31076317788E+02  0.00000000000E+00 0.  1.
         21   -1    0    0  501  502 -0.00000000000E+00 -0.00000000000E+00 -0.12569861161E+03  0.12569861161E+03  0.00000000000E+00 0.  1.
         25    1    1    2    0    0  0.00000000000E+00  0.00000000000E+00 -0.94622293824E+02  0.15677492940E+03  0.12500000000E+03 0.  0.
<mgrwt>
<rscale>  2 0.12500000E+03</rscale>
<asrwt>0</asrwt>
<pdfrwt beam="1">  1       21 0.47809719E-02 0.12500000E+03</pdfrwt>
<pdfrwt beam="2">  1       21 0.19338248E-01 0.12500000E+03</pdfrwt>
<totfact> 0.69915727E+06</totfact>
</mgrwt>
</event>
<event>
 3    0  0.1715834E+001  0.1250000E+03  0.7546771E-02  0.1235069E+00
         21   -1    0    0  502  501  0.00000000000E+00  0.00000000000E+00  0.81418402527E+02  0.81418402527E+02  0.00000000000E+00 0.  1.
         21   -1    0    0  501  502 -0.00000000000E+00 -0.00000000000E+00 -0.47977482716E+02  0.47977482716E+02  0.00000000000E+00 0.  1.
         25    1    1    2    0    0  0.00000000000E+00  0.00000000000E+00  0.33440919812E+02  0.12939588524E+03  0.12500000000E+03 0.  0.
<mgrwt>
<rscale>  2 0.12500000E+03</rscale>
<asrwt>0</asrwt>
<pdfrwt beam="1">  1       21 0.12525908E-01 0.12500000E+03</pdfrwt>
<pdfrwt beam="2">  1       21 0.73811512E-02 0.12500000E+03</pdfrwt>
<totfact> 0.73445767E+06</totfact>
</mgrwt>
</event>
<event>
 3    0  0.1705570E+001  0.1250000E+03  0.7546771E-02  0.1235069E+00
         21   -1    0    0  502  501  0.00000000000E+00  0.00000000000E+00  0.39530023880E+02  0.39530023880E+02  0.00000000000E+00 0.  1.
         21   -1    0    0  501  502 -0.00000000000E+00 -0.00000000000E+00 -0.98817294214E+02  0.98817294214E+02  0.00000000000E+00 0.  1.
         25    1    1    2    0    0  0.00000000000E+00  0.00000000000E+00 -0.59287270335E+02  0.13834731809E+03  0.12500000000E+03 0.  0.
<mgrwt>
<rscale>  2 0.12500000E+03</rscale>
<asrwt>0</asrwt>
<pdfrwt beam="1">  1       21 0.60815422E-02 0.12500000E+03</pdfrwt>
<pdfrwt beam="2">  1       21 0.15202660E-01 0.12500000E+03</pdfrwt>
<totfact> 0.72255803E+06</totfact>
</mgrwt>
</event>
<event>
 3    0  0.1484333E+001  0.1250000E+03  0.7546771E-02  0.1235069E+00
         21   -1    0    0  502  501  0.00000000000E+00  0.00000000000E+00  0.40069386633E+03  0.40069386633E+03  0.00000000000E+00 0. -1.
         21   -1    0    0  501  502 -0.00000000000E+00 -0.00000000000E+00 -0.97487142386E+01  0.97487142386E+01  0.00000000000E+00 0. -1.
         25    1    1    2    0    0  0.00000000000E+00  0.00000000000E+00  0.39094515209E+03  0.41044258057E+03  0.12500000000E+03 0.  0.
<mgrwt>
<rscale>  2 0.12500000E+03</rscale>
<asrwt>0</asrwt>
<pdfrwt beam="1">  1       21 0.61645197E-01 0.12500000E+03</pdfrwt>
<pdfrwt beam="2">  1       21 0.14998025E-02 0.12500000E+03</pdfrwt>
<totfact> 0.47356338E+06</totfact>
</mgrwt>
</event>
<event>
 3    0  0.1444593E+001  0.1250000E+03  0.7546771E-02  0.1235069E+00
         21   -1    0    0  502  501  0.00000000000E+00  0.00000000000E+00  0.50282090528E+03  0.50282090528E+03  0.00000000000E+00 0.  1.
         21   -1    0    0  501  502 -0.00000000000E+00 -0.00000000000E+00 -0.77686706320E+01  0.77686706320E+01  0.00000000000E+00 0.  1.
         25    1    1    2    0    0  0.00000000000E+00  0.00000000000E+00  0.49505223465E+03  0.51058957591E+03  0.12500000000E+03 0.  0.
<mgrwt>
<rscale>  2 0.12500000E+03</rscale>
<asrwt>0</asrwt>
<pdfrwt beam="1">  1       21 0.77357037E-01 0.12500000E+03</pdfrwt>
<pdfrwt beam="2">  1       21 0.11951805E-02 0.12500000E+03</pdfrwt>
<totfact> 0.41475545E+06</totfact>
</mgrwt>
</event>
<event>
 3    0  0.1512530E+001  0.1250000E+03  0.7546771E-02  0.1235069E+00
         21   -1    0    0  502  501  0.00000000000E+00  0.00000000000E+00  0.10078362204E+02  0.10078362204E+02  0.00000000000E+00 0. -1.
         21   -1    0    0  501  502 -0.00000000000E+00 -0.00000000000E+00 -0.38758777674E+03  0.38758777674E+03  0.00000000000E+00 0. -1.
         25    1    1    2    0    0  0.00000000000E+00  0.00000000000E+00 -0.37750941454E+03  0.39766613895E+03  0.12500000000E+03 0.  0.
<mgrwt>
<rscale>  2 0.12500000E+03</rscale>
<asrwt>0</asrwt>
<pdfrwt beam="1">  1       21 0.15505172E-02 0.12500000E+03</pdfrwt>
<pdfrwt beam="2">  1       21 0.59628890E-01 0.12500000E+03</pdfrwt>
<totfact> 0.48196539E+06</totfact>
</mgrwt>
</event>
<event>
 3    0  0.1473360E+001  0.1250000E+03  0.7546771E-02  0.1235069E+00
         21   -1    0    0  502  501  0.00000000000E+00  0.00000000000E+00  0.83952420231E+01  0.83952420231E+01  0.00000000000E+00 0.  1.
         21   -1    0    0  501  502 -0.00000000000E+00 -0.00000000000E+00 -0.46529331605E+03  0.46529331605E+03  0.00000000000E+00 0.  1.
         25    1    1    2    0    0  0.00000000000E+00  0.00000000000E+00 -0.45689807403E+03  0.47368855808E+03  0.12500000000E+03 0.  0.
<mgrwt>
<rscale>  2 0.12500000E+03</rscale>
<asrwt>0</asrwt>
<pdfrwt beam="1">  1       21 0.12915753E-02 0.12500000E+03</pdfrwt>
<pdfrwt beam="2">  1       21 0.71583608E-01 0.12500000E+03</pdfrwt>
<totfact> 0.43507903E+06</totfact>
</mgrwt>
</event>
<event>
 3    0  0.1563618E+001  0.1250000E+03  0.7546771E-02  0.1235069E+00
         21   -1    0    0  502  501  0.00000000000E+00  0.00000000000E+00  0.12534020576E+02  0.12534020576E+02  0.00000000000E+00 0. -1.
         21   -1    0    0  501  502 -0.00000000000E+00 -0.00000000000E+00 -0.31165179411E+03  0.31165179411E+03  0.00000000000E+00 0. -1.
         25    1    1    2    0    0  0.00000000000E+00  0.00000000000E+00 -0.29911777353E+03  0.32418581468E+03  0.12500000000E+03 0.  0.
<mgrwt>
<rscale>  2 0.12500000E+03</rscale>
<asrwt>0</asrwt>
<pdfrwt beam="1">  1       21 0.19283109E-02 0.12500000E+03</pdfrwt>
<pdfrwt beam="2">  1       21 0.47946428E-01 0.12500000E+03</pdfrwt>
<totfact> 0.53503297E+06</totfact>
</mgrwt>
</event>
<event>
 3    0  0.1484117E+001  0.1250000E+03  0.7546771E-02  0.1235069E+00
         21   -1    0    0  502  501  0.00000000000E+00  0.00000000000E+00  0.40080256522E+03  0.40080256522E+03  0.00000000000E+00 0. -1.
         21   -1    0    0  501  502 -0.00000000000E+00 -0.00000000000E+00 -0.97460703572E+01  0.97460703572E+01  0.00000000000E+00 0. -1.
         25    1    1    2    0    0  0.00000000000E+00  0.00000000000E+00  0.39105649487E+03  0.41054863558E+03  0.12500000000E+03 0.  0.
<mgrwt>
<rscale>  2 0.12500000E+03</rscale>
<asrwt>0</asrwt>
<pdfrwt beam="1">  1       21 0.61661920E-01 0.12500000E+03</pdfrwt>
<pdfrwt beam="2">  1       21 0.14993958E-02 0.12500000E+03</pdfrwt>
<totfact> 0.47349458E+06</totfact>
</mgrwt>
</event>
<event>
 3    0  0.1690527E+001  0.1250000E+03  0.7546771E-02  0.1235069E+00
         21   -1    0    0  502  501  0.00000000000E+00  0.00000000000E+00  0.27540408710E+02  0.27540408710E+02  0.00000000000E+00 0.  1.
         21   -1    0    0  501  502 -0.00000000000E+00 -0.00000000000E+00 -0.14183703812E+03  0.14183703812E+03  0.00000000000E+00 0.  1.
         25    1    1    2    0    0  0.00000000000E+00  0.00000000000E+00 -0.11429662941E+03  0.16937744683E+03  0.12500000000E+03 0.  0.
<mgrwt>
<rscale>  2 0.12500000E+03</rscale>
<asrwt>0</asrwt>
<pdfrwt beam="1">  1       21 0.42369860E-02 0.12500000E+03</pdfrwt>
<pdfrwt beam="2">  1       21 0.21821083E-01 0.12500000E+03</pdfrwt>
<totfact> 0.68391439E+06</totfact>
</mgrwt>
</event>
<event>
 3    0  0.1717295E+001  0.1250000E+03  0.7546771E-02  0.1235069E+00
         21   -1    0    0  502  501  0.00000000000E+00  0.00000000000E+00  0.50546285211E+02  0.50546285211E+02  0.00000000000E+00 0.  1.
         21   -1    0    0  501  502 -0.00000000000E+00 -0.00000000000E+00 -0.77280654428E+02  0.77280654428E+02  0.00000000000E+00 0.  1.
         25    1    1    2    0    0  0.00000000000E+00  0.00000000000E+00 -0.26734369217E+02  0.12782693964E+03  0.12500000000E+03 0.  0.
<mgrwt>
<rscale>  2 0.12500000E+03</rscale>
<asrwt>0</asrwt>
<pdfrwt beam="1">  1       21 0.77763516E-02 0.12500000E+03</pdfrwt>
<pdfrwt beam="2">  1       21 0.11889331E-01 0.12500000E+03</pdfrwt>
<totfact> 0.73656951E+06</totfact>
</mgrwt>
</event>
<event>
 3    0  0.1719540E+001  0.1250000E+03  0.7546771E-02  0.1235069E+00
         21   -1    0    0  502  501  0.00000000000E+00  0.00000000000E+00  0.59757761879E+02  0.59757761879E+02  0.00000000000E+00 0.  1.
         21   -1    0    0  501  502 -0.00000000000E+00 -0.00000000000E+00 -0.65368077337E+02  0.65368077337E+02  0.00000000000E+00 0.  1.
         25    1    1    2    0    0  0.00000000000E+00  0.00000000000E+00 -0.56103154587E+01  0.12512583922E+03  0.12500000000E+03 0.  0.
<mgrwt>
<rscale>  2 0.12500000E+03</rscale>
<asrwt>0</asrwt>
<pdfrwt beam="1">  1       21 0.91935018E-02 0.12500000E+03</pdfrwt>
<pdfrwt beam="2">  1       21 0.10056627E-01 0.12500000E+03</pdfrwt>
<totfact> 0.74026586E+06</totfact>
</mgrwt>
</event>
<event>
 3    0  0.1371230E+001  0.1250000E+03  0.7546771E-02  0.1235069E+00
         21   -1    0    0  502  501  0.00000000000E+00  0.00000000000E+00  0.61094563370E+01  0.61094563370E+01  0.00000000000E+00 0. -1.
         21   -1    0    0  501  502 -0.00000000000E+00 -0.00000000000E+00 -0.63937767692E+03  0.63937767692E+03  0.00000000000E+00 0. -1.
         25    1    1    2    0    0  0.00000000000E+00  0.00000000000E+00 -0.63326822058E+03  0.64548713326E+03  0.12500000000E+03 0.  0.
<mgrwt>
<rscale>  2 0.12500000E+03</rscale>
<asrwt>0</asrwt>
<pdfrwt beam="1">  1       21 0.93991604E-03 0.12500000E+03</pdfrwt>
<pdfrwt beam="2">  1       21 0.98365830E-01 0.12500000E+03</pdfrwt>
<totfact> 0.35112909E+06</totfact>
</mgrwt>
</event>
<event>
 3    0  0.1368989E+001  0.1250000E+03  0.7546771E-02  0.1235069E+00
         21   -1    0    0  502  501  0.00000000000E+00  0.00000000000E+00  0.37093845335E+01  0.37093845335E+01  0.00000000000E+00 0. -1.
         21   -1    0    0  501  502 -0.00000000000E+00 -0.00000000000E+00 -0.10530722724E+04  0.10530722724E+04  0.00000000000E+00 0. -1.
         25    1    1    2    0    0  0.00000000000E+00  0.00000000000E+00 -0.10493628879E+04  0.10567816570E+04  0.12500000000E+03 0.  0.
<mgrwt>
<rscale>  2 0.12500000E+03</rscale>
<asrwt>0</asrwt>
<pdfrwt beam="1">  1       21 0.57067413E-03 0.12500000E+03</pdfrwt>
<pdfrwt beam="2">  1       21 0.16201124E+00 0.12500000E+03</pdfrwt>
<totfact> 0.22239046E+06</totfact>
</mgrwt>
</event>
<event>
 3    0  0.1660701E+001  0.1250000E+03  0.7546771E-02  0.1235069E+00
         21   -1    0    0  502  501  0.00000000000E+00  0.00000000000E+00  0.12908966896E+03  0.12908966896E+03  0.00000000000E+00 0. -1.
         21   -1    0    0  501  502 -0.00000000000E+00 -0.00000000000E+00 -0.30259973795E+02  0.30259973795E+02  0.00000000000E+00 0. -1.
         25    1    1    2    0    0  0.00000000000E+00  0.00000000000E+00  0.98829695168E+02  0.15934964276E+03  0.12500000000E+03 0.  0.
<mgrwt>
<rscale>  2 0.12500000E+03</rscale>
<asrwt>0</asrwt>
<pdfrwt beam="1">  1       21 0.19859949E-01 0.12500000E+03</pdfrwt>
<pdfrwt beam="2">  1       21 0.46553807E-02 0.12500000E+03</pdfrwt>
<totfact> 0.69599050E+06</totfact>
</mgrwt>
</event>
<event>
 3    0  0.1368989E+001  0.1250000E+03  0.7546771E-02  0.1235069E+00
         21   -1    0    0  502  501  0.00000000000E+00  0.00000000000E+00  0.12342055814E+04  0.12342055814E+04  0.00000000000E+00 0. -1.
         21   -1    0    0  501  502 -0.00000000000E+00 -0.00000000000E+00 -0.31649913587E+01  0.31649913587E+01  0.00000000000E+00 0. -1.
         25    1    1    2    0    0  0.00000000000E+00  0.00000000000E+00  0.12310405901E+04  0.12373705728E+04  0.12500000000E+03 0.  0.
<mgrwt>
<rscale>  2 0.12500000E+03</rscale>
<asrwt>0</asrwt>
<pdfrwt beam="1">  1       21 0.18987740E+00 0.12500000E+03</pdfrwt>
<pdfrwt beam="2">  1       21 0.48692273E-03 0.12500000E+03</pdfrwt>
<totfact> 0.18414265E+06</totfact>
</mgrwt>
</event>
<event>
 3    0  0.1368989E+001  0.1250000E+03  0.7546771E-02  0.1235069E+00
         21   -1    0    0  502  501  0.00000000000E+00  0.00000000000E+00  0.34633921021E+01  0.34633921021E+01  0.00000000000E+00 0. -1.
         21   -1    0    0  501  502 -0.00000000000E+00 -0.00000000000E+00 -0.11278682531E+04  0.11278682531E+04  0.00000000000E+00 0. -1.
         25    1    1    2    0    0  0.00000000000E+00  0.00000000000E+00 -0.11244048610E+04  0.11313316452E+04  0.12500000000E+03 0.  0.
<mgrwt>
<rscale>  2 0.12500000E+03</rscale>
<asrwt>0</asrwt>
<pdfrwt beam="1">  1       21 0.53282991E-03 0.12500000E+03</pdfrwt>
<pdfrwt beam="2">  1       21 0.17351808E+00 0.12500000E+03</pdfrwt>
<totfact> 0.20567685E+06</totfact>
</mgrwt>
</event>
<event>
 3    0  0.1691679E+001  0.1250000E+03  0.7546771E-02  0.1235069E+00
         21   -1    0    0  502  501  0.00000000000E+00  0.00000000000E+00  0.12277044891E+03  0.12277044891E+03  0.00000000000E+00 0.  1.
         21   -1    0    0  501  502 -0.00000000000E+00 -0.00000000000E+00 -0.31817510114E+02  0.31817510114E+02  0.00000000000E+00 0.  1.
         25    1    1    2    0    0  0.00000000000E+00  0.00000000000E+00  0.90952938799E+02  0.15458795903E+03  0.12500000000E+03 0.  0.
<mgrwt>
<rscale>  2 0.12500000E+03</rscale>
<asrwt>0</asrwt>
<pdfrwt beam="1">  1       21 0.18887761E-01 0.12500000E+03</pdfrwt>
<pdfrwt beam="2">  1       21 0.48950016E-02 0.12500000E+03</pdfrwt>
<totfact> 0.70186906E+06</totfact>
</mgrwt>
</event>
<event>
 3    0  0.1368989E+001  0.1250000E+03  0.7546771E-02  0.1235069E+00
         21   -1    0    0  502  501  0.00000000000E+00  0.00000000000E+00  0.15820169051E+04  0.15820169051E+04  0.00000000000E+00 0. -1.
         21   -1    0    0  501  502 -0.00000000000E+00 -0.00000000000E+00 -0.24691581913E+01  0.24691581913E+01  0.00000000000E+00 0. -1.
         25    1    1    2    0    0  0.00000000000E+00  0.00000000000E+00  0.15795477469E+04  0.15844860633E+04  0.12500000000E+03 0.  0.
<mgrwt>
<rscale>  2 0.12500000E+03</rscale>
<asrwt>0</asrwt>
<pdfrwt beam="1">  1       21 0.24338641E+00 0.12500000E+03</pdfrwt>
<pdfrwt beam="2">  1       21 0.37987176E-03 0.12500000E+03</pdfrwt>
<totfact> 0.12785769E+06</totfact>
</mgrwt>
</event>
<event>
 3    0  0.1644928E+001  0.1250000E+03  0.7546771E-02  0.1235069E+00
         21   -1    0    0  502  501  0.00000000000E+00  0.00000000000E+00  0.23011522361E+02  0.23011522361E+02  0.00000000000E+00 0. -1.
         21   -1    0    0  501  502 -0.00000000000E+00 -0.00000000000E+00 -0.16975191553E+03  0.16975191553E+03  0.00000000000E+00 0. -1.
         25    1    1    2    0    0  0.00000000000E+00  0.00000000000E+00 -0.14674039317E+03  0.19276343789E+03  0.12500000000E+03 0.  0.
<mgrwt>
<rscale>  2 0.12500000E+03</rscale>
<asrwt>0</asrwt>
<pdfrwt beam="1">  1       21 0.35402341E-02 0.12500000E+03</pdfrwt>
<pdfrwt beam="2">  1       21 0.26115680E-01 0.12500000E+03</pdfrwt>
<totfact> 0.65716642E+06</totfact>
</mgrwt>
</event>
<event>
 3    0  0.1368989E+001  0.1250000E+03  0.7546771E-02  0.1235069E+00
         21   -1    0    0  502  501  0.00000000000E+00  0.00000000000E+00  0.24539743294E+01  0.24539743294E+01  0.00000000000E+00 0.  1.
         21   -1    0    0  501  502 -0.00000000000E+00 -0.00000000000E+00 -0.15918055675E+04  0.15918055675E+04  0.00000000000E+00 0.  1.
         25    1    1    2    0    0  0.00000000000E+00  0.00000000000E+00 -0.15893515932E+04  0.15942595418E+04  0.12500000000E+03 0.  0.
<mgrwt>
<rscale>  2 0.12500000E+03</rscale>
<asrwt>0</asrwt>
<pdfrwt beam="1">  1       21 0.37753381E-03 0.12500000E+03</pdfrwt>
<pdfrwt beam="2">  1       21 0.24489362E+00 0.12500000E+03</pdfrwt>
<totfact> 0.12651782E+06</totfact>
</mgrwt>
</event>
<event>
 3    0  0.1368989E+001  0.1250000E+03  0.7546771E-02  0.1235069E+00
         21   -1    0    0  502  501  0.00000000000E+00  0.00000000000E+00  0.23158617454E+01  0.23158617454E+01  0.00000000000E+00 0. -1.
         21   -1    0    0  501  502 -0.00000000000E+00 -0.00000000000E+00 -0.16867371326E+04  0.16867371326E+04  0.00000000000E+00 0. -1.
         25    1    1    2    0    0  0.00000000000E+00  0.00000000000E+00 -0.16844212709E+04  0.16890529944E+04  0.12500000000E+03 0.  0.
<mgrwt>
<rscale>  2 0.12500000E+03</rscale>
<asrwt>0</asrwt>
<pdfrwt beam="1">  1       21 0.35628597E-03 0.12500000E+03</pdfrwt>
<pdfrwt beam="2">  1       21 0.25949835E+00 0.12500000E+03</pdfrwt>
<totfact> 0.11407094E+06</totfact>
</mgrwt>
</event>
<event>
 3    0  0.1368989E+001  0.1250000E+03  0.7546771E-02  0.1235069E+00
         21   -1    0    0  502  501  0.00000000000E+00  0.00000000000E+00  0.97812951454E+03  0.97812951454E+03  0.00000000000E+00 0.  1.
         21   -1    0    0  501  502 -0.00000000000E+00 -0.00000000000E+00 -0.39935917912E+01  0.39935917912E+01  0.00000000000E+00 0.  1.
         25    1    1    2    0    0  0.00000000000E+00  0.00000000000E+00  0.97413592274E+03  0.98212310633E+03  0.12500000000E+03 0.  0.
<mgrwt>
<rscale>  2 0.12500000E+03</rscale>
<asrwt>0</asrwt>
<pdfrwt beam="1">  1       21 0.15048127E+00 0.12500000E+03</pdfrwt>
<pdfrwt beam="2">  1       21 0.61439952E-03 0.12500000E+03</pdfrwt>
<totfact> 0.24070651E+06</totfact>
</mgrwt>
</event>
<event>
 3    0  0.1685511E+001  0.1250000E+03  0.7546771E-02  0.1235069E+00
         21   -1    0    0  502  501  0.00000000000E+00  0.00000000000E+00  0.14339097665E+03  0.14339097665E+03  0.00000000000E+00 0.  1.
         21   -1    0    0  501  502 -0.00000000000E+00 -0.00000000000E+00 -0.27241951280E+02  0.27241951280E+02  0.00000000000E+00 0.  1.
         25    1    1    2    0    0  0.00000000000E+00  0.00000000000E+00  0.11614902537E+03  0.17063292793E+03  0.12500000000E+03 0.  0.
<mgrwt>
<rscale>  2 0.12500000E+03</rscale>
<asrwt>0</asrwt>
<pdfrwt beam="1">  1       21 0.22060150E-01 0.12500000E+03</pdfrwt>
<pdfrwt beam="2">  1       21 0.41910695E-02 0.12500000E+03</pdfrwt>
<totfact> 0.68242685E+06</totfact>
</mgrwt>
</event>
<event>
 3    0  0.1368989E+001  0.1250000E+03  0.7546771E-02  0.1235069E+00
         21   -1    0    0  502  501  0.00000000000E+00  0.00000000000E+00  0.55633359147E+01  0.55633359147E+01  0.00000000000E+00 0. -1.
         21   -1    0    0  501  502 -0.00000000000E+00 -0.00000000000E+00 -0.70214167541E+03  0.70214167541E+03  0.00000000000E+00 0. -1.
         25    1    1    2    0    0  0.00000000000E+00  0.00000000000E+00 -0.69657833949E+03  0.70770501132E+03  0.12500000000E+03 0.  0.
<mgrwt>
<rscale>  2 0.12500000E+03</rscale>
<asrwt>0</asrwt>
<pdfrwt beam="1">  1       21 0.85589852E-03 0.12500000E+03</pdfrwt>
<pdfrwt beam="2">  1       21 0.10802171E+00 0.12500000E+03</pdfrwt>
<totfact> 0.32615217E+06</totfact>
</mgrwt>
</event>
<event>
 3    0  0.1477764E+001  0.1250000E+03  0.7546771E-02  0.1235069E+00
         21   -1    0    0  502  501  0.00000000000E+00  0.00000000000E+00  0.52115832609E+03  0.52115832609E+03  0.00000000000E+00 0.  1.
         21   -1    0    0  501  502 -0.00000000000E+00 -0.00000000000E+00 -0.74953230227E+01  0.74953230227E+01  0.00000000000E+00 0.  1.
         25    1    1    2    0    0  0.00000000000E+00  0.00000000000E+00  0.51366300306E+03  0.52865364911E+03  0.12500000000E+03 0.  0.
<mgrwt>
<rscale>  2 0.12500000E+03</rscale>
<asrwt>0</asrwt>
<pdfrwt beam="1">  1       21 0.80178176E-01 0.12500000E+03</pdfrwt>
<pdfrwt beam="2">  1       21 0.11531270E-02 0.12500000E+03</pdfrwt>
<totfact> 0.40531575E+06</totfact>
</mgrwt>
</event>
<event>
 3    0  0.1472562E+001  0.1250000E+03  0.7546771E-02  0.1235069E+00
         21   -1    0    0  502  501  0.00000000000E+00  0.00000000000E+00  0.80387772024E+01  0.80387772024E+01  0.00000000000E+00 0.  1.
         21   -1    0    0  501  502 -0.00000000000E+00 -0.00000000000E+00 -0.48592589416E+03  0.48592589416E+03  0.00000000000E+00 0.  1.
         25    1    1    2    0    0  0.00000000000E+00  0.00000000000E+00 -0.47788711695E+03  0.49396467136E+03  0.12500000000E+03 0.  0.
<mgrwt>
<rscale>  2 0.12500000E+03</rscale>
<asrwt>0</asrwt>
<pdfrwt beam="1">  1       21 0.12367356E-02 0.12500000E+03</pdfrwt>
<pdfrwt beam="2">  1       21 0.74757788E-01 0.12500000E+03</pdfrwt>
<totfact> 0.42373297E+06</totfact>
</mgrwt>
</event>
<event>
 3    0  0.1368989E+001  0.1250000E+03  0.7546771E-02  0.1235069E+00
         21   -1    0    0  502  501  0.00000000000E+00  0.00000000000E+00  0.18845827678E+01  0.18845827678E+01  0.00000000000E+00 0. -1.
         21   -1    0    0  501  502 -0.00000000000E+00 -0.00000000000E+00 -0.20727399543E+04  0.20727399543E+04  0.00000000000E+00 0. -1.
         25    1    1    2    0    0  0.00000000000E+00  0.00000000000E+00 -0.20708553716E+04  0.20746245371E+04  0.12500000000E+03 0.  0.
<mgrwt>
<rscale>  2 0.12500000E+03</rscale>
<asrwt>0</asrwt>
<pdfrwt beam="1">  1       21 0.28993533E-03 0.12500000E+03</pdfrwt>
<pdfrwt beam="2">  1       21 0.31888360E+00 0.12500000E+03</pdfrwt>
<totfact> 0.72430599E+05</totfact>
</mgrwt>
</event>
<event>
 3    0  0.1545345E+001  0.1250000E+03  0.7546771E-02  0.1235069E+00
         21   -1    0    0  502  501  0.00000000000E+00  0.00000000000E+00  0.38139910531E+03  0.38139910531E+03  0.00000000000E+00 0.  1.
         21   -1    0    0  501  502 -0.00000000000E+00 -0.00000000000E+00 -0.10241896076E+02  0.10241896076E+02  0.00000000000E+00 0.  1.
         25    1    1    2    0    0  0.00000000000E+00  0.00000000000E+00  0.37115720923E+03  0.39164100138E+03  0.12500000000E+03 0.  0.
<mgrwt>
<rscale>  2 0.12500000E+03</rscale>
<asrwt>0</asrwt>
<pdfrwt beam="1">  1       21 0.58676774E-01 0.12500000E+03</pdfrwt>
<pdfrwt beam="2">  1       21 0.15756766E-02 0.12500000E+03</pdfrwt>
<totfact> 0.48600786E+06</totfact>
</mgrwt>
</event>
<event>
 3    0  0.1641715E+001  0.1250000E+03  0.7546771E-02  0.1235069E+00
         21   -1    0    0  502  501  0.00000000000E+00  0.00000000000E+00  0.17678964888E+03  0.17678964888E+03  0.00000000000E+00 0. -1.
         21   -1    0    0  501  502 -0.00000000000E+00 -0.00000000000E+00 -0.22095467833E+02  0.22095467833E+02  0.00000000000E+00 0. -1.
         25    1    1    2    0    0  0.00000000000E+00  0.00000000000E+00  0.15469418104E+03  0.19888511671E+03  0.12500000000E+03 0.  0.
<mgrwt>
<rscale>  2 0.12500000E+03</rscale>
<asrwt>0</asrwt>
<pdfrwt beam="1">  1       21 0.27198407E-01 0.12500000E+03</pdfrwt>
<pdfrwt beam="2">  1       21 0.33993029E-02 0.12500000E+03</pdfrwt>
<totfact> 0.65048257E+06</totfact>
</mgrwt>
</event>
<event>
 3    0  0.1578406E+001  0.1250000E+03  0.7546771E-02  0.1235069E+00
         21   -1    0    0  502  501  0.00000000000E+00  0.00000000000E+00  0.26297624198E+03  0.26297624198E+03  0.00000000000E+00 0. -1.
         21   -1    0    0  501  502 -0.00000000000E+00 -0.00000000000E+00 -0.14854003429E+02  0.14854003429E+02  0.00000000000E+00 0. -1.
         25    1    1    2    0    0  0.00000000000E+00  0.00000000000E+00  0.24812223855E+03  0.27783024541E+03  0.12500000000E+03 0.  0.
<mgrwt>
<rscale>  2 0.12500000E+03</rscale>
<asrwt>0</asrwt>
<pdfrwt beam="1">  1       21 0.40457880E-01 0.12500000E+03</pdfrwt>
<pdfrwt beam="2">  1       21 0.22852315E-02 0.12500000E+03</pdfrwt>
<totfact> 0.57350405E+06</totfact>
</mgrwt>
</event>
<event>
 3    0  0.1655223E+001  0.1250000E+03  0.7546771E-02  0.1235069E+00
         21   -1    0    0  502  501  0.00000000000E+00  0.00000000000E+00  0.14608343520E+03  0.14608343520E+03  0.00000000000E+00 0. -1.
         21   -1    0    0  501  502 -0.00000000000E+00 -0.00000000000E+00 -0.26739855854E+02  0.26739855854E+02  0.00000000000E+00 0. -1.
         25    1    1    2    0    0  0.00000000000E+00  0.00000000000E+00  0.11934357935E+03  0.17282329106E+03  0.12500000000E+03 0.  0.
<mgrwt>
<rscale>  2 0.12500000E+03</rscale>
<asrwt>0</asrwt>
<pdfrwt beam="1">  1       21 0.22474374E-01 0.12500000E+03</pdfrwt>
<pdfrwt beam="2">  1       21 0.41138240E-02 0.12500000E+03</pdfrwt>
<totfact> 0.67984517E+06</totfact>
</mgrwt>
</event>
<event>
 3    0  0.1368989E+001  0.1250000E+03  0.7546771E-02  0.1235069E+00
         21   -1    0    0  502  501  0.00000000000E+00  0.00000000000E+00  0.37727227923E+01  0.37727227923E+01  0.00000000000E+00 0.  1.
         21   -1    0    0  501  502 -0.00000000000E+00 -0.00000000000E+00 -0.10353927959E+04  0.10353927959E+04  0.00000000000E+00 0.  1.
         25    1    1    2    0    0  0.00000000000E+00  0.00000000000E+00 -0.10316200731E+04  0.10391655187E+04  0.12500000000E+03 0.  0.
<mgrwt>
<rscale>  2 0.12500000E+03</rscale>
<asrwt>0</asrwt>
<pdfrwt beam="1">  1       21 0.58041803E-03 0.12500000E+03</pdfrwt>
<pdfrwt beam="2">  1       21 0.15929144E+00 0.12500000E+03</pdfrwt>
<totfact> 0.22657415E+06</totfact>
</mgrwt>
</event>
<event>
 3    0  0.1410468E+001  0.1250000E+03  0.7546771E-02  0.1235069E+00
         21   -1    0    0  502  501  0.00000000000E+00  0.00000000000E+00  0.70097231595E+01  0.70097231595E+01  0.00000000000E+00 0.  1.
         21   -1    0    0  501  502 -0.00000000000E+00 -0.00000000000E+00 -0.55726166514E+03  0.55726166514E+03  0.00000000000E+00 0.  1.
         25    1    1    2    0    0  0.00000000000E+00  0.00000000000E+00 -0.55025194198E+03  0.56427138830E+03  0.12500000000E+03 0.  0.
<mgrwt>
<rscale>  2 0.12500000E+03</rscale>
<asrwt>0</asrwt>
<pdfrwt beam="1">  1       21 0.10784188E-02 0.12500000E+03</pdfrwt>
<pdfrwt beam="2">  1       21 0.85732578E-01 0.12500000E+03</pdfrwt>
<totfact> 0.38759921E+06</totfact>
</mgrwt>
</event>
<event>
 3    0  0.1368989E+001  0.1250000E+03  0.7546771E-02  0.1235069E+00
         21   -1    0    0  502  501  0.00000000000E+00  0.00000000000E+00  0.64853127411E+03  0.64853127411E+03  0.00000000000E+00 0. -1.
         21   -1    0    0  501  502 -0.00000000000E+00 -0.00000000000E+00 -0.60232253338E+01  0.60232253338E+01  0.00000000000E+00 0. -1.
         25    1    1    2    0    0  0.00000000000E+00  0.00000000000E+00  0.64250804878E+03  0.65455449945E+03  0.12500000000E+03 0.  0.
<mgrwt>
<rscale>  2 0.12500000E+03</rscale>
<asrwt>0</asrwt>
<pdfrwt beam="1">  1       21 0.99773987E-01 0.12500000E+03</pdfrwt>
<pdfrwt beam="2">  1       21 0.92665056E-03 0.12500000E+03</pdfrwt>
<totfact> 0.34735836E+06</totfact>
</mgrwt>
</event>
<event>
 3    0  0.1368989E+001  0.1250000E+03  0.7546771E-02  0.1235069E+00
         21   -1    0    0  502  501  0.00000000000E+00  0.00000000000E+00  0.10741170938E+04  0.10741170938E+04  0.00000000000E+00 0. -1.
         21   -1    0    0  501  502 -0.00000000000E+00 -0.00000000000E+00 -0.36367077877E+01  0.36367077877E+01  0.00000000000E+00 0. -1.
         25    1    1    2    0    0  0.00000000000E+00  0.00000000000E+00  0.10704803860E+04  0.10777538016E+04  0.12500000000E+03 0.  0.
<mgrwt>
<rscale>  2 0.12500000E+03</rscale>
<asrwt>0</asrwt>
<pdfrwt beam="1">  1       21 0.16524853E+00 0.12500000E+03</pdfrwt>
<pdfrwt beam="2">  1       21 0.55949436E-03 0.12500000E+03</pdfrwt>
<totfact> 0.21753102E+06</totfact>
</mgrwt>
</event>
<event>
 3    0  0.1603575E+001  0.1250000E+03  0.7546771E-02  0.1235069E+00
         21   -1    0    0  502  501  0.00000000000E+00  0.00000000000E+00  0.25204291509E+03  0.25204291509E+03  0.00000000000E+00 0. -1.
         21   -1    0    0  501  502 -0.00000000000E+00 -0.00000000000E+00 -0.15498352725E+02  0.15498352725E+02  0.00000000000E+00 0. -1.
         25    1    1    2    0    0  0.00000000000E+00  0.00000000000E+00  0.23654456237E+03  0.26754126782E+03  0.12500000000E+03 0.  0.
<mgrwt>
<rscale>  2 0.12500000E+03</rscale>
<asrwt>0</asrwt>
<pdfrwt beam="1">  1       21 0.38775830E-01 0.12500000E+03</pdfrwt>
<pdfrwt beam="2">  1       21 0.23843621E-02 0.12500000E+03</pdfrwt>
<totfact> 0.58264896E+06</totfact>
</mgrwt>
</event>
<event>
 3    0  0.1695136E+001  0.1250000E+03  0.7546771E-02  0.1235069E+00
         21   -1    0    0  502  501  0.00000000000E+00  0.00000000000E+00  0.27925408195E+02  0.27925408195E+02  0.00000000000E+00 0.  1.
         21   -1    0    0  501  502 -0.00000000000E+00 -0.00000000000E+00 -0.13988157210E+03  0.13988157210E+03  0.00000000000E+00 0.  1.
         25    1    1    2    0    0  0.00000000000E+00  0.00000000000E+00 -0.11195616391E+03  0.16780698030E+03  0.12500000000E+03 0.  0.
<mgrwt>
<rscale>  2 0.12500000E+03</rscale>
<asrwt>0</asrwt>
<pdfrwt beam="1">  1       21 0.42962167E-02 0.12500000E+03</pdfrwt>
<pdfrwt beam="2">  1       21 0.21520242E-01 0.12500000E+03</pdfrwt>
<totfact> 0.68577926E+06</totfact>
</mgrwt>
</event>
<event>
 3    0  0.1372911E+001  0.1250000E+03  0.7546771E-02  0.1235069E+00
         21   -1    0    0  502  501  0.00000000000E+00  0.00000000000E+00  0.52451211075E+01  0.52451211075E+01  0.00000000000E+00 0.  1.
         21   -1    0    0  501  502 -0.00000000000E+00 -0.00000000000E+00 -0.74473971524E+03  0.74473971524E+03  0.00000000000E+00 0.  1.
         25    1    1    2    0    0  0.00000000000E+00  0.00000000000E+00 -0.73949459413E+03  0.74998483634E+03  0.12500000000E+03 0.  0.
<mgrwt>
<rscale>  2 0.12500000E+03</rscale>
<asrwt>0</asrwt>
<pdfrwt beam="1">  1       21 0.80694149E-03 0.12500000E+03</pdfrwt>
<pdfrwt beam="2">  1       21 0.11457537E+00 0.12500000E+03</pdfrwt>
<totfact> 0.31069385E+06</totfact>
</mgrwt>
</event>
<event>
 3    0  0.1415950E+001  0.1250000E+03  0.7546771E-02  0.1235069E+00
         21   -1    0    0  502  501  0.00000000000E+00  0.00000000000E+00  0.68158475669E+01  0.68158475669E+01  0.00000000000E+00 0. -1.
         21   -1    0    0  501  502 -0.00000000000E+00 -0.00000000000E+00 -0.57311287579E+03  0.57311287579E+03  0.00000000000E+00 0. -1.
         25    1    1    2    0    0  0.00000000000E+00  0.00000000000E+00 -0.56629702822E+03  0.57992872335E+03  0.12500000000E+03 0.  0.
<mgrwt>
<rscale>  2 0.12500000E+03</rscale>
<asrwt>0</asrwt>
<pdfrwt beam="1">  1       21 0.10485919E-02 0.12500000E+03</pdfrwt>
<pdfrwt beam="2">  1       21 0.88171215E-01 0.12500000E+03</pdfrwt>
<totfact> 0.38016348E+06</totfact>
</mgrwt>
</event>
<event>
 3    0  0.1692089E+001  0.1250000E+03  0.7546771E-02  0.1235069E+00
         21   -1    0    0  502  501  0.00000000000E+00  0.00000000000E+00  0.48439960892E+02  0.48439960892E+02  0.00000000000E+00 0. -1.
         21   -1    0    0  501  502 -0.00000000000E+00 -0.00000000000E+00 -0.80641064279E+02  0.80641064279E+02  0.00000000000E+00 0. -1.
         25    1    1    2    0    0  0.00000000000E+00  0.00000000000E+00 -0.32201103387E+02  0.12908102517E+03  0.12500000000E+03 0.  0.
<mgrwt>
<rscale>  2 0.12500000E+03</rscale>
<asrwt>0</asrwt>
<pdfrwt beam="1">  1       21 0.74523017E-02 0.12500000E+03</pdfrwt>
<pdfrwt beam="2">  1       21 0.12406317E-01 0.12500000E+03</pdfrwt>
<totfact> 0.73488001E+06</totfact>
</mgrwt>
</event>
<event>
 3    0  0.1679914E+001  0.1250000E+03  0.7546771E-02  0.1235069E+00
         21   -1    0    0  502  501  0.00000000000E+00  0.00000000000E+00  0.10259053824E+03  0.10259053824E+03  0.00000000000E+00 0. -1.
         21   -1    0    0  501  502 -0.00000000000E+00 -0.00000000000E+00 -0.38076123463E+02  0.38076123463E+02  0.00000000000E+00 0. -1.
         25    1    1    2    0    0  0.00000000000E+00  0.00000000000E+00  0.64514414772E+02  0.14066666170E+03  0.12500000000E+03 0.  0.
<mgrwt>
<rscale>  2 0.12500000E+03</rscale>
<asrwt>0</asrwt>
<pdfrwt beam="1">  1       21 0.15783160E-01 0.12500000E+03</pdfrwt>
<pdfrwt beam="2">  1       21 0.58578652E-02 0.12500000E+03</pdfrwt>
<totfact> 0.71952396E+06</totfact>
</mgrwt>
</event>
<event>
 3    0  0.1603021E+001  0.1250000E+03  0.7546771E-02  0.1235069E+00
         21   -1    0    0  502  501  0.00000000000E+00  0.00000000000E+00  0.16289097833E+02  0.16289097833E+02  0.00000000000E+00 0. -1.
         21   -1    0    0  501  502 -0.00000000000E+00 -0.00000000000E+00 -0.23980763331E+03  0.23980763331E+03  0.00000000000E+00 0. -1.
         25    1    1    2    0    0  0.00000000000E+00  0.00000000000E+00 -0.22351853548E+03  0.25609673114E+03  0.12500000000E+03 0.  0.
<mgrwt>
<rscale>  2 0.12500000E+03</rscale>
<asrwt>0</asrwt>
<pdfrwt beam="1">  1       21 0.25060152E-02 0.12500000E+03</pdfrwt>
<pdfrwt beam="2">  1       21 0.36893480E-01 0.12500000E+03</pdfrwt>
<totfact> 0.59308894E+06</totfact>
</mgrwt>
</event>
<event>
 3    0  0.1368989E+001  0.1250000E+03  0.7546771E-02  0.1235069E+00
         21   -1    0    0  502  501  0.00000000000E+00  0.00000000000E+00  0.42308870511E+01  0.42308870511E+01  0.00000000000E+00 0.  1.
         21   -1    0    0  501  502 -0.00000000000E+00 -0.00000000000E+00 -0.92326974293E+03  0.92326974293E+03  0.00000000000E+00 0.  1.
         25    1    1    2    0    0  0.00000000000E+00  0.00000000000E+00 -0.91903885587E+03  0.92750062998E+03  0.12500000000E+03 0.  0.
<mgrwt>
<rscale>  2 0.12500000E+03</rscale>
<asrwt>0</asrwt>
<pdfrwt beam="1">  1       21 0.65090604E-03 0.12500000E+03</pdfrwt>
<pdfrwt beam="2">  1       21 0.14204142E+00 0.12500000E+03</pdfrwt>
<totfact> 0.25523636E+06</totfact>
</mgrwt>
</event>
<event>
 3    0  0.1611458E+001  0.1250000E+03  0.7546771E-02  0.1235069E+00
         21   -1    0    0  502  501  0.00000000000E+00  0.00000000000E+00  0.18871325214E+02  0.18871325214E+02  0.00000000000E+00 0. -1.
         21   -1    0    0  501  502 -0.00000000000E+00 -0.00000000000E+00 -0.20699394216E+03  0.20699394216E+03  0.00000000000E+00 0. -1.
         25    1    1    2    0    0  0.00000000000E+00  0.00000000000E+00 -0.18812261695E+03  0.22586526738E+03  0.12500000000E+03 0.  0.
<mgrwt>
<rscale>  2 0.12500000E+03</rscale>
<asrwt>0</asrwt>
<pdfrwt beam="1">  1       21 0.29032809E-02 0.12500000E+03</pdfrwt>
<pdfrwt beam="2">  1       21 0.31845221E-01 0.12500000E+03</pdfrwt>
<totfact> 0.62227879E+06</totfact>
</mgrwt>
</event>
<event>
 3    0  0.1455863E+001  0.1250000E+03  0.7546771E-02  0.1235069E+00
         21   -1    0    0  502  501  0.00000000000E+00  0.00000000000E+00  0.82307508829E+01  0.82307508829E+01  0.00000000000E+00 0.  1.
         21   -1    0    0  501  502 -0.00000000000E+00 -0.00000000000E+00 -0.47459217945E+03  0.47459217945E+03  0.00000000000E+00 0.  1.
         25    1    1    2    0    0  0.00000000000E+00  0.00000000000E+00 -0.46636142856E+03  0.48282293033E+03  0.12500000000E+03 0.  0.
<mgrwt>
<rscale>  2 0.12500000E+03</rscale>
<asrwt>0</asrwt>
<pdfrwt beam="1">  1       21 0.12662691E-02 0.12500000E+03</pdfrwt>
<pdfrwt beam="2">  1       21 0.73014194E-01 0.12500000E+03</pdfrwt>
<totfact> 0.42991203E+06</totfact>
</mgrwt>
</event>
<event>
 3    0  0.1423669E+001  0.1250000E+03  0.7546771E-02  0.1235069E+00
         21   -1    0    0  502  501  0.00000000000E+00  0.00000000000E+00  0.67297850481E+01  0.67297850481E+01  0.00000000000E+00 0.  1.
         21   -1    0    0  501  502 -0.00000000000E+00 -0.00000000000E+00 -0.58044201592E+03  0.58044201592E+03  0.00000000000E+00 0.  1.
         25    1    1    2    0    0  0.00000000000E+00  0.00000000000E+00 -0.57371223087E+03  0.58717180096E+03  0.12500000000E+03 0.  0.
<mgrwt>
<rscale>  2 0.12500000E+03</rscale>
<asrwt>0</asrwt>
<pdfrwt beam="1">  1       21 0.10353519E-02 0.12500000E+03</pdfrwt>
<pdfrwt beam="2">  1       21 0.89298739E-01 0.12500000E+03</pdfrwt>
<totfact> 0.37679280E+06</totfact>
</mgrwt>
</event>
<event>
 3    0  0.1698757E+001  0.1250000E+03  0.7546771E-02  0.1235069E+00
         21   -1    0    0  502  501  0.00000000000E+00  0.00000000000E+00  0.10832695855E+03  0.10832695855E+03  0.00000000000E+00 0.  1.
         21   -1    0    0  501  502 -0.00000000000E+00 -0.00000000000E+00 -0.36059814217E+02  0.36059814217E+02  0.00000000000E+00 0.  1.
         25    1    1    2    0    0  0.00000000000E+00  0.00000000000E+00  0.72267144331E+02  0.14438677277E+03  0.12500000000E+03 0.  0.
<mgrwt>
<rscale>  2 0.12500000E+03</rscale>
<asrwt>0</asrwt>
<pdfrwt beam="1">  1       21 0.16665686E-01 0.12500000E+03</pdfrwt>
<pdfrwt beam="2">  1       21 0.55476638E-02 0.12500000E+03</pdfrwt>
<totfact> 0.71471669E+06</totfact>
</mgrwt>
</event>
<event>
 3    0  0.1679212E+001  0.1250000E+03  0.7546771E-02  0.1235069E+00
         21   -1    0    0  502  501  0.00000000000E+00  0.00000000000E+00  0.10599110122E+03  0.10599110122E+03  0.00000000000E+00 0. -1.
         21   -1    0    0  501  502 -0.00000000000E+00 -0.00000000000E+00 -0.36854509059E+02  0.36854509059E+02  0.00000000000E+00 0. -1.
         25    1    1    2    0    0  0.00000000000E+00  0.00000000000E+00  0.69136592160E+02  0.14284561028E+03  0.12500000000E+03 0.  0.
<mgrwt>
<rscale>  2 0.12500000E+03</rscale>
<asrwt>0</asrwt>
<pdfrwt beam="1">  1       21 0.16306323E-01 0.12500000E+03</pdfrwt>
<pdfrwt beam="2">  1       21 0.56699245E-02 0.12500000E+03</pdfrwt>
<totfact> 0.71669962E+06</totfact>
</mgrwt>
</event>
<event>
 3    0  0.1368989E+001  0.1250000E+03  0.7546771E-02  0.1235069E+00
         21   -1    0    0  502  501  0.00000000000E+00  0.00000000000E+00  0.23328575718E+01  0.23328575718E+01  0.00000000000E+00 0.  1.
         21   -1    0    0  501  502 -0.00000000000E+00 -0.00000000000E+00 -0.16744485593E+04  0.16744485593E+04  0.00000000000E+00 0.  1.
         25    1    1    2    0    0  0.00000000000E+00  0.00000000000E+00 -0.16721157017E+04  0.16767814168E+04  0.12500000000E+03 0.  0.
<mgrwt>
<rscale>  2 0.12500000E+03</rscale>
<asrwt>0</asrwt>
<pdfrwt beam="1">  1       21 0.35890208E-03 0.12500000E+03</pdfrwt>
<pdfrwt beam="2">  1       21 0.25760682E+00 0.12500000E+03</pdfrwt>
<totfact> 0.11562727E+06</totfact>
</mgrwt>
</event>
<event>
 3    0  0.1386704E+001  0.1250000E+03  0.7546771E-02  0.1235069E+00
         21   -1    0    0  502  501  0.00000000000E+00  0.00000000000E+00  0.57085569297E+01  0.57085569297E+01  0.00000000000E+00 0.  1.
         21   -1    0    0  501  502 -0.00000000000E+00 -0.00000000000E+00 -0.68427976598E+03  0.68427976598E+03  0.00000000000E+00 0.  1.
         25    1    1    2    0    0  0.00000000000E+00  0.00000000000E+00 -0.67857120906E+03  0.68998832291E+03  0.12500000000E+03 0.  0.
<mgrwt>
<rscale>  2 0.12500000E+03</rscale>
<asrwt>0</asrwt>
<pdfrwt beam="1">  1       21 0.87823924E-03 0.12500000E+03</pdfrwt>
<pdfrwt beam="2">  1       21 0.10527384E+00 0.12500000E+03</pdfrwt>
<totfact> 0.33299702E+06</totfact>
</mgrwt>
</event>
<event>
 3    0  0.1437527E+001  0.1250000E+03  0.7546771E-02  0.1235069E+00
         21   -1    0    0  502  501  0.00000000000E+00  0.00000000000E+00  0.63856760887E+01  0.63856760887E+01  0.00000000000E+00 0.  1.
         21   -1    0    0  501  502 -0.00000000000E+00 -0.00000000000E+00 -0.61172066132E+03  0.61172066132E+03  0.00000000000E+00 0.  1.
         25    1    1    2    0    0  0.00000000000E+00  0.00000000000E+00 -0.60533498524E+03  0.61810633741E+03  0.12500000000E+03 0.  0.
<mgrwt>
<rscale>  2 0.12500000E+03</rscale>
<asrwt>0</asrwt>
<pdfrwt beam="1">  1       21 0.98241136E-03 0.12500000E+03</pdfrwt>
<pdfrwt beam="2">  1       21 0.94110904E-01 0.12500000E+03</pdfrwt>
<totfact> 0.36286379E+06</totfact>
</mgrwt>
</event>
<event>
 3    0  0.1540561E+001  0.1250000E+03  0.7546771E-02  0.1235069E+00
         21   -1    0    0  502  501  0.00000000000E+00  0.00000000000E+00  0.32255909252E+03  0.32255909252E+03  0.00000000000E+00 0. -1.
         21   -1    0    0  501  502 -0.00000000000E+00 -0.00000000000E+00 -0.12110184120E+02  0.12110184120E+02  0.00000000000E+00 0. -1.
         25    1    1    2    0    0  0.00000000000E+00  0.00000000000E+00  0.31044890840E+03  0.33466927664E+03  0.12500000000E+03 0.  0.
<mgrwt>
<rscale>  2 0.12500000E+03</rscale>
<asrwt>0</asrwt>
<pdfrwt beam="1">  1       21 0.49624469E-01 0.12500000E+03</pdfrwt>
<pdfrwt beam="2">  1       21 0.18631055E-02 0.12500000E+03</pdfrwt>
<totfact> 0.52690975E+06</totfact>
</mgrwt>
</event>
<event>
 3    0  0.1527953E+001  0.1250000E+03  0.7546771E-02  0.1235069E+00
         21   -1    0    0  502  501  0.00000000000E+00  0.00000000000E+00  0.10457581591E+02  0.10457581591E+02  0.00000000000E+00 0.  1.
         21   -1    0    0  501  502 -0.00000000000E+00 -0.00000000000E+00 -0.37353282552E+03  0.37353282552E+03  0.00000000000E+00 0.  1.
         25    1    1    2    0    0  0.00000000000E+00  0.00000000000E+00 -0.36307524393E+03  0.38399040711E+03  0.12500000000E+03 0.  0.
<mgrwt>
<rscale>  2 0.12500000E+03</rscale>
<asrwt>0</asrwt>
<pdfrwt beam="1">  1       21 0.16088587E-02 0.12500000E+03</pdfrwt>
<pdfrwt beam="2">  1       21 0.57466588E-01 0.12500000E+03</pdfrwt>
<totfact> 0.49121698E+06</totfact>
</mgrwt>
</event>
<event>
 3    0  0.1500590E+001  0.1250000E+03  0.7546771E-02  0.1235069E+00
         21   -1    0    0  502  501  0.00000000000E+00  0.00000000000E+00  0.96641510056E+01  0.96641510056E+01  0.00000000000E+00 0.  1.
         21   -1    0    0  501  502 -0.00000000000E+00 -0.00000000000E+00 -0.40420001692E+03  0.40420001692E+03  0.00000000000E+00 0.  1.
         25    1    1    2    0    0  0.00000000000E+00  0.00000000000E+00 -0.39453586591E+03  0.41386416793E+03  0.12500000000E+03 0.  0.
<mgrwt>
<rscale>  2 0.12500000E+03</rscale>
<asrwt>0</asrwt>
<pdfrwt beam="1">  1       21 0.14867925E-02 0.12500000E+03</pdfrwt>
<pdfrwt beam="2">  1       21 0.62184618E-01 0.12500000E+03</pdfrwt>
<totfact> 0.47135149E+06</totfact>
</mgrwt>
</event>
<event>
 3    0  0.1590898E+001  0.1250000E+03  0.7546771E-02  0.1235069E+00
         21   -1    0    0  502  501  0.00000000000E+00  0.00000000000E+00  0.13399882082E+02  0.13399882082E+02  0.00000000000E+00 0.  1.
         21   -1    0    0  501  502 -0.00000000000E+00 -0.00000000000E+00 -0.29151375932E+03  0.29151375932E+03  0.00000000000E+00 0.  1.
         25    1    1    2    0    0  0.00000000000E+00  0.00000000000E+00 -0.27811387723E+03  0.30491364140E+03  0.12500000000E+03 0.  0.
<mgrwt>
<rscale>  2 0.12500000E+03</rscale>
<asrwt>0</asrwt>
<pdfrwt beam="1">  1       21 0.20615203E-02 0.12500000E+03</pdfrwt>
<pdfrwt beam="2">  1       21 0.44848272E-01 0.12500000E+03</pdfrwt>
<totfact> 0.55050286E+06</totfact>
</mgrwt>
</event>
<event>
 3    0  0.1435559E+001  0.1250000E+03  0.7546771E-02  0.1235069E+00
         21   -1    0    0  502  501  0.00000000000E+00  0.00000000000E+00  0.82347907587E+01  0.82347907587E+01  0.00000000000E+00 0. -1.
         21   -1    0    0  501  502 -0.00000000000E+00 -0.00000000000E+00 -0.47435935101E+03  0.47435935101E+03  0.00000000000E+00 0. -1.
         25    1    1    2    0    0  0.00000000000E+00  0.00000000000E+00 -0.46612456025E+03  0.48259414177E+03  0.12500000000E+03 0.  0.
<mgrwt>
<rscale>  2 0.12500000E+03</rscale>
<asrwt>0</asrwt>
<pdfrwt beam="1">  1       21 0.12668908E-02 0.12500000E+03</pdfrwt>
<pdfrwt beam="2">  1       21 0.72978369E-01 0.12500000E+03</pdfrwt>
<totfact> 0.43004035E+06</totfact>
</mgrwt>
</event>
<event>
 3    0  0.1625998E+001  0.1250000E+03  0.7546771E-02  0.1235069E+00
         21   -1    0    0  502  501  0.00000000000E+00  0.00000000000E+00  0.20457140942E+02  0.20457140942E+02  0.00000000000E+00 0. -1.
         21   -1    0    0  501  502 -0.00000000000E+00 -0.00000000000E+00 -0.19094799274E+03  0.19094799274E+03  0.00000000000E+00 0. -1.
         25    1    1    2    0    0  0.00000000000E+00  0.00000000000E+00 -0.17049085180E+03  0.21140513368E+03  0.12500000000E+03 0.  0.
<mgrwt>
<rscale>  2 0.12500000E+03</rscale>
<asrwt>0</asrwt>
<pdfrwt beam="1">  1       21 0.31472526E-02 0.12500000E+03</pdfrwt>
<pdfrwt beam="2">  1       21 0.29376613E-01 0.12500000E+03</pdfrwt>
<totfact> 0.63712003E+06</totfact>
</mgrwt>
</event>
<event>
 3    0  0.1414857E+001  0.1250000E+03  0.7546771E-02  0.1235069E+00
         21   -1    0    0  502  501  0.00000000000E+00  0.00000000000E+00  0.62542325232E+03  0.62542325232E+03  0.00000000000E+00 0.  1.
         21   -1    0    0  501  502 -0.00000000000E+00 -0.00000000000E+00 -0.62457703411E+01  0.62457703411E+01  0.00000000000E+00 0.  1.
         25    1    1    2    0    0  0.00000000000E+00  0.00000000000E+00  0.61917748198E+03  0.63166902266E+03  0.12500000000E+03 0.  0.
<mgrwt>
<rscale>  2 0.12500000E+03</rscale>
<asrwt>0</asrwt>
<pdfrwt beam="1">  1       21 0.96218912E-01 0.12500000E+03</pdfrwt>
<pdfrwt beam="2">  1       21 0.96088824E-03 0.12500000E+03</pdfrwt>
<totfact> 0.35698517E+06</totfact>
</mgrwt>
</event>
<event>
 3    0  0.1707702E+001  0.1250000E+03  0.7546771E-02  0.1235069E+00
         21   -1    0    0  502  501  0.00000000000E+00  0.00000000000E+00  0.10076067722E+03  0.10076067722E+03  0.00000000000E+00 0.  1.
         21   -1    0    0  501  502 -0.00000000000E+00 -0.00000000000E+00 -0.38767603669E+02  0.38767603669E+02  0.00000000000E+00 0.  1.
         25    1    1    2    0    0  0.00000000000E+00  0.00000000000E+00  0.61993073553E+02  0.13952828089E+03  0.12500000000E+03 0.  0.
<mgrwt>
<rscale>  2 0.12500000E+03</rscale>
<asrwt>0</asrwt>
<pdfrwt beam="1">  1       21 0.15501642E-01 0.12500000E+03</pdfrwt>
<pdfrwt beam="2">  1       21 0.59642468E-02 0.12500000E+03</pdfrwt>
<totfact> 0.72100950E+06</totfact>
</mgrwt>
</event>
<event>
 3    0  0.1368989E+001  0.1250000E+03  0.7546771E-02  0.1235069E+00
         21   -1    0    0  502  501  0.00000000000E+00  0.00000000000E+00  0.72663884760E+03  0.72663884760E+03  0.00000000000E+00 0. -1.
         21   -1    0    0  501  502 -0.00000000000E+00 -0.00000000000E+00 -0.53757791961E+01  0.53757791961E+01  0.00000000000E+00 0. -1.
         25    1    1    2    0    0  0.00000000000E+00  0.00000000000E+00  0.72126306841E+03  0.73201462680E+03  0.12500000000E+03 0.  0.
<mgrwt>
<rscale>  2 0.12500000E+03</rscale>
<asrwt>0</asrwt>
<pdfrwt beam="1">  1       21 0.11179051E+00 0.12500000E+03</pdfrwt>
<pdfrwt beam="2">  1       21 0.82704353E-03 0.12500000E+03</pdfrwt>
<totfact> 0.31711797E+06</totfact>
</mgrwt>
</event>
<event>
 3    0  0.1646914E+001  0.1250000E+03  0.7546771E-02  0.1235069E+00
         21   -1    0    0  502  501  0.00000000000E+00  0.00000000000E+00  0.15265903211E+03  0.15265903211E+03  0.00000000000E+00 0. -1.
         21   -1    0    0  501  502 -0.00000000000E+00 -0.00000000000E+00 -0.25588070002E+02  0.25588070002E+02  0.00000000000E+00 0. -1.
         25    1    1    2    0    0  0.00000000000E+00  0.00000000000E+00  0.12707096211E+03  0.17824710211E+03  0.12500000000E+03 0.  0.
<mgrwt>
<rscale>  2 0.12500000E+03</rscale>
<asrwt>0</asrwt>
<pdfrwt beam="1">  1       21 0.23486004E-01 0.12500000E+03</pdfrwt>
<pdfrwt beam="2">  1       21 0.39366262E-02 0.12500000E+03</pdfrwt>
<totfact> 0.67353194E+06</totfact>
</mgrwt>
</event>
<event>
 3    0  0.1437908E+001  0.1250000E+03  0.7546771E-02  0.1235069E+00
         21   -1    0    0  502  501  0.00000000000E+00  0.00000000000E+00  0.73695946558E+01  0.73695946558E+01  0.00000000000E+00 0. -1.
         21   -1    0    0  501  502 -0.00000000000E+00 -0.00000000000E+00 -0.53004950508E+03  0.53004950508E+03  0.00000000000E+00 0. -1.
         25    1    1    2    0    0  0.00000000000E+00  0.00000000000E+00 -0.52267991043E+03  0.53741909974E+03  0.12500000000E+03 0.  0.
<mgrwt>
<rscale>  2 0.12500000E+03</rscale>
<asrwt>0</asrwt>
<pdfrwt beam="1">  1       21 0.11337836E-02 0.12500000E+03</pdfrwt>
<pdfrwt beam="2">  1       21 0.81546094E-01 0.12500000E+03</pdfrwt>
<totfact> 0.40084831E+06</totfact>
</mgrwt>
</event>
<event>
 3    0  0.1693428E+001  0.1250000E+03  0.7546771E-02  0.1235069E+00
         21   -1    0    0  502  501  0.00000000000E+00  0.00000000000E+00  0.55810735728E+02  0.55810735728E+02  0.00000000000E+00 0. -1.
         21   -1    0    0  501  502 -0.00000000000E+00 -0.00000000000E+00 -0.69991014256E+02  0.69991014256E+02  0.00000000000E+00 0. -1.
         25    1    1    2    0    0  0.00000000000E+00  0.00000000000E+00 -0.14180278528E+02  0.12580174998E+03  0.12500000000E+03 0.  0.
<mgrwt>
<rscale>  2 0.12500000E+03</rscale>
<asrwt>0</asrwt>
<pdfrwt beam="1">  1       21 0.85862671E-02 0.12500000E+03</pdfrwt>
<pdfrwt beam="2">  1       21 0.10767848E-01 0.12500000E+03</pdfrwt>
<totfact> 0.73933429E+06</totfact>
</mgrwt>
</event>
<event>
 3    0  0.1568341E+001  0.1250000E+03  0.7546771E-02  0.1235069E+00
         21   -1    0    0  502  501  0.00000000000E+00  0.00000000000E+00  0.12217706067E+02  0.12217706067E+02  0.00000000000E+00 0.  1.
         21   -1    0    0  501  502 -0.00000000000E+00 -0.00000000000E+00 -0.31972041056E+03  0.31972041056E+03  0.00000000000E+00 0.  1.
         25    1    1    2    0    0  0.00000000000E+00  0.00000000000E+00 -0.30750270449E+03  0.33193811663E+03  0.12500000000E+03 0.  0.
<mgrwt>
<rscale>  2 0.12500000E+03</rscale>
<asrwt>0</asrwt>
<pdfrwt beam="1">  1       21 0.18796471E-02 0.12500000E+03</pdfrwt>
<pdfrwt beam="2">  1       21 0.49187755E-01 0.12500000E+03</pdfrwt>
<totfact> 0.52900663E+06</totfact>
</mgrwt>
</event>
<event>
 3    0  0.1714133E+001  0.1250000E+03  0.7546771E-02  0.1235069E+00
         21   -1    0    0  502  501  0.00000000000E+00  0.00000000000E+00  0.47349055237E+02  0.47349055237E+02  0.00000000000E+00 0.  1.
         21   -1    0    0  501  502 -0.00000000000E+00 -0.00000000000E+00 -0.82499006166E+02  0.82499006166E+02  0.00000000000E+00 0.  1.
         25    1    1    2    0    0  0.00000000000E+00  0.00000000000E+00 -0.35149950929E+02  0.12984806140E+03  0.12500000000E+03 0.  0.
<mgrwt>
<rscale>  2 0.12500000E+03</rscale>
<asrwt>0</asrwt>
<pdfrwt beam="1">  1       21 0.72844701E-02 0.12500000E+03</pdfrwt>
<pdfrwt beam="2">  1       21 0.12692155E-01 0.12500000E+03</pdfrwt>
<totfact> 0.73385228E+06</totfact>
</mgrwt>
</event>
<event>
 3    0  0.1631460E+001  0.1250000E+03  0.7546771E-02  0.1235069E+00
         21   -1    0    0  502  501  0.00000000000E+00  0.00000000000E+00  0.20817688095E+03  0.20817688095E+03  0.00000000000E+00 0.  1.
         21   -1    0    0  501  502 -0.00000000000E+00 -0.00000000000E+00 -0.18764091296E+02  0.18764091296E+02  0.00000000000E+00 0.  1.
         25    1    1    2    0    0  0.00000000000E+00  0.00000000000E+00  0.18941278966E+03  0.22694097225E+03  0.12500000000E+03 0.  0.
<mgrwt>
<rscale>  2 0.12500000E+03</rscale>
<asrwt>0</asrwt>
<pdfrwt beam="1">  1       21 0.32027211E-01 0.12500000E+03</pdfrwt>
<pdfrwt beam="2">  1       21 0.28867834E-02 0.12500000E+03</pdfrwt>
<totfact> 0.62119730E+06</totfact>
</mgrwt>
</event>
<event>
 3    0  0.1608230E+001  0.1250000E+03  0.7546771E-02  0.1235069E+00
         21   -1    0    0  502  501  0.00000000000E+00  0.00000000000E+00  0.15786293601E+02  0.15786293601E+02  0.00000000000E+00 0.  1.
         21   -1    0    0  501  502 -0.00000000000E+00 -0.00000000000E+00 -0.24744567020E+03  0.24744567020E+03  0.00000000000E+00 0.  1.
         25    1    1    2    0    0  0.00000000000E+00  0.00000000000E+00 -0.23165937660E+03  0.26323196380E+03  0.12500000000E+03 0.  0.
<mgrwt>
<rscale>  2 0.12500000E+03</rscale>
<asrwt>0</asrwt>
<pdfrwt beam="1">  1       21 0.24286607E-02 0.12500000E+03</pdfrwt>
<pdfrwt beam="2">  1       21 0.38068562E-01 0.12500000E+03</pdfrwt>
<totfact> 0.58654306E+06</totfact>
</mgrwt>
</event>
<event>
 3    0  0.1368989E+001  0.1250000E+03  0.7546771E-02  0.1235069E+00
         21   -1    0    0  502  501  0.00000000000E+00  0.00000000000E+00  0.41242496936E+01  0.41242496936E+01  0.00000000000E+00 0. -1.
         21   -1    0    0  501  502 -0.00000000000E+00 -0.00000000000E+00 -0.94714197495E+03  0.94714197495E+03  0.00000000000E+00 0. -1.
         25    1    1    2    0    0  0.00000000000E+00  0.00000000000E+00 -0.94301772525E+03  0.95126622464E+03  0.12500000000E+03 0.  0.
<mgrwt>
<rscale>  2 0.12500000E+03</rscale>
<asrwt>0</asrwt>
<pdfrwt beam="1">  1       21 0.63449915E-03 0.12500000E+03</pdfrwt>
<pdfrwt beam="2">  1       21 0.14571433E+00 0.12500000E+03</pdfrwt>
<totfact> 0.24877501E+06</totfact>
</mgrwt>
</event>
<event>
 3    0  0.1598721E+001  0.1250000E+03  0.7546771E-02  0.1235069E+00
         21   -1    0    0  502  501  0.00000000000E+00  0.00000000000E+00  0.13560066698E+02  0.13560066698E+02  0.00000000000E+00 0.  1.
         21   -1    0    0  501  502 -0.00000000000E+00 -0.00000000000E+00 -0.28807011698E+03  0.28807011698E+03  0.00000000000E+00 0.  1.
         25    1    1    2    0    0  0.00000000000E+00  0.00000000000E+00 -0.27451005028E+03  0.30163018368E+03  0.12500000000E+03 0.  0.
<mgrwt>
<rscale>  2 0.12500000E+03</rscale>
<asrwt>0</asrwt>
<pdfrwt beam="1">  1       21 0.20861641E-02 0.12500000E+03</pdfrwt>
<pdfrwt beam="2">  1       21 0.44318479E-01 0.12500000E+03</pdfrwt>
<totfact> 0.55320971E+06</totfact>
</mgrwt>
</event>
<event>
 3    0  0.1534410E+001  0.1250000E+03  0.7546771E-02  0.1235069E+00
         21   -1    0    0  502  501  0.00000000000E+00  0.00000000000E+00  0.12015305427E+02  0.12015305427E+02  0.00000000000E+00 0. -1.
         21   -1    0    0  501  502 -0.00000000000E+00 -0.00000000000E+00 -0.32510617593E+03  0.32510617593E+03  0.00000000000E+00 0. -1.
         25    1    1    2    0    0  0.00000000000E+00  0.00000000000E+00 -0.31309087051E+03  0.33712148136E+03  0.12500000000E+03 0.  0.
<mgrwt>
<rscale>  2 0.12500000E+03</rscale>
<asrwt>0</asrwt>
<pdfrwt beam="1">  1       21 0.18485084E-02 0.12500000E+03</pdfrwt>
<pdfrwt beam="2">  1       21 0.50016339E-01 0.12500000E+03</pdfrwt>
<totfact> 0.52503841E+06</totfact>
</mgrwt>
</event>
<event>
 3    0  0.1572362E+001  0.1250000E+03  0.7546771E-02  0.1235069E+00
         21   -1    0    0  502  501  0.00000000000E+00  0.00000000000E+00  0.12287944253E+02  0.12287944253E+02  0.00000000000E+00 0.  1.
         21   -1    0    0  501  502 -0.00000000000E+00 -0.00000000000E+00 -0.31789288099E+03  0.31789288099E+03  0.00000000000E+00 0.  1.
         25    1    1    2    0    0  0.00000000000E+00  0.00000000000E+00 -0.30560493674E+03  0.33018082524E+03  0.12500000000E+03 0.  0.
<mgrwt>
<rscale>  2 0.12500000E+03</rscale>
<asrwt>0</asrwt>
<pdfrwt beam="1">  1       21 0.18904530E-02 0.12500000E+03</pdfrwt>
<pdfrwt beam="2">  1       21 0.48906597E-01 0.12500000E+03</pdfrwt>
<totfact> 0.53036298E+06</totfact>
</mgrwt>
</event>
<event>
 3    0  0.1368989E+001  0.1250000E+03  0.7546771E-02  0.1235069E+00
         21   -1    0    0  502  501  0.00000000000E+00  0.00000000000E+00  0.92972140192E+03  0.92972140192E+03  0.00000000000E+00 0. -1.
         21   -1    0    0  501  502 -0.00000000000E+00 -0.00000000000E+00 -0.42015274597E+01  0.42015274597E+01  0.00000000000E+00 0. -1.
         25    1    1    2    0    0  0.00000000000E+00  0.00000000000E+00  0.92551987446E+03  0.93392292938E+03  0.12500000000E+03 0.  0.
<mgrwt>
<rscale>  2 0.12500000E+03</rscale>
<asrwt>0</asrwt>
<pdfrwt beam="1">  1       21 0.14303390E+00 0.12500000E+03</pdfrwt>
<pdfrwt beam="2">  1       21 0.64638958E-03 0.12500000E+03</pdfrwt>
<totfact> 0.25346876E+06</totfact>
</mgrwt>
</event>
<event>
 3    0  0.1558124E+001  0.1250000E+03  0.7546771E-02  0.1235069E+00
         21   -1    0    0  502  501  0.00000000000E+00  0.00000000000E+00  0.30630543721E+03  0.30630543721E+03  0.00000000000E+00 0.  1.
         21   -1    0    0  501  502 -0.00000000000E+00 -0.00000000000E+00 -0.12752793537E+02  0.12752793537E+02  0.00000000000E+00 0.  1.
         25    1    1    2    0    0  0.00000000000E+00  0.00000000000E+00  0.29355264367E+03  0.31905823074E+03  0.12500000000E+03 0.  0.
<mgrwt>
<rscale>  2 0.12500000E+03</rscale>
<asrwt>0</asrwt>
<pdfrwt beam="1">  1       21 0.47123908E-01 0.12500000E+03</pdfrwt>
<pdfrwt beam="2">  1       21 0.19619685E-02 0.12500000E+03</pdfrwt>
<totfact> 0.53908060E+06</totfact>
</mgrwt>
</event>
<event>
 3    0  0.1714992E+001  0.1250000E+03  0.7546771E-02  0.1235069E+00
         21   -1    0    0  502  501  0.00000000000E+00  0.00000000000E+00  0.46389978159E+02  0.46389978159E+02  0.00000000000E+00 0.  1.
         21   -1    0    0  501  502 -0.00000000000E+00 -0.00000000000E+00 -0.84204609595E+02  0.84204609595E+02  0.00000000000E+00 0.  1.
         25    1    1    2    0    0  0.00000000000E+00  0.00000000000E+00 -0.37814631435E+02  0.13059458775E+03  0.12500000000E+03 0.  0.
<mgrwt>
<rscale>  2 0.12500000E+03</rscale>
<asrwt>0</asrwt>
<pdfrwt beam="1">  1       21 0.71369198E-02 0.12500000E+03</pdfrwt>
<pdfrwt beam="2">  1       21 0.12954555E-01 0.12500000E+03</pdfrwt>
<totfact> 0.73285357E+06</totfact>
</mgrwt>
</event>
<event>
 3    0  0.1711168E+001  0.1250000E+03  0.7546771E-02  0.1235069E+00
         21   -1    0    0  502  501  0.00000000000E+00  0.00000000000E+00  0.96102684388E+02  0.96102684388E+02  0.00000000000E+00 0.  1.
         21   -1    0    0  501  502 -0.00000000000E+00 -0.00000000000E+00 -0.40646627354E+02  0.40646627354E+02  0.00000000000E+00 0.  1.
         25    1    1    2    0    0  0.00000000000E+00  0.00000000000E+00  0.55456057035E+02  0.13674931174E+03  0.12500000000E+03 0.  0.
<mgrwt>
<rscale>  2 0.12500000E+03</rscale>
<asrwt>0</asrwt>
<pdfrwt beam="1">  1       21 0.14785028E-01 0.12500000E+03</pdfrwt>
<pdfrwt beam="2">  1       21 0.62533273E-02 0.12500000E+03</pdfrwt>
<totfact> 0.72465671E+06</totfact>
</mgrwt>
</event>
<event>
 3    0  0.1688624E+001  0.1250000E+03  0.7546771E-02  0.1235069E+00
         21   -1    0    0  502  501  0.00000000000E+00  0.00000000000E+00  0.41250316624E+02  0.41250316624E+02  0.00000000000E+00 0. -1.
         21   -1    0    0  501  502 -0.00000000000E+00 -0.00000000000E+00 -0.94696242834E+02  0.94696242834E+02  0.00000000000E+00 0. -1.
         25    1    1    2    0    0  0.00000000000E+00  0.00000000000E+00 -0.53445926210E+02  0.13594655946E+03  0.12500000000E+03 0.  0.
<mgrwt>
<rscale>  2 0.12500000E+03</rscale>
<asrwt>0</asrwt>
<pdfrwt beam="1">  1       21 0.63462026E-02 0.12500000E+03</pdfrwt>
<pdfrwt beam="2">  1       21 0.14568653E-01 0.12500000E+03</pdfrwt>
<totfact> 0.72571383E+06</totfact>
</mgrwt>
</event>
<event>
 3    0  0.1368989E+001  0.1250000E+03  0.7546771E-02  0.1235069E+00
         21   -1    0    0  502  501  0.00000000000E+00  0.00000000000E+00  0.15560026272E+04  0.15560026272E+04  0.00000000000E+00 0. -1.
         21   -1    0    0  501  502 -0.00000000000E+00 -0.00000000000E+00 -0.25104392060E+01  0.25104392060E+01  0.00000000000E+00 0. -1.
         25    1    1    2    0    0  0.00000000000E+00  0.00000000000E+00  0.15534921880E+04  0.15585130665E+04  0.12500000000E+03 0.  0.
<mgrwt>
<rscale>  2 0.12500000E+03</rscale>
<asrwt>0</asrwt>
<pdfrwt beam="1">  1       21 0.23938425E+00 0.12500000E+03</pdfrwt>
<pdfrwt beam="2">  1       21 0.38622266E-03 0.12500000E+03</pdfrwt>
<totfact> 0.13147212E+06</totfact>
</mgrwt>
</event>
<event>
 3    0  0.1719471E+001  0.1250000E+03  0.7546771E-02  0.1235069E+00
         21   -1    0    0  502  501  0.00000000000E+00  0.00000000000E+00  0.63573321240E+02  0.63573321240E+02  0.00000000000E+00 0.  1.
         21   -1    0    0  501  502 -0.00000000000E+00 -0.00000000000E+00 -0.61444799860E+02  0.61444799860E+02  0.00000000000E+00 0.  1.
         25    1    1    2    0    0  0.00000000000E+00  0.00000000000E+00  0.21285213801E+01  0.12501812110E+03  0.12500000000E+03 0.  0.
<mgrwt>
<rscale>  2 0.12500000E+03</rscale>
<asrwt>0</asrwt>
<pdfrwt beam="1">  1       21 0.97805110E-02 0.12500000E+03</pdfrwt>
<pdfrwt beam="2">  1       21 0.94530461E-02 0.12500000E+03</pdfrwt>
<totfact> 0.74041134E+06</totfact>
</mgrwt>
</event>
<event>
 3    0  0.1645904E+001  0.1250000E+03  0.7546771E-02  0.1235069E+00
         21   -1    0    0  502  501  0.00000000000E+00  0.00000000000E+00  0.24564361751E+02  0.24564361751E+02  0.00000000000E+00 0. -1.
         21   -1    0    0  501  502 -0.00000000000E+00 -0.00000000000E+00 -0.15902102565E+03  0.15902102565E+03  0.00000000000E+00 0. -1.
         25    1    1    2    0    0  0.00000000000E+00  0.00000000000E+00 -0.13445666389E+03  0.18358538740E+03  0.12500000000E+03 0.  0.
<mgrwt>
<rscale>  2 0.12500000E+03</rscale>
<asrwt>0</asrwt>
<pdfrwt beam="1">  1       21 0.37791326E-02 0.12500000E+03</pdfrwt>
<pdfrwt beam="2">  1       21 0.24464773E-01 0.12500000E+03</pdfrwt>
<totfact> 0.66742594E+06</totfact>
</mgrwt>
</event>
<event>
 3    0  0.1713123E+001  0.1250000E+03  0.7546771E-02  0.1235069E+00
         21   -1    0    0  502  501  0.00000000000E+00  0.00000000000E+00  0.43524816095E+02  0.43524816095E+02  0.00000000000E+00 0.  1.
         21   -1    0    0  501  502 -0.00000000000E+00 -0.00000000000E+00 -0.89747650892E+02  0.89747650892E+02  0.00000000000E+00 0.  1.
         25    1    1    2    0    0  0.00000000000E+00  0.00000000000E+00 -0.46222834797E+02  0.13327246699E+03  0.12500000000E+03 0.  0.
<mgrwt>
<rscale>  2 0.12500000E+03</rscale>
<asrwt>0</asrwt>
<pdfrwt beam="1">  1       21 0.66961257E-02 0.12500000E+03</pdfrwt>
<pdfrwt beam="2">  1       21 0.13807331E-01 0.12500000E+03</pdfrwt>
<totfact> 0.72926036E+06</totfact>
</mgrwt>
</event>
<event>
 3    0  0.1487822E+001  0.1250000E+03  0.7546771E-02  0.1235069E+00
         21   -1    0    0  502  501  0.00000000000E+00  0.00000000000E+00  0.47959838663E+03  0.47959838663E+03  0.00000000000E+00 0.  1.
         21   -1    0    0  501  502 -0.00000000000E+00 -0.00000000000E+00 -0.81448355727E+01  0.81448355727E+01  0.00000000000E+00 0.  1.
         25    1    1    2    0    0  0.00000000000E+00  0.00000000000E+00  0.47145355106E+03  0.48774322220E+03  0.12500000000E+03 0.  0.
<mgrwt>
<rscale>  2 0.12500000E+03</rscale>
<asrwt>0</asrwt>
<pdfrwt beam="1">  1       21 0.73784345E-01 0.12500000E+03</pdfrwt>
<pdfrwt beam="2">  1       21 0.12530520E-02 0.12500000E+03</pdfrwt>
<totfact> 0.42716687E+06</totfact>
</mgrwt>
</event>
<event>
 3    0  0.1644381E+001  0.1250000E+03  0.7546771E-02  0.1235069E+00
         21   -1    0    0  502  501  0.00000000000E+00  0.00000000000E+00  0.19297922434E+03  0.19297922434E+03  0.00000000000E+00 0.  1.
         21   -1    0    0  501  502 -0.00000000000E+00 -0.00000000000E+00 -0.20241816254E+02  0.20241816254E+02  0.00000000000E+00 0.  1.
         25    1    1    2    0    0  0.00000000000E+00  0.00000000000E+00  0.17273740809E+03  0.21322104060E+03  0.12500000000E+03 0.  0.
<mgrwt>
<rscale>  2 0.12500000E+03</rscale>
<asrwt>0</asrwt>
<pdfrwt beam="1">  1       21 0.29689110E-01 0.12500000E+03</pdfrwt>
<pdfrwt beam="2">  1       21 0.31141257E-02 0.12500000E+03</pdfrwt>
<totfact> 0.63522232E+06</totfact>
</mgrwt>
</event>
<event>
 3    0  0.1601099E+001  0.1250000E+03  0.7546771E-02  0.1235069E+00
         21   -1    0    0  502  501  0.00000000000E+00  0.00000000000E+00  0.14836096189E+02  0.14836096189E+02  0.00000000000E+00 0.  1.
         21   -1    0    0  501  502 -0.00000000000E+00 -0.00000000000E+00 -0.26329365558E+03  0.26329365558E+03  0.00000000000E+00 0.  1.
         25    1    1    2    0    0  0.00000000000E+00  0.00000000000E+00 -0.24845755939E+03  0.27812975177E+03  0.12500000000E+03 0.  0.
<mgrwt>
<rscale>  2 0.12500000E+03</rscale>
<asrwt>0</asrwt>
<pdfrwt beam="1">  1       21 0.22824763E-02 0.12500000E+03</pdfrwt>
<pdfrwt beam="2">  1       21 0.40506718E-01 0.12500000E+03</pdfrwt>
<totfact> 0.57324101E+06</totfact>
</mgrwt>
</event>
<event>
 3    0  0.1703409E+001  0.1250000E+03  0.7546771E-02  0.1235069E+00
         21   -1    0    0  502  501  0.00000000000E+00  0.00000000000E+00  0.36824942533E+02  0.36824942533E+02  0.00000000000E+00 0.  1.
         21   -1    0    0  501  502 -0.00000000000E+00 -0.00000000000E+00 -0.10607620084E+03  0.10607620084E+03  0.00000000000E+00 0.  1.
         25    1    1    2    0    0  0.00000000000E+00  0.00000000000E+00 -0.69251258306E+02  0.14290114337E+03  0.12500000000E+03 0.  0.
<mgrwt>
<rscale>  2 0.12500000E+03</rscale>
<asrwt>0</asrwt>
<pdfrwt beam="1">  1       21 0.56653759E-02 0.12500000E+03</pdfrwt>
<pdfrwt beam="2">  1       21 0.16319415E-01 0.12500000E+03</pdfrwt>
<totfact> 0.71662796E+06</totfact>
</mgrwt>
</event>
<event>
 3    0  0.1644592E+001  0.1250000E+03  0.7546771E-02  0.1235069E+00
         21   -1    0    0  502  501  0.00000000000E+00  0.00000000000E+00  0.25361674208E+02  0.25361674208E+02  0.00000000000E+00 0. -1.
         21   -1    0    0  501  502 -0.00000000000E+00 -0.00000000000E+00 -0.15402177190E+03  0.15402177190E+03  0.00000000000E+00 0. -1.
         25    1    1    2    0    0  0.00000000000E+00  0.00000000000E+00 -0.12866009770E+03  0.17938344611E+03  0.12500000000E+03 0.  0.
<mgrwt>
<rscale>  2 0.12500000E+03</rscale>
<asrwt>0</asrwt>
<pdfrwt beam="1">  1       21 0.39017961E-02 0.12500000E+03</pdfrwt>
<pdfrwt beam="2">  1       21 0.23695657E-01 0.12500000E+03</pdfrwt>
<totfact> 0.67222336E+06</totfact>
</mgrwt>
</event>
<event>
 3    0  0.1368989E+001  0.1250000E+03  0.7546771E-02  0.1235069E+00
         21   -1    0    0  502  501  0.00000000000E+00  0.00000000000E+00  0.30726217596E+01  0.30726217596E+01  0.00000000000E+00 0.  1.
         21   -1    0    0  501  502 -0.00000000000E+00 -0.00000000000E+00 -0.12713084478E+04  0.12713084478E+04  0.00000000000E+00 0.  1.
         25    1    1    2    0    0  0.00000000000E+00  0.00000000000E+00 -0.12682358261E+04  0.12743810696E+04  0.12500000000E+03 0.  0.
<mgrwt>
<rscale>  2 0.12500000E+03</rscale>
<asrwt>0</asrwt>
<pdfrwt beam="1">  1       21 0.47271097E-03 0.12500000E+03</pdfrwt>
<pdfrwt beam="2">  1       21 0.19558594E+00 0.12500000E+03</pdfrwt>
<totfact> 0.17718700E+06</totfact>
</mgrwt>
</event>
<event>
 3    0  0.1687583E+001  0.1250000E+03  0.7546771E-02  0.1235069E+00
         21   -1    0    0  502  501  0.00000000000E+00  0.00000000000E+00  0.95657557529E+02  0.95657557529E+02  0.00000000000E+00 0. -1.
         21   -1    0    0  501  502 -0.00000000000E+00 -0.00000000000E+00 -0.40835769812E+02  0.40835769812E+02  0.00000000000E+00 0. -1.
         25    1    1    2    0    0  0.00000000000E+00  0.00000000000E+00  0.54821787717E+02  0.13649332734E+03  0.12500000000E+03 0.  0.
<mgrwt>
<rscale>  2 0.12500000E+03</rscale>
<asrwt>0</asrwt>
<pdfrwt beam="1">  1       21 0.14716547E-01 0.12500000E+03</pdfrwt>
<pdfrwt beam="2">  1       21 0.62824261E-02 0.12500000E+03</pdfrwt>
<totfact> 0.72499344E+06</totfact>
</mgrwt>
</event>
<event>
 3    0  0.1694893E+001  0.1250000E+03  0.7546771E-02  0.1235069E+00
         21   -1    0    0  502  501  0.00000000000E+00  0.00000000000E+00  0.12457017538E+03  0.12457017538E+03  0.00000000000E+00 0.  1.
         21   -1    0    0  501  502 -0.00000000000E+00 -0.00000000000E+00 -0.31357826928E+02  0.31357826928E+02  0.00000000000E+00 0.  1.
         25    1    1    2    0    0  0.00000000000E+00  0.00000000000E+00  0.93212348454E+02  0.15592800231E+03  0.12500000000E+03 0.  0.
<mgrwt>
<rscale>  2 0.12500000E+03</rscale>
<asrwt>0</asrwt>
<pdfrwt beam="1">  1       21 0.19164642E-01 0.12500000E+03</pdfrwt>
<pdfrwt beam="2">  1       21 0.48242811E-02 0.12500000E+03</pdfrwt>
<totfact> 0.70020504E+06</totfact>
</mgrwt>
</event>
<event>
 3    0  0.1481472E+001  0.1250000E+03  0.7546771E-02  0.1235069E+00
         21   -1    0    0  502  501  0.00000000000E+00  0.00000000000E+00  0.46181516352E+03  0.46181516352E+03  0.00000000000E+00 0.  1.
         21   -1    0    0  501  502 -0.00000000000E+00 -0.00000000000E+00 -0.84584706362E+01  0.84584706362E+01  0.00000000000E+00 0.  1.
         25    1    1    2    0    0  0.00000000000E+00  0.00000000000E+00  0.45335669289E+03  0.47027363416E+03  0.12500000000E+03 0.  0.
<mgrwt>
<rscale>  2 0.12500000E+03</rscale>
<asrwt>0</asrwt>
<pdfrwt beam="1">  1       21 0.71048467E-01 0.12500000E+03</pdfrwt>
<pdfrwt beam="2">  1       21 0.13013035E-02 0.12500000E+03</pdfrwt>
<totfact> 0.43703485E+06</totfact>
</mgrwt>
</event>
<event>
 3    0  0.1681768E+001  0.1250000E+03  0.7546771E-02  0.1235069E+00
         21   -1    0    0  502  501  0.00000000000E+00  0.00000000000E+00  0.98896998613E+02  0.98896998613E+02  0.00000000000E+00 0. -1.
         21   -1    0    0  501  502 -0.00000000000E+00 -0.00000000000E+00 -0.39498165311E+02  0.39498165311E+02  0.00000000000E+00 0. -1.
         25    1    1    2    0    0  0.00000000000E+00  0.00000000000E+00  0.59398833301E+02  0.13839516392E+03  0.12500000000E+03 0.  0.
<mgrwt>
<rscale>  2 0.12500000E+03</rscale>
<asrwt>0</asrwt>
<pdfrwt beam="1">  1       21 0.15214923E-01 0.12500000E+03</pdfrwt>
<pdfrwt beam="2">  1       21 0.60766409E-02 0.12500000E+03</pdfrwt>
<totfact> 0.72249515E+06</totfact>
</mgrwt>
</event>
<event>
 3    0  0.1668203E+001  0.1250000E+03  0.7546771E-02  0.1235069E+00
         21   -1    0    0  502  501  0.00000000000E+00  0.00000000000E+00  0.29729543447E+02  0.29729543447E+02  0.00000000000E+00 0. -1.
         21   -1    0    0  501  502 -0.00000000000E+00 -0.00000000000E+00 -0.13139286875E+03  0.13139286875E+03  0.00000000000E+00 0. -1.
         25    1    1    2    0    0  0.00000000000E+00  0.00000000000E+00 -0.10166332530E+03  0.16112241219E+03  0.12500000000E+03 0.  0.
<mgrwt>
<rscale>  2 0.12500000E+03</rscale>
<asrwt>0</asrwt>
<pdfrwt beam="1">  1       21 0.45737759E-02 0.12500000E+03</pdfrwt>
<pdfrwt beam="2">  1       21 0.20214288E-01 0.12500000E+03</pdfrwt>
<totfact> 0.69382609E+06</totfact>
</mgrwt>
</event>
<event>
 3    0  0.1587509E+001  0.1250000E+03  0.7546771E-02  0.1235069E+00
         21   -1    0    0  502  501  0.00000000000E+00  0.00000000000E+00  0.27811828930E+03  0.27811828930E+03  0.00000000000E+00 0.  1.
         21   -1    0    0  501  502 -0.00000000000E+00 -0.00000000000E+00 -0.14045282710E+02  0.14045282710E+02  0.00000000000E+00 0.  1.
         25    1    1    2    0    0  0.00000000000E+00  0.00000000000E+00  0.26407300659E+03  0.29216357201E+03  0.12500000000E+03 0.  0.
<mgrwt>
<rscale>  2 0.12500000E+03</rscale>
<asrwt>0</asrwt>
<pdfrwt beam="1">  1       21 0.42787425E-01 0.12500000E+03</pdfrwt>
<pdfrwt beam="2">  1       21 0.21608129E-02 0.12500000E+03</pdfrwt>
<totfact> 0.56113766E+06</totfact>
</mgrwt>
</event>
<event>
 3    0  0.1368989E+001  0.1250000E+03  0.7546771E-02  0.1235069E+00
         21   -1    0    0  502  501  0.00000000000E+00  0.00000000000E+00  0.28176820925E+01  0.28176820925E+01  0.00000000000E+00 0. -1.
         21   -1    0    0  501  502 -0.00000000000E+00 -0.00000000000E+00 -0.13863345373E+04  0.13863345373E+04  0.00000000000E+00 0. -1.
         25    1    1    2    0    0  0.00000000000E+00  0.00000000000E+00 -0.13835168552E+04  0.13891522194E+04  0.12500000000E+03 0.  0.
<mgrwt>
<rscale>  2 0.12500000E+03</rscale>
<asrwt>0</asrwt>
<pdfrwt beam="1">  1       21 0.43349079E-03 0.12500000E+03</pdfrwt>
<pdfrwt beam="2">  1       21 0.21328163E+00 0.12500000E+03</pdfrwt>
<totfact> 0.15722344E+06</totfact>
</mgrwt>
</event>
<event>
 3    0  0.1596417E+001  0.1250000E+03  0.7546771E-02  0.1235069E+00
         21   -1    0    0  502  501  0.00000000000E+00  0.00000000000E+00  0.25513609302E+03  0.25513609302E+03  0.00000000000E+00 0. -1.
         21   -1    0    0  501  502 -0.00000000000E+00 -0.00000000000E+00 -0.15310456289E+02  0.15310456289E+02  0.00000000000E+00 0. -1.
         25    1    1    2    0    0  0.00000000000E+00  0.00000000000E+00  0.23982563673E+03  0.27044654931E+03  0.12500000000E+03 0.  0.
<mgrwt>
<rscale>  2 0.12500000E+03</rscale>
<asrwt>0</asrwt>
<pdfrwt beam="1">  1       21 0.39251704E-01 0.12500000E+03</pdfrwt>
<pdfrwt beam="2">  1       21 0.23554550E-02 0.12500000E+03</pdfrwt>
<totfact> 0.58004818E+06</totfact>
</mgrwt>
</event>
<event>
 3    0  0.1713889E+001  0.1250000E+03  0.7546771E-02  0.1235069E+00
         21   -1    0    0  502  501  0.00000000000E+00  0.00000000000E+00  0.82895105381E+02  0.82895105381E+02  0.00000000000E+00 0.  1.
         21   -1    0    0  501  502 -0.00000000000E+00 -0.00000000000E+00 -0.47122806371E+02  0.47122806371E+02  0.00000000000E+00 0.  1.
         25    1    1    2    0    0  0.00000000000E+00  0.00000000000E+00  0.35772299010E+02  0.13001791175E+03  0.12500000000E+03 0.  0.
<mgrwt>
<rscale>  2 0.12500000E+03</rscale>
<asrwt>0</asrwt>
<pdfrwt beam="1">  1       21 0.12753093E-01 0.12500000E+03</pdfrwt>
<pdfrwt beam="2">  1       21 0.72496625E-02 0.12500000E+03</pdfrwt>
<totfact> 0.73362521E+06</totfact>
</mgrwt>
</event>
<event>
 3    0  0.1418932E+001  0.1250000E+03  0.7546771E-02  0.1235069E+00
         21   -1    0    0  502  501  0.00000000000E+00  0.00000000000E+00  0.54230988599E+03  0.54230988599E+03  0.00000000000E+00 0. -1.
         21   -1    0    0  501  502 -0.00000000000E+00 -0.00000000000E+00 -0.72029850476E+01  0.72029850476E+01  0.00000000000E+00 0. -1.
         25    1    1    2    0    0  0.00000000000E+00  0.00000000000E+00  0.53510690095E+03  0.54951287104E+03  0.12500000000E+03 0.  0.
<mgrwt>
<rscale>  2 0.12500000E+03</rscale>
<asrwt>0</asrwt>
<pdfrwt beam="1">  1       21 0.83432258E-01 0.12500000E+03</pdfrwt>
<pdfrwt beam="2">  1       21 0.11081520E-02 0.12500000E+03</pdfrwt>
<totfact> 0.39480166E+06</totfact>
</mgrwt>
</event>
<event>
 3    0  0.1368989E+001  0.1250000E+03  0.7546771E-02  0.1235069E+00
         21   -1    0    0  502  501  0.00000000000E+00  0.00000000000E+00  0.19656946422E+01  0.19656946422E+01  0.00000000000E+00 0.  1.
         21   -1    0    0  501  502 -0.00000000000E+00 -0.00000000000E+00 -0.19872109920E+04  0.19872109920E+04  0.00000000000E+00 0.  1.
         25    1    1    2    0    0  0.00000000000E+00  0.00000000000E+00 -0.19852452974E+04  0.19891766867E+04  0.12500000000E+03 0.  0.
<mgrwt>
<rscale>  2 0.12500000E+03</rscale>
<asrwt>0</asrwt>
<pdfrwt beam="1">  1       21 0.30241480E-03 0.12500000E+03</pdfrwt>
<pdfrwt beam="2">  1       21 0.30572452E+00 0.12500000E+03</pdfrwt>
<totfact> 0.80540016E+05</totfact>
</mgrwt>
</event>
<event>
 3    0  0.1630198E+001  0.1250000E+03  0.7546771E-02  0.1235069E+00
         21   -1    0    0  502  501  0.00000000000E+00  0.00000000000E+00  0.19894046444E+03  0.19894046444E+03  0.00000000000E+00 0. -1.
         21   -1    0    0  501  502 -0.00000000000E+00 -0.00000000000E+00 -0.19635271341E+02  0.19635271341E+02  0.00000000000E+00 0. -1.
         25    1    1    2    0    0  0.00000000000E+00  0.00000000000E+00  0.17930519310E+03  0.21857573578E+03  0.12500000000E+03 0.  0.
<mgrwt>
<rscale>  2 0.12500000E+03</rscale>
<asrwt>0</asrwt>
<pdfrwt beam="1">  1       21 0.30606224E-01 0.12500000E+03</pdfrwt>
<pdfrwt beam="2">  1       21 0.30208111E-02 0.12500000E+03</pdfrwt>
<totfact> 0.62968412E+06</totfact>
</mgrwt>
</event>
<event>
 3    0  0.1368989E+001  0.1250000E+03  0.7546771E-02  0.1235069E+00
         21   -1    0    0  502  501  0.00000000000E+00  0.00000000000E+00  0.19904428449E+01  0.19904428449E+01  0.00000000000E+00 0. -1.
         21   -1    0    0  501  502 -0.00000000000E+00 -0.00000000000E+00 -0.19625029726E+04  0.19625029726E+04  0.00000000000E+00 0. -1.
         25    1    1    2    0    0  0.00000000000E+00  0.00000000000E+00 -0.19605125298E+04  0.19644934155E+04  0.12500000000E+03 0.  0.
<mgrwt>
<rscale>  2 0.12500000E+03</rscale>
<asrwt>0</asrwt>
<pdfrwt beam="1">  1       21 0.30622291E-03 0.12500000E+03</pdfrwt>
<pdfrwt beam="2">  1       21 0.30192261E+00 0.12500000E+03</pdfrwt>
<totfact> 0.82995783E+05</totfact>
</mgrwt>
</event>
<event>
 3    0  0.1691772E+001  0.1250000E+03  0.7546771E-02  0.1235069E+00
         21   -1    0    0  502  501  0.00000000000E+00  0.00000000000E+00  0.31861189743E+02  0.31861189743E+02  0.00000000000E+00 0.  1.
         21   -1    0    0  501  502 -0.00000000000E+00 -0.00000000000E+00 -0.12260213858E+03  0.12260213858E+03  0.00000000000E+00 0.  1.
         25    1    1    2    0    0  0.00000000000E+00  0.00000000000E+00 -0.90740948833E+02  0.15446332832E+03  0.12500000000E+03 0.  0.
<mgrwt>
<rscale>  2 0.12500000E+03</rscale>
<asrwt>0</asrwt>
<pdfrwt beam="1">  1       21 0.49017216E-02 0.12500000E+03</pdfrwt>
<pdfrwt beam="2">  1       21 0.18861867E-01 0.12500000E+03</pdfrwt>
<totfact> 0.70202422E+06</totfact>
</mgrwt>
</event>
<event>
 3    0  0.1598037E+001  0.1250000E+03  0.7546771E-02  0.1235069E+00
         21   -1    0    0  502  501  0.00000000000E+00  0.00000000000E+00  0.22942441476E+03  0.22942441476E+03  0.00000000000E+00 0. -1.
         21   -1    0    0  501  502 -0.00000000000E+00 -0.00000000000E+00 -0.17026304738E+02  0.17026304738E+02  0.00000000000E+00 0. -1.
         25    1    1    2    0    0  0.00000000000E+00  0.00000000000E+00  0.21239811002E+03  0.24645071950E+03  0.12500000000E+03 0.  0.
<mgrwt>
<rscale>  2 0.12500000E+03</rscale>
<asrwt>0</asrwt>
<pdfrwt beam="1">  1       21 0.35296061E-01 0.12500000E+03</pdfrwt>
<pdfrwt beam="2">  1       21 0.26194317E-02 0.12500000E+03</pdfrwt>
<totfact> 0.60213968E+06</totfact>
</mgrwt>
</event>
<event>
 3    0  0.1637743E+001  0.1250000E+03  0.7546771E-02  0.1235069E+00
         21   -1    0    0  502  501  0.00000000000E+00  0.00000000000E+00  0.17263746189E+03  0.17263746189E+03  0.00000000000E+00 0. -1.
         21   -1    0    0  501  502 -0.00000000000E+00 -0.00000000000E+00 -0.22626896603E+02  0.22626896603E+02  0.00000000000E+00 0. -1.
         25    1    1    2    0    0  0.00000000000E+00  0.00000000000E+00  0.15001056529E+03  0.19526435849E+03  0.12500000000E+03 0.  0.
<mgrwt>
<rscale>  2 0.12500000E+03</rscale>
<asrwt>0</asrwt>
<pdfrwt beam="1">  1       21 0.26559609E-01 0.12500000E+03</pdfrwt>
<pdfrwt beam="2">  1       21 0.34810611E-02 0.12500000E+03</pdfrwt>
<totfact> 0.65442101E+06</totfact>
</mgrwt>
</event>
<event>
 3    0  0.1689963E+001  0.1250000E+03  0.7546771E-02  0.1235069E+00
         21   -1    0    0  502  501  0.00000000000E+00  0.00000000000E+00  0.12676062784E+03  0.12676062784E+03  0.00000000000E+00 0.  1.
         21   -1    0    0  501  502 -0.00000000000E+00 -0.00000000000E+00 -0.30815956551E+02  0.30815956551E+02  0.00000000000E+00 0.  1.
         25    1    1    2    0    0  0.00000000000E+00  0.00000000000E+00  0.95944671292E+02  0.15757658439E+03  0.12500000000E+03 0.  0.
<mgrwt>
<rscale>  2 0.12500000E+03</rscale>
<asrwt>0</asrwt>
<pdfrwt beam="1">  1       21 0.19501635E-01 0.12500000E+03</pdfrwt>
<pdfrwt beam="2">  1       21 0.47409165E-02 0.12500000E+03</pdfrwt>
<totfact> 0.69816830E+06</totfact>
</mgrwt>
</event>
<event>
 3    0  0.1602958E+001  0.1250000E+03  0.7546771E-02  0.1235069E+00
         21   -1    0    0  502  501  0.00000000000E+00  0.00000000000E+00  0.24933874785E+03  0.24933874785E+03  0.00000000000E+00 0.  1.
         21   -1    0    0  501  502 -0.00000000000E+00 -0.00000000000E+00 -0.15666437863E+02  0.15666437863E+02  0.00000000000E+00 0.  1.
         25    1    1    2    0    0  0.00000000000E+00  0.00000000000E+00  0.23367230999E+03  0.26500518571E+03  0.12500000000E+03 0.  0.
<mgrwt>
<rscale>  2 0.12500000E+03</rscale>
<asrwt>0</asrwt>
<pdfrwt beam="1">  1       21 0.38359804E-01 0.12500000E+03</pdfrwt>
<pdfrwt beam="2">  1       21 0.24102214E-02 0.12500000E+03</pdfrwt>
<totfact> 0.58493537E+06</totfact>
</mgrwt>
</event>
<event>
 3    0  0.1570783E+001  0.1250000E+03  0.7546771E-02  0.1235069E+00
         21   -1    0    0  502  501  0.00000000000E+00  0.00000000000E+00  0.26632867708E+03  0.26632867708E+03  0.00000000000E+00 0. -1.
         21   -1    0    0  501  502 -0.00000000000E+00 -0.00000000000E+00 -0.14667027385E+02  0.14667027385E+02  0.00000000000E+00 0. -1.
         25    1    1    2    0    0  0.00000000000E+00  0.00000000000E+00  0.25166164969E+03  0.28099570446E+03  0.12500000000E+03 0.  0.
<mgrwt>
<rscale>  2 0.12500000E+03</rscale>
<asrwt>0</asrwt>
<pdfrwt beam="1">  1       21 0.40973639E-01 0.12500000E+03</pdfrwt>
<pdfrwt beam="2">  1       21 0.22564660E-02 0.12500000E+03</pdfrwt>
<totfact> 0.57073435E+06</totfact>
</mgrwt>
</event>
<event>
 3    0  0.1596525E+001  0.1250000E+03  0.7546771E-02  0.1235069E+00
         21   -1    0    0  502  501  0.00000000000E+00  0.00000000000E+00  0.28914033398E+03  0.28914033398E+03  0.00000000000E+00 0.  1.
         21   -1    0    0  501  502 -0.00000000000E+00 -0.00000000000E+00 -0.13509875797E+02  0.13509875797E+02  0.00000000000E+00 0.  1.
         25    1    1    2    0    0  0.00000000000E+00  0.00000000000E+00  0.27563045818E+03  0.30265020978E+03  0.12500000000E+03 0.  0.
<mgrwt>
<rscale>  2 0.12500000E+03</rscale>
<asrwt>0</asrwt>
<pdfrwt beam="1">  1       21 0.44483124E-01 0.12500000E+03</pdfrwt>
<pdfrwt beam="2">  1       21 0.20784426E-02 0.12500000E+03</pdfrwt>
<totfact> 0.55236650E+06</totfact>
</mgrwt>
</event>
<event>
 3    0  0.1506163E+001  0.1250000E+03  0.7546771E-02  0.1235069E+00
         21   -1    0    0  502  501  0.00000000000E+00  0.00000000000E+00  0.38980601820E+03  0.38980601820E+03  0.00000000000E+00 0. -1.
         21   -1    0    0  501  502 -0.00000000000E+00 -0.00000000000E+00 -0.10021009984E+02  0.10021009984E+02  0.00000000000E+00 0. -1.
         25    1    1    2    0    0  0.00000000000E+00  0.00000000000E+00  0.37978500821E+03  0.39982702818E+03  0.12500000000E+03 0.  0.
<mgrwt>
<rscale>  2 0.12500000E+03</rscale>
<asrwt>0</asrwt>
<pdfrwt beam="1">  1       21 0.59970145E-01 0.12500000E+03</pdfrwt>
<pdfrwt beam="2">  1       21 0.15416941E-02 0.12500000E+03</pdfrwt>
<totfact> 0.48052831E+06</totfact>
</mgrwt>
</event>
<event>
 3    0  0.1423447E+001  0.1250000E+03  0.7546771E-02  0.1235069E+00
         21   -1    0    0  502  501  0.00000000000E+00  0.00000000000E+00  0.77912066351E+01  0.77912066351E+01  0.00000000000E+00 0. -1.
         21   -1    0    0  501  502 -0.00000000000E+00 -0.00000000000E+00 -0.50136649982E+03  0.50136649982E+03  0.00000000000E+00 0. -1.
         25    1    1    2    0    0  0.00000000000E+00  0.00000000000E+00 -0.49357529318E+03  0.50915770645E+03  0.12500000000E+03 0.  0.
<mgrwt>
<rscale>  2 0.12500000E+03</rscale>
<asrwt>0</asrwt>
<pdfrwt beam="1">  1       21 0.11986469E-02 0.12500000E+03</pdfrwt>
<pdfrwt beam="2">  1       21 0.77133328E-01 0.12500000E+03</pdfrwt>
<totfact> 0.41551736E+06</totfact>
</mgrwt>
</event>
<event>
 3    0  0.1474461E+001  0.1250000E+03  0.7546771E-02  0.1235069E+00
         21   -1    0    0  502  501  0.00000000000E+00  0.00000000000E+00  0.48667172253E+03  0.48667172253E+03  0.00000000000E+00 0.  1.
         21   -1    0    0  501  502 -0.00000000000E+00 -0.00000000000E+00 -0.80264577110E+01  0.80264577110E+01  0.00000000000E+00 0.  1.
         25    1    1    2    0    0  0.00000000000E+00  0.00000000000E+00  0.47864526481E+03  0.49469818024E+03  0.12500000000E+03 0.  0.
<mgrwt>
<rscale>  2 0.12500000E+03</rscale>
<asrwt>0</asrwt>
<pdfrwt beam="1">  1       21 0.74872550E-01 0.12500000E+03</pdfrwt>
<pdfrwt beam="2">  1       21 0.12348400E-02 0.12500000E+03</pdfrwt>
<totfact> 0.42333075E+06</totfact>
</mgrwt>
</event>
<event>
 3    0  0.1650458E+001  0.1250000E+03  0.7546771E-02  0.1235069E+00
         21   -1    0    0  502  501  0.00000000000E+00  0.00000000000E+00  0.24865378751E+02  0.24865378751E+02  0.00000000000E+00 0. -1.
         21   -1    0    0  501  502 -0.00000000000E+00 -0.00000000000E+00 -0.15709593806E+03  0.15709593806E+03  0.00000000000E+00 0. -1.
         25    1    1    2    0    0  0.00000000000E+00  0.00000000000E+00 -0.13223055931E+03  0.18196131681E+03  0.12500000000E+03 0.  0.
<mgrwt>
<rscale>  2 0.12500000E+03</rscale>
<asrwt>0</asrwt>
<pdfrwt beam="1">  1       21 0.38254428E-02 0.12500000E+03</pdfrwt>
<pdfrwt beam="2">  1       21 0.24168606E-01 0.12500000E+03</pdfrwt>
<totfact> 0.66927250E+06</totfact>
</mgrwt>
</event>
<event>
 3    0  0.1719202E+001  0.1250000E+03  0.7546771E-02  0.1235069E+00
         21   -1    0    0  502  501  0.00000000000E+00  0.00000000000E+00  0.65579787150E+02  0.65579787150E+02  0.00000000000E+00 0.  1.
         21   -1    0    0  501  502 -0.00000000000E+00 -0.00000000000E+00 -0.59564847185E+02  0.59564847185E+02  0.00000000000E+00 0.  1.
         25    1    1    2    0    0  0.00000000000E+00  0.00000000000E+00  0.60149399643E+01  0.12514463433E+03  0.12500000000E+03 0.  0.
<mgrwt>
<rscale>  2 0.12500000E+03</rscale>
<asrwt>0</asrwt>
<pdfrwt beam="1">  1       21 0.10089198E-01 0.12500000E+03</pdfrwt>
<pdfrwt beam="2">  1       21 0.91638226E-02 0.12500000E+03</pdfrwt>
<totfact> 0.74024048E+06</totfact>
</mgrwt>
</event>
<event>
 3    0  0.1705213E+001  0.1250000E+03  0.7546771E-02  0.1235069E+00
         21   -1    0    0  502  501  0.00000000000E+00  0.00000000000E+00  0.11206595442E+03  0.11206595442E+03  0.00000000000E+00 0.  1.
         21   -1    0    0  501  502 -0.00000000000E+00 -0.00000000000E+00 -0.34856705770E+02  0.34856705770E+02  0.00000000000E+00 0.  1.
         25    1    1    2    0    0  0.00000000000E+00  0.00000000000E+00  0.77209248648E+02  0.14692266019E+03  0.12500000000E+03 0.  0.
<mgrwt>
<rscale>  2 0.12500000E+03</rscale>
<asrwt>0</asrwt>
<pdfrwt beam="1">  1       21 0.17240916E-01 0.12500000E+03</pdfrwt>
<pdfrwt beam="2">  1       21 0.53625702E-02 0.12500000E+03</pdfrwt>
<totfact> 0.71147946E+06</totfact>
</mgrwt>
</event>
<event>
 3    0  0.1482270E+001  0.1250000E+03  0.7546771E-02  0.1235069E+00
         21   -1    0    0  502  501  0.00000000000E+00  0.00000000000E+00  0.84804281514E+01  0.84804281514E+01  0.00000000000E+00 0.  1.
         21   -1    0    0  501  502 -0.00000000000E+00 -0.00000000000E+00 -0.46061943221E+03  0.46061943221E+03  0.00000000000E+00 0.  1.
         25    1    1    2    0    0  0.00000000000E+00  0.00000000000E+00 -0.45213900406E+03  0.46909986036E+03  0.12500000000E+03 0.  0.
<mgrwt>
<rscale>  2 0.12500000E+03</rscale>
<asrwt>0</asrwt>
<pdfrwt beam="1">  1       21 0.13046811E-02 0.12500000E+03</pdfrwt>
<pdfrwt beam="2">  1       21 0.70864535E-01 0.12500000E+03</pdfrwt>
<totfact> 0.43771000E+06</totfact>
</mgrwt>
</event>
<event>
 3    0  0.1677479E+001  0.1250000E+03  0.7546771E-02  0.1235069E+00
         21   -1    0    0  502  501  0.00000000000E+00  0.00000000000E+00  0.11372752298E+03  0.11372752298E+03  0.00000000000E+00 0. -1.
         21   -1    0    0  501  502 -0.00000000000E+00 -0.00000000000E+00 -0.34347446401E+02  0.34347446401E+02  0.00000000000E+00 0. -1.
         25    1    1    2    0    0  0.00000000000E+00  0.00000000000E+00  0.79380076584E+02  0.14807496939E+03  0.12500000000E+03 0.  0.
<mgrwt>
<rscale>  2 0.12500000E+03</rscale>
<asrwt>0</asrwt>
<pdfrwt beam="1">  1       21 0.17496542E-01 0.12500000E+03</pdfrwt>
<pdfrwt beam="2">  1       21 0.52842226E-02 0.12500000E+03</pdfrwt>
<totfact> 0.71001865E+06</totfact>
</mgrwt>
</event>
<event>
 3    0  0.1368989E+001  0.1250000E+03  0.7546771E-02  0.1235069E+00
         21   -1    0    0  502  501  0.00000000000E+00  0.00000000000E+00  0.44157052315E+01  0.44157052315E+01  0.00000000000E+00 0.  1.
         21   -1    0    0  501  502 -0.00000000000E+00 -0.00000000000E+00 -0.88462653081E+03  0.88462653081E+03  0.00000000000E+00 0.  1.
         25    1    1    2    0    0  0.00000000000E+00  0.00000000000E+00 -0.88021082558E+03  0.88904223604E+03  0.12500000000E+03 0.  0.
<mgrwt>
<rscale>  2 0.12500000E+03</rscale>
<asrwt>0</asrwt>
<pdfrwt beam="1">  1       21 0.67933869E-03 0.12500000E+03</pdfrwt>
<pdfrwt beam="2">  1       21 0.13609650E+00 0.12500000E+03</pdfrwt>
<totfact> 0.26614775E+06</totfact>
</mgrwt>
</event>
<event>
 3    0  0.1578455E+001  0.1250000E+03  0.7546771E-02  0.1235069E+00
         21   -1    0    0  502  501  0.00000000000E+00  0.00000000000E+00  0.26295478733E+03  0.26295478733E+03  0.00000000000E+00 0. -1.
         21   -1    0    0  501  502 -0.00000000000E+00 -0.00000000000E+00 -0.14855215376E+02  0.14855215376E+02  0.00000000000E+00 0. -1.
         25    1    1    2    0    0  0.00000000000E+00  0.00000000000E+00  0.24809957195E+03  0.27781000271E+03  0.12500000000E+03 0.  0.
<mgrwt>
<rscale>  2 0.12500000E+03</rscale>
<asrwt>0</asrwt>
<pdfrwt beam="1">  1       21 0.40454579E-01 0.12500000E+03</pdfrwt>
<pdfrwt beam="2">  1       21 0.22854179E-02 0.12500000E+03</pdfrwt>
<totfact> 0.57352183E+06</totfact>
</mgrwt>
</event>
<event>
 3    0  0.1637745E+001  0.1250000E+03  0.7546771E-02  0.1235069E+00
         21   -1    0    0  502  501  0.00000000000E+00  0.00000000000E+00  0.22245351316E+03  0.22245351316E+03  0.00000000000E+00 0.  1.
         21   -1    0    0  501  502 -0.00000000000E+00 -0.00000000000E+00 -0.17559848548E+02  0.17559848548E+02  0.00000000000E+00 0.  1.
         25    1    1    2    0    0  0.00000000000E+00  0.00000000000E+00  0.20489366461E+03  0.24001336171E+03  0.12500000000E+03 0.  0.
<mgrwt>
<rscale>  2 0.12500000E+03</rscale>
<asrwt>0</asrwt>
<pdfrwt beam="1">  1       21 0.34223615E-01 0.12500000E+03</pdfrwt>
<pdfrwt beam="2">  1       21 0.27015153E-02 0.12500000E+03</pdfrwt>
<totfact> 0.60831371E+06</totfact>
</mgrwt>
</event>
<event>
 3    0  0.1639834E+001  0.1250000E+03  0.7546771E-02  0.1235069E+00
         21   -1    0    0  502  501  0.00000000000E+00  0.00000000000E+00  0.19486459062E+03  0.19486459062E+03  0.00000000000E+00 0.  1.
         21   -1    0    0  501  502 -0.00000000000E+00 -0.00000000000E+00 -0.20045971346E+02  0.20045971346E+02  0.00000000000E+00 0.  1.
         25    1    1    2    0    0  0.00000000000E+00  0.00000000000E+00  0.17481861928E+03  0.21491056197E+03  0.12500000000E+03 0.  0.
<mgrwt>
<rscale>  2 0.12500000E+03</rscale>
<asrwt>0</asrwt>
<pdfrwt beam="1">  1       21 0.29979167E-01 0.12500000E+03</pdfrwt>
<pdfrwt beam="2">  1       21 0.30839957E-02 0.12500000E+03</pdfrwt>
<totfact> 0.63346564E+06</totfact>
</mgrwt>
</event>
<event>
 3    0  0.1562224E+001  0.1250000E+03  0.7546771E-02  0.1235069E+00
         21   -1    0    0  502  501  0.00000000000E+00  0.00000000000E+00  0.12508565761E+02  0.12508565761E+02  0.00000000000E+00 0. -1.
         21   -1    0    0  501  502 -0.00000000000E+00 -0.00000000000E+00 -0.31228600262E+03  0.31228600262E+03  0.00000000000E+00 0. -1.
         25    1    1    2    0    0  0.00000000000E+00  0.00000000000E+00 -0.29977743686E+03  0.32479456838E+03  0.12500000000E+03 0.  0.
<mgrwt>
<rscale>  2 0.12500000E+03</rscale>
<asrwt>0</asrwt>
<pdfrwt beam="1">  1       21 0.19243948E-02 0.12500000E+03</pdfrwt>
<pdfrwt beam="2">  1       21 0.48043998E-01 0.12500000E+03</pdfrwt>
<totfact> 0.53455572E+06</totfact>
</mgrwt>
</event>
<event>
 3    0  0.1578285E+001  0.1250000E+03  0.7546771E-02  0.1235069E+00
         21   -1    0    0  502  501  0.00000000000E+00  0.00000000000E+00  0.13609038451E+02  0.13609038451E+02  0.00000000000E+00 0. -1.
         21   -1    0    0  501  502 -0.00000000000E+00 -0.00000000000E+00 -0.28703350454E+03  0.28703350454E+03  0.00000000000E+00 0. -1.
         25    1    1    2    0    0  0.00000000000E+00  0.00000000000E+00 -0.27342446609E+03  0.30064254299E+03  0.12500000000E+03 0.  0.
<mgrwt>
<rscale>  2 0.12500000E+03</rscale>
<asrwt>0</asrwt>
<pdfrwt beam="1">  1       21 0.20936984E-02 0.12500000E+03</pdfrwt>
<pdfrwt beam="2">  1       21 0.44158997E-01 0.12500000E+03</pdfrwt>
<totfact> 0.55402820E+06</totfact>
</mgrwt>
</event>
<event>
 3    0  0.1400946E+001  0.1250000E+03  0.7546771E-02  0.1235069E+00
         21   -1    0    0  502  501  0.00000000000E+00  0.00000000000E+00  0.67572822920E+03  0.67572822920E+03  0.00000000000E+00 0.  1.
         21   -1    0    0  501  502 -0.00000000000E+00 -0.00000000000E+00 -0.57808003739E+01  0.57808003739E+01  0.00000000000E+00 0.  1.
         25    1    1    2    0    0  0.00000000000E+00  0.00000000000E+00  0.66994742883E+03  0.68150902958E+03  0.12500000000E+03 0.  0.
<mgrwt>
<rscale>  2 0.12500000E+03</rscale>
<asrwt>0</asrwt>
<pdfrwt beam="1">  1       21 0.10395813E+00 0.12500000E+03</pdfrwt>
<pdfrwt beam="2">  1       21 0.88935444E-03 0.12500000E+03</pdfrwt>
<totfact> 0.33635315E+06</totfact>
</mgrwt>
</event>
<event>
 3    0  0.1698021E+001  0.1250000E+03  0.7546771E-02  0.1235069E+00
         21   -1    0    0  502  501  0.00000000000E+00  0.00000000000E+00  0.33903366317E+02  0.33903366317E+02  0.00000000000E+00 0.  1.
         21   -1    0    0  501  502 -0.00000000000E+00 -0.00000000000E+00 -0.11521717235E+03  0.11521717235E+03  0.00000000000E+00 0.  1.
         25    1    1    2    0    0  0.00000000000E+00  0.00000000000E+00 -0.81313806029E+02  0.14912053866E+03  0.12500000000E+03 0.  0.
<mgrwt>
<rscale>  2 0.12500000E+03</rscale>
<asrwt>0</asrwt>
<pdfrwt beam="1">  1       21 0.52159025E-02 0.12500000E+03</pdfrwt>
<pdfrwt beam="2">  1       21 0.17725719E-01 0.12500000E+03</pdfrwt>
<totfact> 0.70869852E+06</totfact>
</mgrwt>
</event>
<event>
 3    0  0.1470429E+001  0.1250000E+03  0.7546771E-02  0.1235069E+00
         21   -1    0    0  502  501  0.00000000000E+00  0.00000000000E+00  0.52514528516E+03  0.52514528516E+03  0.00000000000E+00 0.  1.
         21   -1    0    0  501  502 -0.00000000000E+00 -0.00000000000E+00 -0.74384177301E+01  0.74384177301E+01  0.00000000000E+00 0.  1.
         25    1    1    2    0    0  0.00000000000E+00  0.00000000000E+00  0.51770686743E+03  0.53258370289E+03  0.12500000000E+03 0.  0.
<mgrwt>
<rscale>  2 0.12500000E+03</rscale>
<asrwt>0</asrwt>
<pdfrwt beam="1">  1       21 0.80791553E-01 0.12500000E+03</pdfrwt>
<pdfrwt beam="2">  1       21 0.11443724E-02 0.12500000E+03</pdfrwt>
<totfact> 0.40330385E+06</totfact>
</mgrwt>
</event>
<event>
 3    0  0.1719002E+001  0.1250000E+03  0.7546771E-02  0.1235069E+00
         21   -1    0    0  502  501  0.00000000000E+00  0.00000000000E+00  0.54334953734E+02  0.54334953734E+02  0.00000000000E+00 0.  1.
         21   -1    0    0  501  502 -0.00000000000E+00 -0.00000000000E+00 -0.71892027720E+02  0.71892027720E+02  0.00000000000E+00 0.  1.
         25    1    1    2    0    0  0.00000000000E+00  0.00000000000E+00 -0.17557073987E+02  0.12622698145E+03  0.12500000000E+03 0.  0.
<mgrwt>
<rscale>  2 0.12500000E+03</rscale>
<asrwt>0</asrwt>
<pdfrwt beam="1">  1       21 0.83592237E-02 0.12500000E+03</pdfrwt>
<pdfrwt beam="2">  1       21 0.11060312E-01 0.12500000E+03</pdfrwt>
<totfact> 0.73874803E+06</totfact>
</mgrwt>
</event>
<event>
 3    0  0.1693757E+001  0.1250000E+03  0.7546771E-02  0.1235069E+00
         21   -1    0    0  502  501  0.00000000000E+00  0.00000000000E+00  0.56234759463E+02  0.56234759463E+02  0.00000000000E+00 0. -1.
         21   -1    0    0  501  502 -0.00000000000E+00 -0.00000000000E+00 -0.69463265022E+02  0.69463265022E+02  0.00000000000E+00 0. -1.
         25    1    1    2    0    0  0.00000000000E+00  0.00000000000E+00 -0.13228505560E+02  0.12569802448E+03  0.12500000000E+03 0.  0.
<mgrwt>
<rscale>  2 0.12500000E+03</rscale>
<asrwt>0</asrwt>
<pdfrwt beam="1">  1       21 0.86515015E-02 0.12500000E+03</pdfrwt>
<pdfrwt beam="2">  1       21 0.10686656E-01 0.12500000E+03</pdfrwt>
<totfact> 0.73947812E+06</totfact>
</mgrwt>
</event>
<event>
 3    0  0.1368989E+001  0.1250000E+03  0.7546771E-02  0.1235069E+00
         21   -1    0    0  502  501  0.00000000000E+00  0.00000000000E+00  0.33726692837E+04  0.33726692837E+04  0.00000000000E+00 0. -1.
         21   -1    0    0  501  502 -0.00000000000E+00 -0.00000000000E+00 -0.11582072452E+01  0.11582072452E+01  0.00000000000E+00 0. -1.
         25    1    1    2    0    0  0.00000000000E+00  0.00000000000E+00  0.33715110764E+04  0.33738274909E+04  0.12500000000E+03 0.  0.
<mgrwt>
<rscale>  2 0.12500000E+03</rscale>
<asrwt>0</asrwt>
<pdfrwt beam="1">  1       21 0.51886434E+00 0.12500000E+03</pdfrwt>
<pdfrwt beam="2">  1       21 0.17818843E-03 0.12500000E+03</pdfrwt>
<totfact> 0.83110196E+04</totfact>
</mgrwt>
</event>
<event>
 3    0  0.1690052E+001  0.1250000E+03  0.7546771E-02  0.1235069E+00
         21   -1    0    0  502  501  0.00000000000E+00  0.00000000000E+00  0.47494301776E+02  0.47494301776E+02  0.00000000000E+00 0. -1.
         21   -1    0    0  501  502 -0.00000000000E+00 -0.00000000000E+00 -0.82246708635E+02  0.82246708635E+02  0.00000000000E+00 0. -1.
         25    1    1    2    0    0  0.00000000000E+00  0.00000000000E+00 -0.34752406859E+02  0.12974101041E+03  0.12500000000E+03 0.  0.
<mgrwt>
<rscale>  2 0.12500000E+03</rscale>
<asrwt>0</asrwt>
<pdfrwt beam="1">  1       21 0.73068157E-02 0.12500000E+03</pdfrwt>
<pdfrwt beam="2">  1       21 0.12653340E-01 0.12500000E+03</pdfrwt>
<totfact> 0.73399549E+06</totfact>
</mgrwt>
</event>
<event>
 3    0  0.1660535E+001  0.1250000E+03  0.7546771E-02  0.1235069E+00
         21   -1    0    0  502  501  0.00000000000E+00  0.00000000000E+00  0.18632058419E+03  0.18632058419E+03  0.00000000000E+00 0.  1.
         21   -1    0    0  501  502 -0.00000000000E+00 -0.00000000000E+00 -0.20965209062E+02  0.20965209062E+02  0.00000000000E+00 0.  1.
         25    1    1    2    0    0  0.00000000000E+00  0.00000000000E+00  0.16535537513E+03  0.20728579325E+03  0.12500000000E+03 0.  0.
<mgrwt>
<rscale>  2 0.12500000E+03</rscale>
<asrwt>0</asrwt>
<pdfrwt beam="1">  1       21 0.28664704E-01 0.12500000E+03</pdfrwt>
<pdfrwt beam="2">  1       21 0.32254169E-02 0.12500000E+03</pdfrwt>
<totfact> 0.64146238E+06</totfact>
</mgrwt>
</event>
<event>
 3    0  0.1368989E+001  0.1250000E+03  0.7546771E-02  0.1235069E+00
         21   -1    0    0  502  501  0.00000000000E+00  0.00000000000E+00  0.11448609711E+04  0.11448609711E+04  0.00000000000E+00 0. -1.
         21   -1    0    0  501  502 -0.00000000000E+00 -0.00000000000E+00 -0.34119863448E+01  0.34119863448E+01  0.00000000000E+00 0. -1.
         25    1    1    2    0    0  0.00000000000E+00  0.00000000000E+00  0.11414489847E+04  0.11482729574E+04  0.12500000000E+03 0.  0.
<mgrwt>
<rscale>  2 0.12500000E+03</rscale>
<asrwt>0</asrwt>
<pdfrwt beam="1">  1       21 0.17613215E+00 0.12500000E+03</pdfrwt>
<pdfrwt beam="2">  1       21 0.52492189E-03 0.12500000E+03</pdfrwt>
<totfact> 0.20205700E+06</totfact>
</mgrwt>
</event>
<event>
 3    0  0.1662268E+001  0.1250000E+03  0.7546771E-02  0.1235069E+00
         21   -1    0    0  502  501  0.00000000000E+00  0.00000000000E+00  0.26664378911E+02  0.26664378911E+02  0.00000000000E+00 0. -1.
         21   -1    0    0  501  502 -0.00000000000E+00 -0.00000000000E+00 -0.14649694310E+03  0.14649694310E+03  0.00000000000E+00 0. -1.
         25    1    1    2    0    0  0.00000000000E+00  0.00000000000E+00 -0.11983256419E+03  0.17316132201E+03  0.12500000000E+03 0.  0.
<mgrwt>
<rscale>  2 0.12500000E+03</rscale>
<asrwt>0</asrwt>
<pdfrwt beam="1">  1       21 0.41022121E-02 0.12500000E+03</pdfrwt>
<pdfrwt beam="2">  1       21 0.22537991E-01 0.12500000E+03</pdfrwt>
<totfact> 0.67944840E+06</totfact>
</mgrwt>
</event>
<event>
 3    0  0.1661317E+001  0.1250000E+03  0.7546771E-02  0.1235069E+00
         21   -1    0    0  502  501  0.00000000000E+00  0.00000000000E+00  0.21858312614E+02  0.21858312614E+02  0.00000000000E+00 0.  1.
         21   -1    0    0  501  502 -0.00000000000E+00 -0.00000000000E+00 -0.17870775613E+03  0.17870775613E+03  0.00000000000E+00 0.  1.
         25    1    1    2    0    0  0.00000000000E+00  0.00000000000E+00 -0.15684944352E+03  0.20056606874E+03  0.12500000000E+03 0.  0.
<mgrwt>
<rscale>  2 0.12500000E+03</rscale>
<asrwt>0</asrwt>
<pdfrwt beam="1">  1       21 0.33628173E-02 0.12500000E+03</pdfrwt>
<pdfrwt beam="2">  1       21 0.27493501E-01 0.12500000E+03</pdfrwt>
<totfact> 0.64865967E+06</totfact>
</mgrwt>
</event>
<event>
 3    0  0.1591878E+001  0.1250000E+03  0.7546771E-02  0.1235069E+00
         21   -1    0    0  502  501  0.00000000000E+00  0.00000000000E+00  0.25710408586E+03  0.25710408586E+03  0.00000000000E+00 0. -1.
         21   -1    0    0  501  502 -0.00000000000E+00 -0.00000000000E+00 -0.15193263020E+02  0.15193263020E+02  0.00000000000E+00 0. -1.
         25    1    1    2    0    0  0.00000000000E+00  0.00000000000E+00  0.24191082284E+03  0.27229734888E+03  0.12500000000E+03 0.  0.
<mgrwt>
<rscale>  2 0.12500000E+03</rscale>
<asrwt>0</asrwt>
<pdfrwt beam="1">  1       21 0.39554471E-01 0.12500000E+03</pdfrwt>
<pdfrwt beam="2">  1       21 0.23374253E-02 0.12500000E+03</pdfrwt>
<totfact> 0.57839918E+06</totfact>
</mgrwt>
</event>
<event>
 3    0  0.1694034E+001  0.1250000E+03  0.7546771E-02  0.1235069E+00
         21   -1    0    0  502  501  0.00000000000E+00  0.00000000000E+00  0.56617201702E+02  0.56617201702E+02  0.00000000000E+00 0. -1.
         21   -1    0    0  501  502 -0.00000000000E+00 -0.00000000000E+00 -0.68994049204E+02  0.68994049204E+02  0.00000000000E+00 0. -1.
         25    1    1    2    0    0  0.00000000000E+00  0.00000000000E+00 -0.12376847503E+02  0.12561125091E+03  0.12500000000E+03 0.  0.
<mgrwt>
<rscale>  2 0.12500000E+03</rscale>
<asrwt>0</asrwt>
<pdfrwt beam="1">  1       21 0.87103388E-02 0.12500000E+03</pdfrwt>
<pdfrwt beam="2">  1       21 0.10614469E-01 0.12500000E+03</pdfrwt>
<totfact> 0.73959876E+06</totfact>
</mgrwt>
</event>
<event>
 3    0  0.1523429E+001  0.1250000E+03  0.7546771E-02  0.1235069E+00
         21   -1    0    0  502  501  0.00000000000E+00  0.00000000000E+00  0.34123900970E+03  0.34123900970E+03  0.00000000000E+00 0. -1.
         21   -1    0    0  501  502 -0.00000000000E+00 -0.00000000000E+00 -0.11447255117E+02  0.11447255117E+02  0.00000000000E+00 0. -1.
         25    1    1    2    0    0  0.00000000000E+00  0.00000000000E+00  0.32979175459E+03  0.35268626482E+03  0.12500000000E+03 0.  0.
<mgrwt>
<rscale>  2 0.12500000E+03</rscale>
<asrwt>0</asrwt>
<pdfrwt beam="1">  1       21 0.52498301E-01 0.12500000E+03</pdfrwt>
<pdfrwt beam="2">  1       21 0.17611164E-02 0.12500000E+03</pdfrwt>
<totfact> 0.51340657E+06</totfact>
</mgrwt>
</event>
<event>
 3    0  0.1622957E+001  0.1250000E+03  0.7546771E-02  0.1235069E+00
         21   -1    0    0  502  501  0.00000000000E+00  0.00000000000E+00  0.17688825453E+02  0.17688825453E+02  0.00000000000E+00 0.  1.
         21   -1    0    0  501  502 -0.00000000000E+00 -0.00000000000E+00 -0.22083150803E+03  0.22083150803E+03  0.00000000000E+00 0.  1.
         25    1    1    2    0    0  0.00000000000E+00  0.00000000000E+00 -0.20314268258E+03  0.23852033348E+03  0.12500000000E+03 0.  0.
<mgrwt>
<rscale>  2 0.12500000E+03</rscale>
<asrwt>0</asrwt>
<pdfrwt beam="1">  1       21 0.27213576E-02 0.12500000E+03</pdfrwt>
<pdfrwt beam="2">  1       21 0.33974080E-01 0.12500000E+03</pdfrwt>
<totfact> 0.60976140E+06</totfact>
</mgrwt>
</event>
<event>
 3    0  0.1689215E+001  0.1250000E+03  0.7546771E-02  0.1235069E+00
         21   -1    0    0  502  501  0.00000000000E+00  0.00000000000E+00  0.47129428419E+02  0.47129428419E+02  0.00000000000E+00 0. -1.
         21   -1    0    0  501  502 -0.00000000000E+00 -0.00000000000E+00 -0.82883457981E+02  0.82883457981E+02  0.00000000000E+00 0. -1.
         25    1    1    2    0    0  0.00000000000E+00  0.00000000000E+00 -0.35754029562E+02  0.13001288640E+03  0.12500000000E+03 0.  0.
<mgrwt>
<rscale>  2 0.12500000E+03</rscale>
<asrwt>0</asrwt>
<pdfrwt beam="1">  1       21 0.72506814E-02 0.12500000E+03</pdfrwt>
<pdfrwt beam="2">  1       21 0.12751301E-01 0.12500000E+03</pdfrwt>
<totfact> 0.73363193E+06</totfact>
</mgrwt>
</event>
<event>
 3    0  0.1368989E+001  0.1250000E+03  0.7546771E-02  0.1235069E+00
         21   -1    0    0  502  501  0.00000000000E+00  0.00000000000E+00  0.13395469066E+04  0.13395469066E+04  0.00000000000E+00 0. -1.
         21   -1    0    0  501  502 -0.00000000000E+00 -0.00000000000E+00 -0.29160979587E+01  0.29160979587E+01  0.00000000000E+00 0. -1.
         25    1    1    2    0    0  0.00000000000E+00  0.00000000000E+00  0.13366308087E+04  0.13424630046E+04  0.12500000000E+03 0.  0.
<mgrwt>
<rscale>  2 0.12500000E+03</rscale>
<asrwt>0</asrwt>
<pdfrwt beam="1">  1       21 0.20608365E+00 0.12500000E+03</pdfrwt>
<pdfrwt beam="2">  1       21 0.44863152E-03 0.12500000E+03</pdfrwt>
<totfact> 0.16506781E+06</totfact>
</mgrwt>
</event>
<event>
 3    0  0.1693668E+001  0.1250000E+03  0.7546771E-02  0.1235069E+00
         21   -1    0    0  502  501  0.00000000000E+00  0.00000000000E+00  0.27801558788E+02  0.27801558788E+02  0.00000000000E+00 0.  1.
         21   -1    0    0  501  502 -0.00000000000E+00 -0.00000000000E+00 -0.14050471162E+03  0.14050471162E+03  0.00000000000E+00 0.  1.
         25    1    1    2    0    0  0.00000000000E+00  0.00000000000E+00 -0.11270315283E+03  0.16830627040E+03  0.12500000000E+03 0.  0.
<mgrwt>
<rscale>  2 0.12500000E+03</rscale>
<asrwt>0</asrwt>
<pdfrwt beam="1">  1       21 0.42771629E-02 0.12500000E+03</pdfrwt>
<pdfrwt beam="2">  1       21 0.21616109E-01 0.12500000E+03</pdfrwt>
<totfact> 0.68518533E+06</totfact>
</mgrwt>
</event>
<event>
 3    0  0.1493794E+001  0.1250000E+03  0.7546771E-02  0.1235069E+00
         21   -1    0    0  502  501  0.00000000000E+00  0.00000000000E+00  0.42739362459E+03  0.42739362459E+03  0.00000000000E+00 0.  1.
         21   -1    0    0  501  502 -0.00000000000E+00 -0.00000000000E+00 -0.91397011448E+01  0.91397011448E+01  0.00000000000E+00 0.  1.
         25    1    1    2    0    0  0.00000000000E+00  0.00000000000E+00  0.41825392345E+03  0.43653332574E+03  0.12500000000E+03 0.  0.
<mgrwt>
<rscale>  2 0.12500000E+03</rscale>
<asrwt>0</asrwt>
<pdfrwt beam="1">  1       21 0.65752850E-01 0.12500000E+03</pdfrwt>
<pdfrwt beam="2">  1       21 0.14061082E-02 0.12500000E+03</pdfrwt>
<totfact> 0.45708922E+06</totfact>
</mgrwt>
</event>
<event>
 3    0  0.1368989E+001  0.1250000E+03  0.7546771E-02  0.1235069E+00
         21   -1    0    0  502  501  0.00000000000E+00  0.00000000000E+00  0.56506911739E+01  0.56506911739E+01  0.00000000000E+00 0. -1.
         21   -1    0    0  501  502 -0.00000000000E+00 -0.00000000000E+00 -0.69128711511E+03  0.69128711511E+03  0.00000000000E+00 0. -1.
         25    1    1    2    0    0  0.00000000000E+00  0.00000000000E+00 -0.68563642393E+03  0.69693780628E+03  0.12500000000E+03 0.  0.
<mgrwt>
<rscale>  2 0.12500000E+03</rscale>
<asrwt>0</asrwt>
<pdfrwt beam="1">  1       21 0.86933694E-03 0.12500000E+03</pdfrwt>
<pdfrwt beam="2">  1       21 0.10635188E+00 0.12500000E+03</pdfrwt>
<totfact> 0.33028527E+06</totfact>
</mgrwt>
</event>
<event>
 3    0  0.1512085E+001  0.1250000E+03  0.7546771E-02  0.1235069E+00
         21   -1    0    0  502  501  0.00000000000E+00  0.00000000000E+00  0.11281748153E+02  0.11281748153E+02  0.00000000000E+00 0. -1.
         21   -1    0    0  501  502 -0.00000000000E+00 -0.00000000000E+00 -0.34624509845E+03  0.34624509845E+03  0.00000000000E+00 0. -1.
         25    1    1    2    0    0  0.00000000000E+00  0.00000000000E+00 -0.33496335029E+03  0.35752684660E+03  0.12500000000E+03 0.  0.
<mgrwt>
<rscale>  2 0.12500000E+03</rscale>
<asrwt>0</asrwt>
<pdfrwt beam="1">  1       21 0.17356534E-02 0.12500000E+03</pdfrwt>
<pdfrwt beam="2">  1       21 0.53268482E-01 0.12500000E+03</pdfrwt>
<totfact> 0.50987310E+06</totfact>
</mgrwt>
</event>
<event>
 3    0  0.1636366E+001  0.1250000E+03  0.7546771E-02  0.1235069E+00
         21   -1    0    0  502  501  0.00000000000E+00  0.00000000000E+00  0.20931794402E+02  0.20931794402E+02  0.00000000000E+00 0. -1.
         21   -1    0    0  501  502 -0.00000000000E+00 -0.00000000000E+00 -0.18661801874E+03  0.18661801874E+03  0.00000000000E+00 0. -1.
         25    1    1    2    0    0  0.00000000000E+00  0.00000000000E+00 -0.16568622434E+03  0.20754981314E+03  0.12500000000E+03 0.  0.
<mgrwt>
<rscale>  2 0.12500000E+03</rscale>
<asrwt>0</asrwt>
<pdfrwt beam="1">  1       21 0.32202761E-02 0.12500000E+03</pdfrwt>
<pdfrwt beam="2">  1       21 0.28710464E-01 0.12500000E+03</pdfrwt>
<totfact> 0.64118249E+06</totfact>
</mgrwt>
</event>
<event>
 3    0  0.1368989E+001  0.1250000E+03  0.7546771E-02  0.1235069E+00
         21   -1    0    0  502  501  0.00000000000E+00  0.00000000000E+00  0.37559457737E+01  0.37559457737E+01  0.00000000000E+00 0. -1.
         21   -1    0    0  501  502 -0.00000000000E+00 -0.00000000000E+00 -0.10400176774E+04  0.10400176774E+04  0.00000000000E+00 0. -1.
         25    1    1    2    0    0  0.00000000000E+00  0.00000000000E+00 -0.10362617316E+04  0.10437736232E+04  0.12500000000E+03 0.  0.
<mgrwt>
<rscale>  2 0.12500000E+03</rscale>
<asrwt>0</asrwt>
<pdfrwt beam="1">  1       21 0.57783798E-03 0.12500000E+03</pdfrwt>
<pdfrwt beam="2">  1       21 0.16000267E+00 0.12500000E+03</pdfrwt>
<totfact> 0.22547105E+06</totfact>
</mgrwt>
</event>
<event>
 3    0  0.1388872E+001  0.1250000E+03  0.7546771E-02  0.1235069E+00
         21   -1    0    0  502  501  0.00000000000E+00  0.00000000000E+00  0.55970946789E+03  0.55970946789E+03  0.00000000000E+00 0. -1.
         21   -1    0    0  501  502 -0.00000000000E+00 -0.00000000000E+00 -0.69790672199E+01  0.69790672199E+01  0.00000000000E+00 0. -1.
         25    1    1    2    0    0  0.00000000000E+00  0.00000000000E+00  0.55273040067E+03  0.56668853511E+03  0.12500000000E+03 0.  0.
<mgrwt>
<rscale>  2 0.12500000E+03</rscale>
<asrwt>0</asrwt>
<pdfrwt beam="1">  1       21 0.86109113E-01 0.12500000E+03</pdfrwt>
<pdfrwt beam="2">  1       21 0.10737031E-02 0.12500000E+03</pdfrwt>
<totfact> 0.38643788E+06</totfact>
</mgrwt>
</event>
<event>
 3    0  0.1718931E+001  0.1250000E+03  0.7546771E-02  0.1235069E+00
         21   -1    0    0  502  501  0.00000000000E+00  0.00000000000E+00  0.66419414277E+02  0.66419414277E+02  0.00000000000E+00 0.  1.
         21   -1    0    0  501  502 -0.00000000000E+00 -0.00000000000E+00 -0.58811870633E+02  0.58811870633E+02  0.00000000000E+00 0.  1.
         25    1    1    2    0    0  0.00000000000E+00  0.00000000000E+00  0.76075436445E+01  0.12523128491E+03  0.12500000000E+03 0.  0.
<mgrwt>
<rscale>  2 0.12500000E+03</rscale>
<asrwt>0</asrwt>
<pdfrwt beam="1">  1       21 0.10218371E-01 0.12500000E+03</pdfrwt>
<pdfrwt beam="2">  1       21 0.90479801E-02 0.12500000E+03</pdfrwt>
<totfact> 0.74012348E+06</totfact>
</mgrwt>
</event>
<event>
 3    0  0.1554646E+001  0.1250000E+03  0.7546771E-02  0.1235069E+00
         21   -1    0    0  502  501  0.00000000000E+00  0.00000000000E+00  0.10826638901E+02  0.10826638901E+02  0.00000000000E+00 0.  1.
         21   -1    0    0  501  502 -0.00000000000E+00 -0.00000000000E+00 -0.36079987850E+03  0.36079987850E+03  0.00000000000E+00 0.  1.
         25    1    1    2    0    0  0.00000000000E+00  0.00000000000E+00 -0.34997323960E+03  0.37162651740E+03  0.12500000000E+03 0.  0.
<mgrwt>
<rscale>  2 0.12500000E+03</rscale>
<asrwt>0</asrwt>
<pdfrwt beam="1">  1       21 0.16656367E-02 0.12500000E+03</pdfrwt>
<pdfrwt beam="2">  1       21 0.55507674E-01 0.12500000E+03</pdfrwt>
<totfact> 0.49979845E+06</totfact>
</mgrwt>
</event>
<event>
 3    0  0.1717599E+001  0.1250000E+03  0.7546771E-02  0.1235069E+00
         21   -1    0    0  502  501  0.00000000000E+00  0.00000000000E+00  0.50730490017E+02  0.50730490017E+02  0.00000000000E+00 0.  1.
         21   -1    0    0  501  502 -0.00000000000E+00 -0.00000000000E+00 -0.77000044721E+02  0.77000044721E+02  0.00000000000E+00 0.  1.
         25    1    1    2    0    0  0.00000000000E+00  0.00000000000E+00 -0.26269554704E+02  0.12773053474E+03  0.12500000000E+03 0.  0.
<mgrwt>
<rscale>  2 0.12500000E+03</rscale>
<asrwt>0</asrwt>
<pdfrwt beam="1">  1       21 0.78046909E-02 0.12500000E+03</pdfrwt>
<pdfrwt beam="2">  1       21 0.11846161E-01 0.12500000E+03</pdfrwt>
<totfact> 0.73669993E+06</totfact>
</mgrwt>
</event>
<event>
 3    0  0.1667234E+001  0.1250000E+03  0.7546771E-02  0.1235069E+00
         21   -1    0    0  502  501  0.00000000000E+00  0.00000000000E+00  0.16013031584E+03  0.16013031584E+03  0.00000000000E+00 0.  1.
         21   -1    0    0  501  502 -0.00000000000E+00 -0.00000000000E+00 -0.24394194064E+02  0.24394194064E+02  0.00000000000E+00 0.  1.
         25    1    1    2    0    0  0.00000000000E+00  0.00000000000E+00  0.13573612177E+03  0.18452450990E+03  0.12500000000E+03 0.  0.
<mgrwt>
<rscale>  2 0.12500000E+03</rscale>
<asrwt>0</asrwt>
<pdfrwt beam="1">  1       21 0.24635433E-01 0.12500000E+03</pdfrwt>
<pdfrwt beam="2">  1       21 0.37529530E-02 0.12500000E+03</pdfrwt>
<totfact> 0.66636252E+06</totfact>
</mgrwt>
</event>
<event>
 3    0  0.1650725E+001  0.1250000E+03  0.7546771E-02  0.1235069E+00
         21   -1    0    0  502  501  0.00000000000E+00  0.00000000000E+00  0.24883284653E+02  0.24883284653E+02  0.00000000000E+00 0. -1.
         21   -1    0    0  501  502 -0.00000000000E+00 -0.00000000000E+00 -0.15698289251E+03  0.15698289251E+03  0.00000000000E+00 0. -1.
         25    1    1    2    0    0  0.00000000000E+00  0.00000000000E+00 -0.13209960785E+03  0.18186617716E+03  0.12500000000E+03 0.  0.
<mgrwt>
<rscale>  2 0.12500000E+03</rscale>
<asrwt>0</asrwt>
<pdfrwt beam="1">  1       21 0.38281976E-02 0.12500000E+03</pdfrwt>
<pdfrwt beam="2">  1       21 0.24151214E-01 0.12500000E+03</pdfrwt>
<totfact> 0.66938097E+06</totfact>
</mgrwt>
</event>
<event>
 3    0  0.1506077E+001  0.1250000E+03  0.7546771E-02  0.1235069E+00
         21   -1    0    0  502  501  0.00000000000E+00  0.00000000000E+00  0.38984840995E+03  0.38984840995E+03  0.00000000000E+00 0. -1.
         21   -1    0    0  501  502 -0.00000000000E+00 -0.00000000000E+00 -0.10019920308E+02  0.10019920308E+02  0.00000000000E+00 0. -1.
         25    1    1    2    0    0  0.00000000000E+00  0.00000000000E+00  0.37982848965E+03  0.39986833026E+03  0.12500000000E+03 0.  0.
<mgrwt>
<rscale>  2 0.12500000E+03</rscale>
<asrwt>0</asrwt>
<pdfrwt beam="1">  1       21 0.59976667E-01 0.12500000E+03</pdfrwt>
<pdfrwt beam="2">  1       21 0.15415265E-02 0.12500000E+03</pdfrwt>
<totfact> 0.48050090E+06</totfact>
</mgrwt>
</event>
<event>
 3    0  0.1607989E+001  0.1250000E+03  0.7546771E-02  0.1235069E+00
         21   -1    0    0  502  501  0.00000000000E+00  0.00000000000E+00  0.16434745377E+02  0.16434745377E+02  0.00000000000E+00 0. -1.
         21   -1    0    0  501  502 -0.00000000000E+00 -0.00000000000E+00 -0.23768241676E+03  0.23768241676E+03  0.00000000000E+00 0. -1.
         25    1    1    2    0    0  0.00000000000E+00  0.00000000000E+00 -0.22124767138E+03  0.25411716214E+03  0.12500000000E+03 0.  0.
<mgrwt>
<rscale>  2 0.12500000E+03</rscale>
<asrwt>0</asrwt>
<pdfrwt beam="1">  1       21 0.25284224E-02 0.12500000E+03</pdfrwt>
<pdfrwt beam="2">  1       21 0.36566526E-01 0.12500000E+03</pdfrwt>
<totfact> 0.59492715E+06</totfact>
</mgrwt>
</event>
<event>
 3    0  0.1540800E+001  0.1250000E+03  0.7546771E-02  0.1235069E+00
         21   -1    0    0  502  501  0.00000000000E+00  0.00000000000E+00  0.32244816515E+03  0.32244816515E+03  0.00000000000E+00 0. -1.
         21   -1    0    0  501  502 -0.00000000000E+00 -0.00000000000E+00 -0.12114350219E+02  0.12114350219E+02  0.00000000000E+00 0. -1.
         25    1    1    2    0    0  0.00000000000E+00  0.00000000000E+00  0.31033381493E+03  0.33456251536E+03  0.12500000000E+03 0.  0.
<mgrwt>
<rscale>  2 0.12500000E+03</rscale>
<asrwt>0</asrwt>
<pdfrwt beam="1">  1       21 0.49607404E-01 0.12500000E+03</pdfrwt>
<pdfrwt beam="2">  1       21 0.18637464E-02 0.12500000E+03</pdfrwt>
<totfact> 0.52699147E+06</totfact>
</mgrwt>
</event>
<event>
 3    0  0.1476725E+001  0.1250000E+03  0.7546771E-02  0.1235069E+00
         21   -1    0    0  502  501  0.00000000000E+00  0.00000000000E+00  0.52172158001E+03  0.52172158001E+03  0.00000000000E+00 0.  1.
         21   -1    0    0  501  502 -0.00000000000E+00 -0.00000000000E+00 -0.74872310245E+01  0.74872310245E+01  0.00000000000E+00 0.  1.
         25    1    1    2    0    0  0.00000000000E+00  0.00000000000E+00  0.51423434899E+03  0.52920881104E+03  0.12500000000E+03 0.  0.
<mgrwt>
<rscale>  2 0.12500000E+03</rscale>
<asrwt>0</asrwt>
<pdfrwt beam="1">  1       21 0.80264830E-01 0.12500000E+03</pdfrwt>
<pdfrwt beam="2">  1       21 0.11518821E-02 0.12500000E+03</pdfrwt>
<totfact> 0.40503066E+06</totfact>
</mgrwt>
</event>
<event>
 3    0  0.1445545E+001  0.1250000E+03  0.7546771E-02  0.1235069E+00
         21   -1    0    0  502  501  0.00000000000E+00  0.00000000000E+00  0.53888291127E+03  0.53888291127E+03  0.00000000000E+00 0.  1.
         21   -1    0    0  501  502 -0.00000000000E+00 -0.00000000000E+00 -0.72487917474E+01  0.72487917474E+01  0.00000000000E+00 0.  1.
         25    1    1    2    0    0  0.00000000000E+00  0.00000000000E+00  0.53163411952E+03  0.54613170302E+03  0.12500000000E+03 0.  0.
<mgrwt>
<rscale>  2 0.12500000E+03</rscale>
<asrwt>0</asrwt>
<pdfrwt beam="1">  1       21 0.82905032E-01 0.12500000E+03</pdfrwt>
<pdfrwt beam="2">  1       21 0.11151992E-02 0.12500000E+03</pdfrwt>
<totfact> 0.39647892E+06</totfact>
</mgrwt>
</event>
<event>
 3    0  0.1636257E+001  0.1250000E+03  0.7546771E-02  0.1235069E+00
         21   -1    0    0  502  501  0.00000000000E+00  0.00000000000E+00  0.17326251447E+03  0.17326251447E+03  0.00000000000E+00 0. -1.
         21   -1    0    0  501  502 -0.00000000000E+00 -0.00000000000E+00 -0.22545269021E+02  0.22545269021E+02  0.00000000000E+00 0. -1.
         25    1    1    2    0    0  0.00000000000E+00  0.00000000000E+00  0.15071724545E+03  0.19580778349E+03  0.12500000000E+03 0.  0.
<mgrwt>
<rscale>  2 0.12500000E+03</rscale>
<asrwt>0</asrwt>
<pdfrwt beam="1">  1       21 0.26655771E-01 0.12500000E+03</pdfrwt>
<pdfrwt beam="2">  1       21 0.34685030E-02 0.12500000E+03</pdfrwt>
<totfact> 0.65382722E+06</totfact>
</mgrwt>
</event>
<event>
 3    0  0.1591462E+001  0.1250000E+03  0.7546771E-02  0.1235069E+00
         21   -1    0    0  502  501  0.00000000000E+00  0.00000000000E+00  0.26720499172E+03  0.26720499172E+03  0.00000000000E+00 0.  1.
         21   -1    0    0  501  502 -0.00000000000E+00 -0.00000000000E+00 -0.14618925997E+02  0.14618925997E+02  0.00000000000E+00 0.  1.
         25    1    1    2    0    0  0.00000000000E+00  0.00000000000E+00  0.25258606573E+03  0.28182391772E+03  0.12500000000E+03 0.  0.
<mgrwt>
<rscale>  2 0.12500000E+03</rscale>
<asrwt>0</asrwt>
<pdfrwt beam="1">  1       21 0.41108457E-01 0.12500000E+03</pdfrwt>
<pdfrwt beam="2">  1       21 0.22490657E-02 0.12500000E+03</pdfrwt>
<totfact> 0.57001335E+06</totfact>
</mgrwt>
</event>
<event>
 3    0  0.1497726E+001  0.1250000E+03  0.7546771E-02  0.1235069E+00
         21   -1    0    0  502  501  0.00000000000E+00  0.00000000000E+00  0.39398685602E+03  0.39398685602E+03  0.00000000000E+00 0. -1.
         21   -1    0    0  501  502 -0.00000000000E+00 -0.00000000000E+00 -0.99146708585E+01  0.99146708585E+01  0.00000000000E+00 0. -1.
         25    1    1    2    0    0  0.00000000000E+00  0.00000000000E+00  0.38407218516E+03  0.40390152688E+03  0.12500000000E+03 0.  0.
<mgrwt>
<rscale>  2 0.12500000E+03</rscale>
<asrwt>0</asrwt>
<pdfrwt beam="1">  1       21 0.60613350E-01 0.12500000E+03</pdfrwt>
<pdfrwt beam="2">  1       21 0.15253343E-02 0.12500000E+03</pdfrwt>
<totfact> 0.47783644E+06</totfact>
</mgrwt>
</event>
<event>
 3    0  0.1628028E+001  0.1250000E+03  0.7546771E-02  0.1235069E+00
         21   -1    0    0  502  501  0.00000000000E+00  0.00000000000E+00  0.19984733762E+03  0.19984733762E+03  0.00000000000E+00 0. -1.
         21   -1    0    0  501  502 -0.00000000000E+00 -0.00000000000E+00 -0.19546169824E+02  0.19546169824E+02  0.00000000000E+00 0. -1.
         25    1    1    2    0    0  0.00000000000E+00  0.00000000000E+00  0.18030116780E+03  0.21939350744E+03  0.12500000000E+03 0.  0.
<mgrwt>
<rscale>  2 0.12500000E+03</rscale>
<asrwt>0</asrwt>
<pdfrwt beam="1">  1       21 0.30745743E-01 0.12500000E+03</pdfrwt>
<pdfrwt beam="2">  1       21 0.30071032E-02 0.12500000E+03</pdfrwt>
<totfact> 0.62884581E+06</totfact>
</mgrwt>
</event>
<event>
 3    0  0.1678764E+001  0.1250000E+03  0.7546771E-02  0.1235069E+00
         21   -1    0    0  502  501  0.00000000000E+00  0.00000000000E+00  0.11759470649E+03  0.11759470649E+03  0.00000000000E+00 0. -1.
         21   -1    0    0  501  502 -0.00000000000E+00 -0.00000000000E+00 -0.33217906796E+02  0.33217906796E+02  0.00000000000E+00 0. -1.
         25    1    1    2    0    0  0.00000000000E+00  0.00000000000E+00  0.84376799697E+02  0.15081261329E+03  0.12500000000E+03 0.  0.
<mgrwt>
<rscale>  2 0.12500000E+03</rscale>
<asrwt>0</asrwt>
<pdfrwt beam="1">  1       21 0.18091493E-01 0.12500000E+03</pdfrwt>
<pdfrwt beam="2">  1       21 0.51104473E-02 0.12500000E+03</pdfrwt>
<totfact> 0.70657271E+06</totfact>
</mgrwt>
</event>
<event>
 3    0  0.1692126E+001  0.1250000E+03  0.7546771E-02  0.1235069E+00
         21   -1    0    0  502  501  0.00000000000E+00  0.00000000000E+00  0.71427645385E+02  0.71427645385E+02  0.00000000000E+00 0. -1.
         21   -1    0    0  501  502 -0.00000000000E+00 -0.00000000000E+00 -0.54688209011E+02  0.54688209011E+02  0.00000000000E+00 0. -1.
         25    1    1    2    0    0  0.00000000000E+00  0.00000000000E+00  0.16739436374E+02  0.12611585440E+03  0.12500000000E+03 0.  0.
<mgrwt>
<rscale>  2 0.12500000E+03</rscale>
<asrwt>0</asrwt>
<pdfrwt beam="1">  1       21 0.10988869E-01 0.12500000E+03</pdfrwt>
<pdfrwt beam="2">  1       21 0.84135706E-02 0.12500000E+03</pdfrwt>
<totfact> 0.73890081E+06</totfact>
</mgrwt>
</event>
<event>
 3    0  0.1626494E+001  0.1250000E+03  0.7546771E-02  0.1235069E+00
         21   -1    0    0  502  501  0.00000000000E+00  0.00000000000E+00  0.18638585408E+02  0.18638585408E+02  0.00000000000E+00 0. -1.
         21   -1    0    0  501  502 -0.00000000000E+00 -0.00000000000E+00 -0.20957867319E+03  0.20957867319E+03  0.00000000000E+00 0. -1.
         25    1    1    2    0    0  0.00000000000E+00  0.00000000000E+00 -0.19094008778E+03  0.22821725860E+03  0.12500000000E+03 0.  0.
<mgrwt>
<rscale>  2 0.12500000E+03</rscale>
<asrwt>0</asrwt>
<pdfrwt beam="1">  1       21 0.28674746E-02 0.12500000E+03</pdfrwt>
<pdfrwt beam="2">  1       21 0.32242874E-01 0.12500000E+03</pdfrwt>
<totfact> 0.61991841E+06</totfact>
</mgrwt>
</event>
<event>
 3    0  0.1480800E+001  0.1250000E+03  0.7546771E-02  0.1235069E+00
         21   -1    0    0  502  501  0.00000000000E+00  0.00000000000E+00  0.89953526091E+01  0.89953526091E+01  0.00000000000E+00 0.  1.
         21   -1    0    0  501  502 -0.00000000000E+00 -0.00000000000E+00 -0.43425201543E+03  0.43425201543E+03  0.00000000000E+00 0.  1.
         25    1    1    2    0    0  0.00000000000E+00  0.00000000000E+00 -0.42525666282E+03  0.44324736804E+03  0.12500000000E+03 0.  0.
<mgrwt>
<rscale>  2 0.12500000E+03</rscale>
<asrwt>0</asrwt>
<pdfrwt beam="1">  1       21 0.13839006E-02 0.12500000E+03</pdfrwt>
<pdfrwt beam="2">  1       21 0.66807992E-01 0.12500000E+03</pdfrwt>
<totfact> 0.45299110E+06</totfact>
</mgrwt>
</event>
<event>
 3    0  0.1493401E+001  0.1250000E+03  0.7546771E-02  0.1235069E+00
         21   -1    0    0  502  501  0.00000000000E+00  0.00000000000E+00  0.85882495610E+01  0.85882495610E+01  0.00000000000E+00 0.  1.
         21   -1    0    0  501  502 -0.00000000000E+00 -0.00000000000E+00 -0.45483657319E+03  0.45483657319E+03  0.00000000000E+00 0.  1.
         25    1    1    2    0    0  0.00000000000E+00  0.00000000000E+00 -0.44624832362E+03  0.46342482275E+03  0.12500000000E+03 0.  0.
<mgrwt>
<rscale>  2 0.12500000E+03</rscale>
<asrwt>0</asrwt>
<pdfrwt beam="1">  1       21 0.13212693E-02 0.12500000E+03</pdfrwt>
<pdfrwt beam="2">  1       21 0.69974850E-01 0.12500000E+03</pdfrwt>
<totfact> 0.44099707E+06</totfact>
</mgrwt>
</event>
<event>
 3    0  0.1574809E+001  0.1250000E+03  0.7546771E-02  0.1235069E+00
         21   -1    0    0  502  501  0.00000000000E+00  0.00000000000E+00  0.13078730709E+02  0.13078730709E+02  0.00000000000E+00 0.  1.
         21   -1    0    0  501  502 -0.00000000000E+00 -0.00000000000E+00 -0.29867194967E+03  0.29867194967E+03  0.00000000000E+00 0.  1.
         25    1    1    2    0    0  0.00000000000E+00  0.00000000000E+00 -0.28559321897E+03  0.31175068038E+03  0.12500000000E+03 0.  0.
<mgrwt>
<rscale>  2 0.12500000E+03</rscale>
<asrwt>0</asrwt>
<pdfrwt beam="1">  1       21 0.20121124E-02 0.12500000E+03</pdfrwt>
<pdfrwt beam="2">  1       21 0.45949531E-01 0.12500000E+03</pdfrwt>
<totfact> 0.54493566E+06</totfact>
</mgrwt>
</event>
<event>
 3    0  0.1368989E+001  0.1250000E+03  0.7546771E-02  0.1235069E+00
         21   -1    0    0  502  501  0.00000000000E+00  0.00000000000E+00  0.10029874559E+04  0.10029874559E+04  0.00000000000E+00 0. -1.
         21   -1    0    0  501  502 -0.00000000000E+00 -0.00000000000E+00 -0.38946150094E+01  0.38946150094E+01  0.00000000000E+00 0. -1.
         25    1    1    2    0    0  0.00000000000E+00  0.00000000000E+00  0.99909284089E+03  0.10068820709E+04  0.12500000000E+03 0.  0.
<mgrwt>
<rscale>  2 0.12500000E+03</rscale>
<asrwt>0</asrwt>
<pdfrwt beam="1">  1       21 0.15430556E+00 0.12500000E+03</pdfrwt>
<pdfrwt beam="2">  1       21 0.59917234E-03 0.12500000E+03</pdfrwt>
<totfact> 0.23447614E+06</totfact>
</mgrwt>
</event>
<event>
 3    0  0.1654495E+001  0.1250000E+03  0.7546771E-02  0.1235069E+00
         21   -1    0    0  502  501  0.00000000000E+00  0.00000000000E+00  0.14943023480E+03  0.14943023480E+03  0.00000000000E+00 0. -1.
         21   -1    0    0  501  502 -0.00000000000E+00 -0.00000000000E+00 -0.26140961401E+02  0.26140961401E+02  0.00000000000E+00 0. -1.
         25    1    1    2    0    0  0.00000000000E+00  0.00000000000E+00  0.12328927340E+03  0.17557119620E+03  0.12500000000E+03 0.  0.
<mgrwt>
<rscale>  2 0.12500000E+03</rscale>
<asrwt>0</asrwt>
<pdfrwt beam="1">  1       21 0.22989266E-01 0.12500000E+03</pdfrwt>
<pdfrwt beam="2">  1       21 0.40216864E-02 0.12500000E+03</pdfrwt>
<totfact> 0.67663263E+06</totfact>
</mgrwt>
</event>
<event>
 3    0  0.1683595E+001  0.1250000E+03  0.7546771E-02  0.1235069E+00
         21   -1    0    0  502  501  0.00000000000E+00  0.00000000000E+00  0.97896793865E+02  0.97896793865E+02  0.00000000000E+00 0. -1.
         21   -1    0    0  501  502 -0.00000000000E+00 -0.00000000000E+00 -0.39901715325E+02  0.39901715325E+02  0.00000000000E+00 0. -1.
         25    1    1    2    0    0  0.00000000000E+00  0.00000000000E+00  0.57995078540E+02  0.13779850919E+03  0.12500000000E+03 0.  0.
<mgrwt>
<rscale>  2 0.12500000E+03</rscale>
<asrwt>0</asrwt>
<pdfrwt beam="1">  1       21 0.15061045E-01 0.12500000E+03</pdfrwt>
<pdfrwt beam="2">  1       21 0.61387255E-02 0.12500000E+03</pdfrwt>
<totfact> 0.72328006E+06</totfact>
</mgrwt>
</event>
<event>
 3    0  0.1570300E+001  0.1250000E+03  0.7546771E-02  0.1235069E+00
         21   -1    0    0  502  501  0.00000000000E+00  0.00000000000E+00  0.32972947146E+03  0.32972947146E+03  0.00000000000E+00 0.  1.
         21   -1    0    0  501  502 -0.00000000000E+00 -0.00000000000E+00 -0.11846833050E+02  0.11846833050E+02  0.00000000000E+00 0.  1.
         25    1    1    2    0    0  0.00000000000E+00  0.00000000000E+00  0.31788263841E+03  0.34157630451E+03  0.12500000000E+03 0.  0.
<mgrwt>
<rscale>  2 0.12500000E+03</rscale>
<asrwt>0</asrwt>
<pdfrwt beam="1">  1       21 0.50727604E-01 0.12500000E+03</pdfrwt>
<pdfrwt beam="2">  1       21 0.18225900E-02 0.12500000E+03</pdfrwt>
<totfact> 0.52166629E+06</totfact>
</mgrwt>
</event>
<event>
 3    0  0.1546998E+001  0.1250000E+03  0.7546771E-02  0.1235069E+00
         21   -1    0    0  502  501  0.00000000000E+00  0.00000000000E+00  0.33016597446E+03  0.33016597446E+03  0.00000000000E+00 0. -1.
         21   -1    0    0  501  502 -0.00000000000E+00 -0.00000000000E+00 -0.11831170690E+02  0.11831170690E+02  0.00000000000E+00 0. -1.
         25    1    1    2    0    0  0.00000000000E+00  0.00000000000E+00  0.31833480377E+03  0.34199714515E+03  0.12500000000E+03 0.  0.
<mgrwt>
<rscale>  2 0.12500000E+03</rscale>
<asrwt>0</asrwt>
<pdfrwt beam="1">  1       21 0.50794758E-01 0.12500000E+03</pdfrwt>
<pdfrwt beam="2">  1       21 0.18201804E-02 0.12500000E+03</pdfrwt>
<totfact> 0.52134954E+06</totfact>
</mgrwt>
</event>
<event>
 3    0  0.1521908E+001  0.1250000E+03  0.7546771E-02  0.1235069E+00
         21   -1    0    0  502  501  0.00000000000E+00  0.00000000000E+00  0.11098330646E+02  0.11098330646E+02  0.00000000000E+00 0.  1.
         21   -1    0    0  501  502 -0.00000000000E+00 -0.00000000000E+00 -0.35196734758E+03  0.35196734758E+03  0.00000000000E+00 0.  1.
         25    1    1    2    0    0  0.00000000000E+00  0.00000000000E+00 -0.34086901694E+03  0.36306567823E+03  0.12500000000E+03 0.  0.
<mgrwt>
<rscale>  2 0.12500000E+03</rscale>
<asrwt>0</asrwt>
<pdfrwt beam="1">  1       21 0.17074355E-02 0.12500000E+03</pdfrwt>
<pdfrwt beam="2">  1       21 0.54148824E-01 0.12500000E+03</pdfrwt>
<totfact> 0.50587734E+06</totfact>
</mgrwt>
</event>
<event>
 3    0  0.1368989E+001  0.1250000E+03  0.7546771E-02  0.1235069E+00
         21   -1    0    0  502  501  0.00000000000E+00  0.00000000000E+00  0.29475361841E+01  0.29475361841E+01  0.00000000000E+00 0.  1.
         21   -1    0    0  501  502 -0.00000000000E+00 -0.00000000000E+00 -0.13252593882E+04  0.13252593882E+04  0.00000000000E+00 0.  1.
         25    1    1    2    0    0  0.00000000000E+00  0.00000000000E+00 -0.13223118520E+04  0.13282069244E+04  0.12500000000E+03 0.  0.
<mgrwt>
<rscale>  2 0.12500000E+03</rscale>
<asrwt>0</asrwt>
<pdfrwt beam="1">  1       21 0.45346776E-03 0.12500000E+03</pdfrwt>
<pdfrwt beam="2">  1       21 0.20388576E+00 0.12500000E+03</pdfrwt>
<totfact> 0.16753411E+06</totfact>
</mgrwt>
</event>
<event>
 3    0  0.1696564E+001  0.1250000E+03  0.7546771E-02  0.1235069E+00
         21   -1    0    0  502  501  0.00000000000E+00  0.00000000000E+00  0.12055560068E+03  0.12055560068E+03  0.00000000000E+00 0.  1.
         21   -1    0    0  501  502 -0.00000000000E+00 -0.00000000000E+00 -0.32402061605E+02  0.32402061605E+02  0.00000000000E+00 0.  1.
         25    1    1    2    0    0  0.00000000000E+00  0.00000000000E+00  0.88153539073E+02  0.15295766228E+03  0.12500000000E+03 0.  0.
<mgrwt>
<rscale>  2 0.12500000E+03</rscale>
<asrwt>0</asrwt>
<pdfrwt beam="1">  1       21 0.18547015E-01 0.12500000E+03</pdfrwt>
<pdfrwt beam="2">  1       21 0.49849326E-02 0.12500000E+03</pdfrwt>
<totfact> 0.70389612E+06</totfact>
</mgrwt>
</event>
<event>
 3    0  0.1595145E+001  0.1250000E+03  0.7546771E-02  0.1235069E+00
         21   -1    0    0  502  501  0.00000000000E+00  0.00000000000E+00  0.30797843682E+03  0.30797843682E+03  0.00000000000E+00 0.  1.
         21   -1    0    0  501  502 -0.00000000000E+00 -0.00000000000E+00 -0.12683517847E+02  0.12683517847E+02  0.00000000000E+00 0.  1.
         25    1    1    2    0    0  0.00000000000E+00  0.00000000000E+00  0.29529491897E+03  0.32066195467E+03  0.12500000000E+03 0.  0.
<mgrwt>
<rscale>  2 0.12500000E+03</rscale>
<asrwt>0</asrwt>
<pdfrwt beam="1">  1       21 0.47381292E-01 0.12500000E+03</pdfrwt>
<pdfrwt beam="2">  1       21 0.19513107E-02 0.12500000E+03</pdfrwt>
<totfact> 0.53780930E+06</totfact>
</mgrwt>
</event>
<event>
 3    0  0.1713790E+001  0.1250000E+03  0.7546771E-02  0.1235069E+00
         21   -1    0    0  502  501  0.00000000000E+00  0.00000000000E+00  0.43727055748E+02  0.43727055748E+02  0.00000000000E+00 0.  1.
         21   -1    0    0  501  502 -0.00000000000E+00 -0.00000000000E+00 -0.89332563859E+02  0.89332563859E+02  0.00000000000E+00 0.  1.
         25    1    1    2    0    0  0.00000000000E+00  0.00000000000E+00 -0.45605508111E+02  0.13305961961E+03  0.12500000000E+03 0.  0.
<mgrwt>
<rscale>  2 0.12500000E+03</rscale>
<asrwt>0</asrwt>
<pdfrwt beam="1">  1       21 0.67272393E-02 0.12500000E+03</pdfrwt>
<pdfrwt beam="2">  1       21 0.13743471E-01 0.12500000E+03</pdfrwt>
<totfact> 0.72954438E+06</totfact>
</mgrwt>
</event>
<event>
 3    0  0.1716185E+001  0.1250000E+03  0.7546771E-02  0.1235069E+00
         21   -1    0    0  502  501  0.00000000000E+00  0.00000000000E+00  0.74914055794E+02  0.74914055794E+02  0.00000000000E+00 0.  1.
         21   -1    0    0  501  502 -0.00000000000E+00 -0.00000000000E+00 -0.52143085281E+02  0.52143085281E+02  0.00000000000E+00 0.  1.
         25    1    1    2    0    0  0.00000000000E+00  0.00000000000E+00  0.22770970514E+02  0.12705714107E+03  0.12500000000E+03 0.  0.
<mgrwt>
<rscale>  2 0.12500000E+03</rscale>
<asrwt>0</asrwt>
<pdfrwt beam="1">  1       21 0.11525239E-01 0.12500000E+03</pdfrwt>
<pdfrwt beam="2">  1       21 0.80220131E-02 0.12500000E+03</pdfrwt>
<totfact> 0.73761360E+06</totfact>
</mgrwt>
</event>
<event>
 3    0  0.1488283E+001  0.1250000E+03  0.7546771E-02  0.1235069E+00
         21   -1    0    0  502  501  0.00000000000E+00  0.00000000000E+00  0.87498156200E+01  0.87498156200E+01  0.00000000000E+00 0. -1.
         21   -1    0    0  501  502 -0.00000000000E+00 -0.00000000000E+00 -0.44643797877E+03  0.44643797877E+03  0.00000000000E+00 0. -1.
         25    1    1    2    0    0  0.00000000000E+00  0.00000000000E+00 -0.43768816315E+03  0.45518779439E+03  0.12500000000E+03 0.  0.
<mgrwt>
<rscale>  2 0.12500000E+03</rscale>
<asrwt>0</asrwt>
<pdfrwt beam="1">  1       21 0.13461249E-02 0.12500000E+03</pdfrwt>
<pdfrwt beam="2">  1       21 0.68682797E-01 0.12500000E+03</pdfrwt>
<totfact> 0.44583450E+06</totfact>
</mgrwt>
</event>
<event>
 3    0  0.1486915E+001  0.1250000E+03  0.7546771E-02  0.1235069E+00
         21   -1    0    0  502  501  0.00000000000E+00  0.00000000000E+00  0.51622382470E+03  0.51622382470E+03  0.00000000000E+00 0.  1.
         21   -1    0    0  501  502 -0.00000000000E+00 -0.00000000000E+00 -0.75669696226E+01  0.75669696226E+01  0.00000000000E+00 0.  1.
         25    1    1    2    0    0  0.00000000000E+00  0.00000000000E+00  0.50865685508E+03  0.52379079433E+03  0.12500000000E+03 0.  0.
<mgrwt>
<rscale>  2 0.12500000E+03</rscale>
<asrwt>0</asrwt>
<pdfrwt beam="1">  1       21 0.79419022E-01 0.12500000E+03</pdfrwt>
<pdfrwt beam="2">  1       21 0.11641496E-02 0.12500000E+03</pdfrwt>
<totfact> 0.40782560E+06</totfact>
</mgrwt>
</event>
<event>
 3    0  0.1543030E+001  0.1250000E+03  0.7546771E-02  0.1235069E+00
         21   -1    0    0  502  501  0.00000000000E+00  0.00000000000E+00  0.10663963851E+02  0.10663963851E+02  0.00000000000E+00 0.  1.
         21   -1    0    0  501  502 -0.00000000000E+00 -0.00000000000E+00 -0.36630375484E+03  0.36630375484E+03  0.00000000000E+00 0.  1.
         25    1    1    2    0    0  0.00000000000E+00  0.00000000000E+00 -0.35563979099E+03  0.37696771870E+03  0.12500000000E+03 0.  0.
<mgrwt>
<rscale>  2 0.12500000E+03</rscale>
<asrwt>0</asrwt>
<pdfrwt beam="1">  1       21 0.16406096E-02 0.12500000E+03</pdfrwt>
<pdfrwt beam="2">  1       21 0.56354432E-01 0.12500000E+03</pdfrwt>
<totfact> 0.49606396E+06</totfact>
</mgrwt>
</event>
<event>
 3    0  0.1718229E+001  0.1250000E+03  0.7546771E-02  0.1235069E+00
         21   -1    0    0  502  501  0.00000000000E+00  0.00000000000E+00  0.68929635282E+02  0.68929635282E+02  0.00000000000E+00 0.  1.
         21   -1    0    0  501  502 -0.00000000000E+00 -0.00000000000E+00 -0.56670109801E+02  0.56670109801E+02  0.00000000000E+00 0.  1.
         25    1    1    2    0    0  0.00000000000E+00  0.00000000000E+00  0.12259525481E+02  0.12559974508E+03  0.12500000000E+03 0.  0.
<mgrwt>
<rscale>  2 0.12500000E+03</rscale>
<asrwt>0</asrwt>
<pdfrwt beam="1">  1       21 0.10604559E-01 0.12500000E+03</pdfrwt>
<pdfrwt beam="2">  1       21 0.87184784E-02 0.12500000E+03</pdfrwt>
<totfact> 0.73961478E+06</totfact>
</mgrwt>
</event>
<event>
 3    0  0.1515809E+001  0.1250000E+03  0.7546771E-02  0.1235069E+00
         21   -1    0    0  502  501  0.00000000000E+00  0.00000000000E+00  0.39573255679E+03  0.39573255679E+03  0.00000000000E+00 0.  1.
         21   -1    0    0  501  502 -0.00000000000E+00 -0.00000000000E+00 -0.98709341272E+01  0.98709341272E+01  0.00000000000E+00 0.  1.
         25    1    1    2    0    0  0.00000000000E+00  0.00000000000E+00  0.38586162266E+03  0.40560349091E+03  0.12500000000E+03 0.  0.
<mgrwt>
<rscale>  2 0.12500000E+03</rscale>
<asrwt>0</asrwt>
<pdfrwt beam="1">  1       21 0.60881920E-01 0.12500000E+03</pdfrwt>
<pdfrwt beam="2">  1       21 0.15186056E-02 0.12500000E+03</pdfrwt>
<totfact> 0.47671890E+06</totfact>
</mgrwt>
</event>
<event>
 3    0  0.1513585E+001  0.1250000E+03  0.7546771E-02  0.1235069E+00
         21   -1    0    0  502  501  0.00000000000E+00  0.00000000000E+00  0.11305245501E+02  0.11305245501E+02  0.00000000000E+00 0. -1.
         21   -1    0    0  501  502 -0.00000000000E+00 -0.00000000000E+00 -0.34552544653E+03  0.34552544653E+03  0.00000000000E+00 0. -1.
         25    1    1    2    0    0  0.00000000000E+00  0.00000000000E+00 -0.33422020103E+03  0.35683069203E+03  0.12500000000E+03 0.  0.
<mgrwt>
<rscale>  2 0.12500000E+03</rscale>
<asrwt>0</asrwt>
<pdfrwt beam="1">  1       21 0.17392685E-02 0.12500000E+03</pdfrwt>
<pdfrwt beam="2">  1       21 0.53157763E-01 0.12500000E+03</pdfrwt>
<totfact> 0.51037888E+06</totfact>
</mgrwt>
</event>
<event>
 3    0  0.1368989E+001  0.1250000E+03  0.7546771E-02  0.1235069E+00
         21   -1    0    0  502  501  0.00000000000E+00  0.00000000000E+00  0.33758989847E+01  0.33758989847E+01  0.00000000000E+00 0. -1.
         21   -1    0    0  501  502 -0.00000000000E+00 -0.00000000000E+00 -0.11570991957E+04  0.11570991957E+04  0.00000000000E+00 0. -1.
         25    1    1    2    0    0  0.00000000000E+00  0.00000000000E+00 -0.11537232967E+04  0.11604750947E+04  0.12500000000E+03 0.  0.
<mgrwt>
<rscale>  2 0.12500000E+03</rscale>
<asrwt>0</asrwt>
<pdfrwt beam="1">  1       21 0.51936927E-03 0.12500000E+03</pdfrwt>
<pdfrwt beam="2">  1       21 0.17801519E+00 0.12500000E+03</pdfrwt>
<totfact> 0.19949299E+06</totfact>
</mgrwt>
</event>
<event>
 3    0  0.1710329E+001  0.1250000E+03  0.7546771E-02  0.1235069E+00
         21   -1    0    0  502  501  0.00000000000E+00  0.00000000000E+00  0.40600687299E+02  0.40600687299E+02  0.00000000000E+00 0.  1.
         21   -1    0    0  501  502 -0.00000000000E+00 -0.00000000000E+00 -0.96211425468E+02  0.96211425468E+02  0.00000000000E+00 0.  1.
         25    1    1    2    0    0  0.00000000000E+00  0.00000000000E+00 -0.55610738169E+02  0.13681211277E+03  0.12500000000E+03 0.  0.
<mgrwt>
<rscale>  2 0.12500000E+03</rscale>
<asrwt>0</asrwt>
<pdfrwt beam="1">  1       21 0.62462596E-02 0.12500000E+03</pdfrwt>
<pdfrwt beam="2">  1       21 0.14801758E-01 0.12500000E+03</pdfrwt>
<totfact> 0.72457415E+06</totfact>
</mgrwt>
</event>
<event>
 3    0  0.1368989E+001  0.1250000E+03  0.7546771E-02  0.1235069E+00
         21   -1    0    0  502  501  0.00000000000E+00  0.00000000000E+00  0.37765232157E+01  0.37765232157E+01  0.00000000000E+00 0. -1.
         21   -1    0    0  501  502 -0.00000000000E+00 -0.00000000000E+00 -0.10343508505E+04  0.10343508505E+04  0.00000000000E+00 0. -1.
         25    1    1    2    0    0  0.00000000000E+00  0.00000000000E+00 -0.10305743273E+04  0.10381273737E+04  0.12500000000E+03 0.  0.
<mgrwt>
<rscale>  2 0.12500000E+03</rscale>
<asrwt>0</asrwt>
<pdfrwt beam="1">  1       21 0.58100374E-03 0.12500000E+03</pdfrwt>
<pdfrwt beam="2">  1       21 0.15913085E+00 0.12500000E+03</pdfrwt>
<totfact> 0.22682411E+06</totfact>
</mgrwt>
</event>
<event>
 3    0  0.1693120E+001  0.1250000E+03  0.7546771E-02  0.1235069E+00
         21   -1    0    0  502  501  0.00000000000E+00  0.00000000000E+00  0.80028789383E+02  0.80028789383E+02  0.00000000000E+00 0. -1.
         21   -1    0    0  501  502 -0.00000000000E+00 -0.00000000000E+00 -0.48810559676E+02  0.48810559676E+02  0.00000000000E+00 0. -1.
         25    1    1    2    0    0  0.00000000000E+00  0.00000000000E+00  0.31218229707E+02  0.12883934906E+03  0.12500000000E+03 0.  0.
<mgrwt>
<rscale>  2 0.12500000E+03</rscale>
<asrwt>0</asrwt>
<pdfrwt beam="1">  1       21 0.12312121E-01 0.12500000E+03</pdfrwt>
<pdfrwt beam="2">  1       21 0.75093169E-02 0.12500000E+03</pdfrwt>
<totfact> 0.73520465E+06</totfact>
</mgrwt>
</event>
<event>
 3    0  0.1663274E+001  0.1250000E+03  0.7546771E-02  0.1235069E+00
         21   -1    0    0  502  501  0.00000000000E+00  0.00000000000E+00  0.18519704167E+03  0.18519704167E+03  0.00000000000E+00 0.  1.
         21   -1    0    0  501  502 -0.00000000000E+00 -0.00000000000E+00 -0.21092399558E+02  0.21092399558E+02  0.00000000000E+00 0.  1.
         25    1    1    2    0    0  0.00000000000E+00  0.00000000000E+00  0.16410464212E+03  0.20628944123E+03  0.12500000000E+03 0.  0.
<mgrwt>
<rscale>  2 0.12500000E+03</rscale>
<asrwt>0</asrwt>
<pdfrwt beam="1">  1       21 0.28491851E-01 0.12500000E+03</pdfrwt>
<pdfrwt beam="2">  1       21 0.32449847E-02 0.12500000E+03</pdfrwt>
<totfact> 0.64252056E+06</totfact>
</mgrwt>
</event>
<event>
 3    0  0.1368989E+001  0.1250000E+03  0.7546771E-02  0.1235069E+00
         21   -1    0    0  502  501  0.00000000000E+00  0.00000000000E+00  0.81815186281E+03  0.81815186281E+03  0.00000000000E+00 0. -1.
         21   -1    0    0  501  502 -0.00000000000E+00 -0.00000000000E+00 -0.47744803594E+01  0.47744803594E+01  0.00000000000E+00 0. -1.
         25    1    1    2    0    0  0.00000000000E+00  0.00000000000E+00  0.81337738245E+03  0.82292634317E+03  0.12500000000E+03 0.  0.
<mgrwt>
<rscale>  2 0.12500000E+03</rscale>
<asrwt>0</asrwt>
<pdfrwt beam="1">  1       21 0.12586941E+00 0.12500000E+03</pdfrwt>
<pdfrwt beam="2">  1       21 0.73453609E-03 0.12500000E+03</pdfrwt>
<totfact> 0.28617193E+06</totfact>
</mgrwt>
</event>
<event>
 3    0  0.1501315E+001  0.1250000E+03  0.7546771E-02  0.1235069E+00
         21   -1    0    0  502  501  0.00000000000E+00  0.00000000000E+00  0.45153738704E+03  0.45153738704E+03  0.00000000000E+00 0.  1.
         21   -1    0    0  501  502 -0.00000000000E+00 -0.00000000000E+00 -0.86510001433E+01  0.86510001433E+01  0.00000000000E+00 0.  1.
         25    1    1    2    0    0  0.00000000000E+00  0.00000000000E+00  0.44288638690E+03  0.46018838719E+03  0.12500000000E+03 0.  0.
<mgrwt>
<rscale>  2 0.12500000E+03</rscale>
<asrwt>0</asrwt>
<pdfrwt beam="1">  1       21 0.69467272E-01 0.12500000E+03</pdfrwt>
<pdfrwt beam="2">  1       21 0.13309234E-02 0.12500000E+03</pdfrwt>
<totfact> 0.44288836E+06</totfact>
</mgrwt>
</event>
<event>
 3    0  0.1651586E+001  0.1250000E+03  0.7546771E-02  0.1235069E+00
         21   -1    0    0  502  501  0.00000000000E+00  0.00000000000E+00  0.19983131425E+03  0.19983131425E+03  0.00000000000E+00 0.  1.
         21   -1    0    0  501  502 -0.00000000000E+00 -0.00000000000E+00 -0.19547737124E+02  0.19547737124E+02  0.00000000000E+00 0.  1.
         25    1    1    2    0    0  0.00000000000E+00  0.00000000000E+00  0.18028357712E+03  0.21937905137E+03  0.12500000000E+03 0.  0.
<mgrwt>
<rscale>  2 0.12500000E+03</rscale>
<asrwt>0</asrwt>
<pdfrwt beam="1">  1       21 0.30743278E-01 0.12500000E+03</pdfrwt>
<pdfrwt beam="2">  1       21 0.30073443E-02 0.12500000E+03</pdfrwt>
<totfact> 0.62886062E+06</totfact>
</mgrwt>
</event>
<event>
 3    0  0.1461313E+001  0.1250000E+03  0.7546771E-02  0.1235069E+00
         21   -1    0    0  502  501  0.00000000000E+00  0.00000000000E+00  0.47246201449E+03  0.47246201449E+03  0.00000000000E+00 0.  1.
         21   -1    0    0  501  502 -0.00000000000E+00 -0.00000000000E+00 -0.82678604421E+01  0.82678604421E+01  0.00000000000E+00 0.  1.
         25    1    1    2    0    0  0.00000000000E+00  0.00000000000E+00  0.46419415405E+03  0.48072987493E+03  0.12500000000E+03 0.  0.
<mgrwt>
<rscale>  2 0.12500000E+03</rscale>
<asrwt>0</asrwt>
<pdfrwt beam="1">  1       21 0.72686442E-01 0.12500000E+03</pdfrwt>
<pdfrwt beam="2">  1       21 0.12719789E-02 0.12500000E+03</pdfrwt>
<totfact> 0.43108798E+06</totfact>
</mgrwt>
</event>
<event>
 3    0  0.1368989E+001  0.1250000E+03  0.7546771E-02  0.1235069E+00
         21   -1    0    0  502  501  0.00000000000E+00  0.00000000000E+00  0.46825801775E+01  0.46825801775E+01  0.00000000000E+00 0.  1.
         21   -1    0    0  501  502 -0.00000000000E+00 -0.00000000000E+00 -0.83420888739E+03  0.83420888739E+03  0.00000000000E+00 0.  1.
         25    1    1    2    0    0  0.00000000000E+00  0.00000000000E+00 -0.82952630721E+03  0.83889146757E+03  0.12500000000E+03 0.  0.
<mgrwt>
<rscale>  2 0.12500000E+03</rscale>
<asrwt>0</asrwt>
<pdfrwt beam="1">  1       21 0.72039695E-03 0.12500000E+03</pdfrwt>
<pdfrwt beam="2">  1       21 0.12833983E+00 0.12500000E+03</pdfrwt>
<totfact> 0.28114132E+06</totfact>
</mgrwt>
</event>
<event>
 3    0  0.1590062E+001  0.1250000E+03  0.7546771E-02  0.1235069E+00
         21   -1    0    0  502  501  0.00000000000E+00  0.00000000000E+00  0.16738992909E+02  0.16738992909E+02  0.00000000000E+00 0. -1.
         21   -1    0    0  501  502 -0.00000000000E+00 -0.00000000000E+00 -0.23336230687E+03  0.23336230687E+03  0.00000000000E+00 0. -1.
         25    1    1    2    0    0  0.00000000000E+00  0.00000000000E+00 -0.21662331396E+03  0.25010129978E+03  0.12500000000E+03 0.  0.
<mgrwt>
<rscale>  2 0.12500000E+03</rscale>
<asrwt>0</asrwt>
<pdfrwt beam="1">  1       21 0.25752297E-02 0.12500000E+03</pdfrwt>
<pdfrwt beam="2">  1       21 0.35901893E-01 0.12500000E+03</pdfrwt>
<totfact> 0.59868653E+06</totfact>
</mgrwt>
</event>
<event>
 3    0  0.1619501E+001  0.1250000E+03  0.7546771E-02  0.1235069E+00
         21   -1    0    0  502  501  0.00000000000E+00  0.00000000000E+00  0.19185412393E+02  0.19185412393E+02  0.00000000000E+00 0. -1.
         21   -1    0    0  501  502 -0.00000000000E+00 -0.00000000000E+00 -0.20360521421E+03  0.20360521421E+03  0.00000000000E+00 0. -1.
         25    1    1    2    0    0  0.00000000000E+00  0.00000000000E+00 -0.18441980182E+03  0.22279062660E+03  0.12500000000E+03 0.  0.
<mgrwt>
<rscale>  2 0.12500000E+03</rscale>
<asrwt>0</asrwt>
<pdfrwt beam="1">  1       21 0.29516020E-02 0.12500000E+03</pdfrwt>
<pdfrwt beam="2">  1       21 0.31323878E-01 0.12500000E+03</pdfrwt>
<totfact> 0.62538430E+06</totfact>
</mgrwt>
</event>
<event>
 3    0  0.1368989E+001  0.1250000E+03  0.7546771E-02  0.1235069E+00
         21   -1    0    0  502  501  0.00000000000E+00  0.00000000000E+00  0.12240040868E+04  0.12240040868E+04  0.00000000000E+00 0. -1.
         21   -1    0    0  501  502 -0.00000000000E+00 -0.00000000000E+00 -0.31913700633E+01  0.31913700633E+01  0.00000000000E+00 0. -1.
         25    1    1    2    0    0  0.00000000000E+00  0.00000000000E+00  0.12208127167E+04  0.12271954569E+04  0.12500000000E+03 0.  0.
<mgrwt>
<rscale>  2 0.12500000E+03</rscale>
<asrwt>0</asrwt>
<pdfrwt beam="1">  1       21 0.18830795E+00 0.12500000E+03</pdfrwt>
<pdfrwt beam="2">  1       21 0.49098098E-03 0.12500000E+03</pdfrwt>
<totfact> 0.18609765E+06</totfact>
</mgrwt>
</event>
<event>
 3    0  0.1667804E+001  0.1250000E+03  0.7546771E-02  0.1235069E+00
         21   -1    0    0  502  501  0.00000000000E+00  0.00000000000E+00  0.12267196351E+03  0.12267196351E+03  0.00000000000E+00 0. -1.
         21   -1    0    0  501  502 -0.00000000000E+00 -0.00000000000E+00 -0.31843054339E+02  0.31843054339E+02  0.00000000000E+00 0. -1.
         25    1    1    2    0    0  0.00000000000E+00  0.00000000000E+00  0.90828909173E+02  0.15451501785E+03  0.12500000000E+03 0.  0.
<mgrwt>
<rscale>  2 0.12500000E+03</rscale>
<asrwt>0</asrwt>
<pdfrwt beam="1">  1       21 0.18872610E-01 0.12500000E+03</pdfrwt>
<pdfrwt beam="2">  1       21 0.48989315E-02 0.12500000E+03</pdfrwt>
<totfact> 0.70195986E+06</totfact>
</mgrwt>
</event>
<event>
 3    0  0.1368989E+001  0.1250000E+03  0.7546771E-02  0.1235069E+00
         21   -1    0    0  502  501  0.00000000000E+00  0.00000000000E+00  0.49273046271E+01  0.49273046271E+01  0.00000000000E+00 0.  1.
         21   -1    0    0  501  502 -0.00000000000E+00 -0.00000000000E+00 -0.79277623278E+03  0.79277623278E+03  0.00000000000E+00 0.  1.
         25    1    1    2    0    0  0.00000000000E+00  0.00000000000E+00 -0.78784892815E+03  0.79770353740E+03  0.12500000000E+03 0.  0.
<mgrwt>
<rscale>  2 0.12500000E+03</rscale>
<asrwt>0</asrwt>
<pdfrwt beam="1">  1       21 0.75804644E-03 0.12500000E+03</pdfrwt>
<pdfrwt beam="2">  1       21 0.12196564E+00 0.12500000E+03</pdfrwt>
<totfact> 0.29439030E+06</totfact>
</mgrwt>
</event>
<event>
 3    0  0.1571555E+001  0.1250000E+03  0.7546771E-02  0.1235069E+00
         21   -1    0    0  502  501  0.00000000000E+00  0.00000000000E+00  0.14670863233E+02  0.14670863233E+02  0.00000000000E+00 0. -1.
         21   -1    0    0  501  502 -0.00000000000E+00 -0.00000000000E+00 -0.26625904270E+03  0.26625904270E+03  0.00000000000E+00 0. -1.
         25    1    1    2    0    0  0.00000000000E+00  0.00000000000E+00 -0.25158817947E+03  0.28092990593E+03  0.12500000000E+03 0.  0.
<mgrwt>
<rscale>  2 0.12500000E+03</rscale>
<asrwt>0</asrwt>
<pdfrwt beam="1">  1       21 0.22570559E-02 0.12500000E+03</pdfrwt>
<pdfrwt beam="2">  1       21 0.40962930E-01 0.12500000E+03</pdfrwt>
<totfact> 0.57079168E+06</totfact>
</mgrwt>
</event>
<event>
 3    0  0.1660976E+001  0.1250000E+03  0.7546771E-02  0.1235069E+00
         21   -1    0    0  502  501  0.00000000000E+00  0.00000000000E+00  0.22586551492E+02  0.22586551492E+02  0.00000000000E+00 0.  1.
         21   -1    0    0  501  502 -0.00000000000E+00 -0.00000000000E+00 -0.17294583467E+03  0.17294583467E+03  0.00000000000E+00 0.  1.
         25    1    1    2    0    0  0.00000000000E+00  0.00000000000E+00 -0.15035928318E+03  0.19553238616E+03  0.12500000000E+03 0.  0.
<mgrwt>
<rscale>  2 0.12500000E+03</rscale>
<asrwt>0</asrwt>
<pdfrwt beam="1">  1       21 0.34748539E-02 0.12500000E+03</pdfrwt>
<pdfrwt beam="2">  1       21 0.26607053E-01 0.12500000E+03</pdfrwt>
<totfact> 0.65412801E+06</totfact>
</mgrwt>
</event>
<event>
 3    0  0.1368989E+001  0.1250000E+03  0.7546771E-02  0.1235069E+00
         21   -1    0    0  502  501  0.00000000000E+00  0.00000000000E+00  0.70792614853E+03  0.70792614853E+03  0.00000000000E+00 0.  1.
         21   -1    0    0  501  502 -0.00000000000E+00 -0.00000000000E+00 -0.55178778297E+01  0.55178778297E+01  0.00000000000E+00 0.  1.
         25    1    1    2    0    0  0.00000000000E+00  0.00000000000E+00  0.70240827070E+03  0.71344402636E+03  0.12500000000E+03 0.  0.
<mgrwt>
<rscale>  2 0.12500000E+03</rscale>
<asrwt>0</asrwt>
<pdfrwt beam="1">  1       21 0.10891164E+00 0.12500000E+03</pdfrwt>
<pdfrwt beam="2">  1       21 0.84890484E-03 0.12500000E+03</pdfrwt>
<totfact> 0.32398250E+06</totfact>
</mgrwt>
</event>
<event>
 3    0  0.1717696E+001  0.1250000E+03  0.7546771E-02  0.1235069E+00
         21   -1    0    0  502  501  0.00000000000E+00  0.00000000000E+00  0.55575527317E+02  0.55575527317E+02  0.00000000000E+00 0.  1.
         21   -1    0    0  501  502 -0.00000000000E+00 -0.00000000000E+00 -0.70287232323E+02  0.70287232323E+02  0.00000000000E+00 0.  1.
         25    1    1    2    0    0  0.00000000000E+00  0.00000000000E+00 -0.14711705006E+02  0.12586275964E+03  0.12500000000E+03 0.  0.
<mgrwt>
<rscale>  2 0.12500000E+03</rscale>
<asrwt>0</asrwt>
<pdfrwt beam="1">  1       21 0.85500812E-02 0.12500000E+03</pdfrwt>
<pdfrwt beam="2">  1       21 0.10813420E-01 0.12500000E+03</pdfrwt>
<totfact> 0.73924988E+06</totfact>
</mgrwt>
</event>
<event>
 3    0  0.1368989E+001  0.1250000E+03  0.7546771E-02  0.1235069E+00
         21   -1    0    0  502  501  0.00000000000E+00  0.00000000000E+00  0.59225997225E+01  0.59225997225E+01  0.00000000000E+00 0. -1.
         21   -1    0    0  501  502 -0.00000000000E+00 -0.00000000000E+00 -0.65954989076E+03  0.65954989076E+03  0.00000000000E+00 0. -1.
         25    1    1    2    0    0  0.00000000000E+00  0.00000000000E+00 -0.65362729104E+03  0.66547249048E+03  0.12500000000E+03 0.  0.
<mgrwt>
<rscale>  2 0.12500000E+03</rscale>
<asrwt>0</asrwt>
<pdfrwt beam="1">  1       21 0.91116950E-03 0.12500000E+03</pdfrwt>
<pdfrwt beam="2">  1       21 0.10146918E+00 0.12500000E+03</pdfrwt>
<totfact> 0.34284214E+06</totfact>
</mgrwt>
</event>
<event>
 3    0  0.1372172E+001  0.1250000E+03  0.7546771E-02  0.1235069E+00
         21   -1    0    0  502  501  0.00000000000E+00  0.00000000000E+00  0.65205157848E+01  0.65205157848E+01  0.00000000000E+00 0. -1.
         21   -1    0    0  501  502 -0.00000000000E+00 -0.00000000000E+00 -0.59907070682E+03  0.59907070682E+03  0.00000000000E+00 0. -1.
         25    1    1    2    0    0  0.00000000000E+00  0.00000000000E+00 -0.59255019103E+03  0.60559122260E+03  0.12500000000E+03 0.  0.
<mgrwt>
<rscale>  2 0.12500000E+03</rscale>
<asrwt>0</asrwt>
<pdfrwt beam="1">  1       21 0.10031563E-02 0.12500000E+03</pdfrwt>
<pdfrwt beam="2">  1       21 0.92164720E-01 0.12500000E+03</pdfrwt>
<totfact> 0.36840991E+06</totfact>
</mgrwt>
</event>
<event>
 3    0  0.1641124E+001  0.1250000E+03  0.7546771E-02  0.1235069E+00
         21   -1    0    0  502  501  0.00000000000E+00  0.00000000000E+00  0.16113201365E+03  0.16113201365E+03  0.00000000000E+00 0. -1.
         21   -1    0    0  501  502 -0.00000000000E+00 -0.00000000000E+00 -0.24242544430E+02  0.24242544430E+02  0.00000000000E+00 0. -1.
         25    1    1    2    0    0  0.00000000000E+00  0.00000000000E+00  0.13688946922E+03  0.18537455808E+03  0.12500000000E+03 0.  0.
<mgrwt>
<rscale>  2 0.12500000E+03</rscale>
<asrwt>0</asrwt>
<pdfrwt beam="1">  1       21 0.24789540E-01 0.12500000E+03</pdfrwt>
<pdfrwt beam="2">  1       21 0.37296223E-02 0.12500000E+03</pdfrwt>
<totfact> 0.66540269E+06</totfact>
</mgrwt>
</event>
<event>
 3    0  0.1631475E+001  0.1250000E+03  0.7546771E-02  0.1235069E+00
         21   -1    0    0  502  501  0.00000000000E+00  0.00000000000E+00  0.19669920781E+02  0.19669920781E+02  0.00000000000E+00 0. -1.
         21   -1    0    0  501  502 -0.00000000000E+00 -0.00000000000E+00 -0.19859002197E+03  0.19859002197E+03  0.00000000000E+00 0. -1.
         25    1    1    2    0    0  0.00000000000E+00  0.00000000000E+00 -0.17892010119E+03  0.21825994275E+03  0.12500000000E+03 0.  0.
<mgrwt>
<rscale>  2 0.12500000E+03</rscale>
<asrwt>0</asrwt>
<pdfrwt beam="1">  1       21 0.30261417E-02 0.12500000E+03</pdfrwt>
<pdfrwt beam="2">  1       21 0.30552311E-01 0.12500000E+03</pdfrwt>
<totfact> 0.63000836E+06</totfact>
</mgrwt>
</event>
<event>
 3    0  0.1675100E+001  0.1250000E+03  0.7546771E-02  0.1235069E+00
         21   -1    0    0  502  501  0.00000000000E+00  0.00000000000E+00  0.10806028278E+03  0.10806028278E+03  0.00000000000E+00 0. -1.
         21   -1    0    0  501  502 -0.00000000000E+00 -0.00000000000E+00 -0.36148804162E+02  0.36148804162E+02  0.00000000000E+00 0. -1.
         25    1    1    2    0    0  0.00000000000E+00  0.00000000000E+00  0.71911478622E+02  0.14420908695E+03  0.12500000000E+03 0.  0.
<mgrwt>
<rscale>  2 0.12500000E+03</rscale>
<asrwt>0</asrwt>
<pdfrwt beam="1">  1       21 0.16624659E-01 0.12500000E+03</pdfrwt>
<pdfrwt beam="2">  1       21 0.55613545E-02 0.12500000E+03</pdfrwt>
<totfact> 0.71494470E+06</totfact>
</mgrwt>
</event>
<event>
 3    0  0.1566182E+001  0.1250000E+03  0.7546771E-02  0.1235069E+00
         21   -1    0    0  502  501  0.00000000000E+00  0.00000000000E+00  0.10991346992E+02  0.10991346992E+02  0.00000000000E+00 0.  1.
         21   -1    0    0  501  502 -0.00000000000E+00 -0.00000000000E+00 -0.35539320184E+03  0.35539320184E+03  0.00000000000E+00 0.  1.
         25    1    1    2    0    0  0.00000000000E+00  0.00000000000E+00 -0.34440185485E+03  0.36638454883E+03  0.12500000000E+03 0.  0.
<mgrwt>
<rscale>  2 0.12500000E+03</rscale>
<asrwt>0</asrwt>
<pdfrwt beam="1">  1       21 0.16909767E-02 0.12500000E+03</pdfrwt>
<pdfrwt beam="2">  1       21 0.54675868E-01 0.12500000E+03</pdfrwt>
<totfact> 0.50350689E+06</totfact>
</mgrwt>
</event>
<event>
 3    0  0.1660244E+001  0.1250000E+03  0.7546771E-02  0.1235069E+00
         21   -1    0    0  502  501  0.00000000000E+00  0.00000000000E+00  0.14698141058E+03  0.14698141058E+03  0.00000000000E+00 0. -1.
         21   -1    0    0  501  502 -0.00000000000E+00 -0.00000000000E+00 -0.26576490078E+02  0.26576490078E+02  0.00000000000E+00 0. -1.
         25    1    1    2    0    0  0.00000000000E+00  0.00000000000E+00  0.12040492051E+03  0.17355790066E+03  0.12500000000E+03 0.  0.
<mgrwt>
<rscale>  2 0.12500000E+03</rscale>
<asrwt>0</asrwt>
<pdfrwt beam="1">  1       21 0.22612524E-01 0.12500000E+03</pdfrwt>
<pdfrwt beam="2">  1       21 0.40886908E-02 0.12500000E+03</pdfrwt>
<totfact> 0.67898349E+06</totfact>
</mgrwt>
</event>
<event>
 3    0  0.1368989E+001  0.1250000E+03  0.7546771E-02  0.1235069E+00
         21   -1    0    0  502  501  0.00000000000E+00  0.00000000000E+00  0.90501709748E+03  0.90501709748E+03  0.00000000000E+00 0. -1.
         21   -1    0    0  501  502 -0.00000000000E+00 -0.00000000000E+00 -0.43162167995E+01  0.43162167995E+01  0.00000000000E+00 0. -1.
         25    1    1    2    0    0  0.00000000000E+00  0.00000000000E+00  0.90070088068E+03  0.90933331428E+03  0.12500000000E+03 0.  0.
<mgrwt>
<rscale>  2 0.12500000E+03</rscale>
<asrwt>0</asrwt>
<pdfrwt beam="1">  1       21 0.13923325E+00 0.12500000E+03</pdfrwt>
<pdfrwt beam="2">  1       21 0.66403407E-03 0.12500000E+03</pdfrwt>
<totfact> 0.26032554E+06</totfact>
</mgrwt>
</event>
<event>
 3    0  0.1618541E+001  0.1250000E+03  0.7546771E-02  0.1235069E+00
         21   -1    0    0  502  501  0.00000000000E+00  0.00000000000E+00  0.20127229005E+02  0.20127229005E+02  0.00000000000E+00 0. -1.
         21   -1    0    0  501  502 -0.00000000000E+00 -0.00000000000E+00 -0.19407788320E+03  0.19407788320E+03  0.00000000000E+00 0. -1.
         25    1    1    2    0    0  0.00000000000E+00  0.00000000000E+00 -0.17395065420E+03  0.21420511221E+03  0.12500000000E+03 0.  0.
<mgrwt>
<rscale>  2 0.12500000E+03</rscale>
<asrwt>0</asrwt>
<pdfrwt beam="1">  1       21 0.30964969E-02 0.12500000E+03</pdfrwt>
<pdfrwt beam="2">  1       21 0.29858135E-01 0.12500000E+03</pdfrwt>
<totfact> 0.63419808E+06</totfact>
</mgrwt>
</event>
<event>
 3    0  0.1580269E+001  0.1250000E+03  0.7546771E-02  0.1235069E+00
         21   -1    0    0  502  501  0.00000000000E+00  0.00000000000E+00  0.14383018714E+02  0.14383018714E+02  0.00000000000E+00 0. -1.
         21   -1    0    0  501  502 -0.00000000000E+00 -0.00000000000E+00 -0.27158763244E+03  0.27158763244E+03  0.00000000000E+00 0. -1.
         25    1    1    2    0    0  0.00000000000E+00  0.00000000000E+00 -0.25720461373E+03  0.28597065115E+03  0.12500000000E+03 0.  0.
<mgrwt>
<rscale>  2 0.12500000E+03</rscale>
<asrwt>0</asrwt>
<pdfrwt beam="1">  1       21 0.22127724E-02 0.12500000E+03</pdfrwt>
<pdfrwt beam="2">  1       21 0.41782707E-01 0.12500000E+03</pdfrwt>
<totfact> 0.56642602E+06</totfact>
</mgrwt>
</event>
<event>
 3    0  0.1665013E+001  0.1250000E+03  0.7546771E-02  0.1235069E+00
         21   -1    0    0  502  501  0.00000000000E+00  0.00000000000E+00  0.29414539529E+02  0.29414539529E+02  0.00000000000E+00 0. -1.
         21   -1    0    0  501  502 -0.00000000000E+00 -0.00000000000E+00 -0.13279997112E+03  0.13279997112E+03  0.00000000000E+00 0. -1.
         25    1    1    2    0    0  0.00000000000E+00  0.00000000000E+00 -0.10338543159E+03  0.16221451065E+03  0.12500000000E+03 0.  0.
<mgrwt>
<rscale>  2 0.12500000E+03</rscale>
<asrwt>0</asrwt>
<pdfrwt beam="1">  1       21 0.45253138E-02 0.12500000E+03</pdfrwt>
<pdfrwt beam="2">  1       21 0.20430765E-01 0.12500000E+03</pdfrwt>
<totfact> 0.69249914E+06</totfact>
</mgrwt>
</event>
<event>
 3    0  0.1648388E+001  0.1250000E+03  0.7546771E-02  0.1235069E+00
         21   -1    0    0  502  501  0.00000000000E+00  0.00000000000E+00  0.19401923822E+02  0.19401923822E+02  0.00000000000E+00 0.  1.
         21   -1    0    0  501  502 -0.00000000000E+00 -0.00000000000E+00 -0.20133312736E+03  0.20133312736E+03  0.00000000000E+00 0.  1.
         25    1    1    2    0    0  0.00000000000E+00  0.00000000000E+00 -0.18193120354E+03  0.22073505119E+03  0.12500000000E+03 0.  0.
<mgrwt>
<rscale>  2 0.12500000E+03</rscale>
<asrwt>0</asrwt>
<pdfrwt beam="1">  1       21 0.29849114E-02 0.12500000E+03</pdfrwt>
<pdfrwt beam="2">  1       21 0.30974326E-01 0.12500000E+03</pdfrwt>
<totfact> 0.62747483E+06</totfact>
</mgrwt>
</event>
<event>
 3    0  0.1684534E+001  0.1250000E+03  0.7546771E-02  0.1235069E+00
         21   -1    0    0  502  501  0.00000000000E+00  0.00000000000E+00  0.42310411325E+02  0.42310411325E+02  0.00000000000E+00 0. -1.
         21   -1    0    0  501  502 -0.00000000000E+00 -0.00000000000E+00 -0.92323612029E+02  0.92323612029E+02  0.00000000000E+00 0. -1.
         25    1    1    2    0    0  0.00000000000E+00  0.00000000000E+00 -0.50013200703E+02  0.13463402335E+03  0.12500000000E+03 0.  0.
<mgrwt>
<rscale>  2 0.12500000E+03</rscale>
<asrwt>0</asrwt>
<pdfrwt beam="1">  1       21 0.65092941E-02 0.12500000E+03</pdfrwt>
<pdfrwt beam="2">  1       21 0.14203632E-01 0.12500000E+03</pdfrwt>
<totfact> 0.72744966E+06</totfact>
</mgrwt>
</event>
<event>
 3    0  0.1657095E+001  0.1250000E+03  0.7546771E-02  0.1235069E+00
         21   -1    0    0  502  501  0.00000000000E+00  0.00000000000E+00  0.14832288002E+03  0.14832288002E+03  0.00000000000E+00 0. -1.
         21   -1    0    0  501  502 -0.00000000000E+00 -0.00000000000E+00 -0.26336125617E+02  0.26336125617E+02  0.00000000000E+00 0. -1.
         25    1    1    2    0    0  0.00000000000E+00  0.00000000000E+00  0.12198675440E+03  0.17465900564E+03  0.12500000000E+03 0.  0.
<mgrwt>
<rscale>  2 0.12500000E+03</rscale>
<asrwt>0</asrwt>
<pdfrwt beam="1">  1       21 0.22818904E-01 0.12500000E+03</pdfrwt>
<pdfrwt beam="2">  1       21 0.40517117E-02 0.12500000E+03</pdfrwt>
<totfact> 0.67769584E+06</totfact>
</mgrwt>
</event>
<event>
 3    0  0.1420708E+001  0.1250000E+03  0.7546771E-02  0.1235069E+00
         21   -1    0    0  502  501  0.00000000000E+00  0.00000000000E+00  0.55293051395E+03  0.55293051395E+03  0.00000000000E+00 0.  1.
         21   -1    0    0  501  502 -0.00000000000E+00 -0.00000000000E+00 -0.70646309101E+01  0.70646309101E+01  0.00000000000E+00 0.  1.
         25    1    1    2    0    0  0.00000000000E+00  0.00000000000E+00  0.54586588304E+03  0.55999514486E+03  0.12500000000E+03 0.  0.
<mgrwt>
<rscale>  2 0.12500000E+03</rscale>
<asrwt>0</asrwt>
<pdfrwt beam="1">  1       21 0.85066199E-01 0.12500000E+03</pdfrwt>
<pdfrwt beam="2">  1       21 0.10868667E-02 0.12500000E+03</pdfrwt>
<totfact> 0.38966654E+06</totfact>
</mgrwt>
</event>
<event>
 3    0  0.1368989E+001  0.1250000E+03  0.7546771E-02  0.1235069E+00
         21   -1    0    0  502  501  0.00000000000E+00  0.00000000000E+00  0.29814561037E+01  0.29814561037E+01  0.00000000000E+00 0. -1.
         21   -1    0    0  501  502 -0.00000000000E+00 -0.00000000000E+00 -0.13101819595E+04  0.13101819595E+04  0.00000000000E+00 0. -1.
         25    1    1    2    0    0  0.00000000000E+00  0.00000000000E+00 -0.13072005034E+04  0.13131634156E+04  0.12500000000E+03 0.  0.
<mgrwt>
<rscale>  2 0.12500000E+03</rscale>
<asrwt>0</asrwt>
<pdfrwt beam="1">  1       21 0.45868572E-03 0.12500000E+03</pdfrwt>
<pdfrwt beam="2">  1       21 0.20156638E+00 0.12500000E+03</pdfrwt>
<totfact> 0.17017639E+06</totfact>
</mgrwt>
</event>
<event>
 3    0  0.1714024E+001  0.1250000E+03  0.7546771E-02  0.1235069E+00
         21   -1    0    0  502  501  0.00000000000E+00  0.00000000000E+00  0.94490857822E+02  0.94490857822E+02  0.00000000000E+00 0.  1.
         21   -1    0    0  501  502 -0.00000000000E+00 -0.00000000000E+00 -0.41339978174E+02  0.41339978174E+02  0.00000000000E+00 0.  1.
         25    1    1    2    0    0  0.00000000000E+00  0.00000000000E+00  0.53150879648E+02  0.13583083600E+03  0.12500000000E+03 0.  0.
<mgrwt>
<rscale>  2 0.12500000E+03</rscale>
<asrwt>0</asrwt>
<pdfrwt beam="1">  1       21 0.14537055E-01 0.12500000E+03</pdfrwt>
<pdfrwt beam="2">  1       21 0.63599967E-02 0.12500000E+03</pdfrwt>
<totfact> 0.72586650E+06</totfact>
</mgrwt>
</event>
<event>
 3    0  0.1693345E+001  0.1250000E+03  0.7546771E-02  0.1235069E+00
         21   -1    0    0  502  501  0.00000000000E+00  0.00000000000E+00  0.12201964002E+03  0.12201964002E+03  0.00000000000E+00 0.  1.
         21   -1    0    0  501  502 -0.00000000000E+00 -0.00000000000E+00 -0.32013289004E+02  0.32013289004E+02  0.00000000000E+00 0.  1.
         25    1    1    2    0    0  0.00000000000E+00  0.00000000000E+00  0.90006351012E+02  0.15403292902E+03  0.12500000000E+03 0.  0.
<mgrwt>
<rscale>  2 0.12500000E+03</rscale>
<asrwt>0</asrwt>
<pdfrwt beam="1">  1       21 0.18772252E-01 0.12500000E+03</pdfrwt>
<pdfrwt beam="2">  1       21 0.49251214E-02 0.12500000E+03</pdfrwt>
<totfact> 0.70256053E+06</totfact>
</mgrwt>
</event>
<event>
 3    0  0.1566530E+001  0.1250000E+03  0.7546771E-02  0.1235069E+00
         21   -1    0    0  502  501  0.00000000000E+00  0.00000000000E+00  0.12186259632E+02  0.12186259632E+02  0.00000000000E+00 0.  1.
         21   -1    0    0  501  502 -0.00000000000E+00 -0.00000000000E+00 -0.32054544363E+03  0.32054544363E+03  0.00000000000E+00 0.  1.
         25    1    1    2    0    0  0.00000000000E+00  0.00000000000E+00 -0.30835918400E+03  0.33273170326E+03  0.12500000000E+03 0.  0.
<mgrwt>
<rscale>  2 0.12500000E+03</rscale>
<asrwt>0</asrwt>
<pdfrwt beam="1">  1       21 0.18748092E-02 0.12500000E+03</pdfrwt>
<pdfrwt beam="2">  1       21 0.49314684E-01 0.12500000E+03</pdfrwt>
<totfact> 0.52839594E+06</totfact>
</mgrwt>
</event>
<event>
 3    0  0.1368989E+001  0.1250000E+03  0.7546771E-02  0.1235069E+00
         21   -1    0    0  502  501  0.00000000000E+00  0.00000000000E+00  0.12835540364E+04  0.12835540364E+04  0.00000000000E+00 0. -1.
         21   -1    0    0  501  502 -0.00000000000E+00 -0.00000000000E+00 -0.30433077916E+01  0.30433077916E+01  0.00000000000E+00 0. -1.
         25    1    1    2    0    0  0.00000000000E+00  0.00000000000E+00  0.12805107286E+04  0.12865973442E+04  0.12500000000E+03 0.  0.
<mgrwt>
<rscale>  2 0.12500000E+03</rscale>
<asrwt>0</asrwt>
<pdfrwt beam="1">  1       21 0.19746942E+00 0.12500000E+03</pdfrwt>
<pdfrwt beam="2">  1       21 0.46820222E-03 0.12500000E+03</pdfrwt>
<totfact> 0.17494773E+06</totfact>
</mgrwt>
</event>
<event>
 3    0  0.1669848E+001  0.1250000E+03  0.7546771E-02  0.1235069E+00
         21   -1    0    0  502  501  0.00000000000E+00  0.00000000000E+00  0.29894885627E+02  0.29894885627E+02  0.00000000000E+00 0. -1.
         21   -1    0    0  501  502 -0.00000000000E+00 -0.00000000000E+00 -0.13066616306E+03  0.13066616306E+03  0.00000000000E+00 0. -1.
         25    1    1    2    0    0  0.00000000000E+00  0.00000000000E+00 -0.10077127743E+03  0.16056104869E+03  0.12500000000E+03 0.  0.
<mgrwt>
<rscale>  2 0.12500000E+03</rscale>
<asrwt>0</asrwt>
<pdfrwt beam="1">  1       21 0.45992132E-02 0.12500000E+03</pdfrwt>
<pdfrwt beam="2">  1       21 0.20102487E-01 0.12500000E+03</pdfrwt>
<totfact> 0.69451007E+06</totfact>
</mgrwt>
</event>
<event>
 3    0  0.1441968E+001  0.1250000E+03  0.7546771E-02  0.1235069E+00
         21   -1    0    0  502  501  0.00000000000E+00  0.00000000000E+00  0.49292096275E+03  0.49292096275E+03  0.00000000000E+00 0. -1.
         21   -1    0    0  501  502 -0.00000000000E+00 -0.00000000000E+00 -0.79246984714E+01  0.79246984714E+01  0.00000000000E+00 0. -1.
         25    1    1    2    0    0  0.00000000000E+00  0.00000000000E+00  0.48499626428E+03  0.50084566122E+03  0.12500000000E+03 0.  0.
<mgrwt>
<rscale>  2 0.12500000E+03</rscale>
<asrwt>0</asrwt>
<pdfrwt beam="1">  1       21 0.75833970E-01 0.12500000E+03</pdfrwt>
<pdfrwt beam="2">  1       21 0.12191848E-02 0.12500000E+03</pdfrwt>
<totfact> 0.41998254E+06</totfact>
</mgrwt>
</event>
<event>
 3    0  0.1655723E+001  0.1250000E+03  0.7546771E-02  0.1235069E+00
         21   -1    0    0  502  501  0.00000000000E+00  0.00000000000E+00  0.16509981150E+03  0.16509981150E+03  0.00000000000E+00 0. -1.
         21   -1    0    0  501  502 -0.00000000000E+00 -0.00000000000E+00 -0.23659930102E+02  0.23659930102E+02  0.00000000000E+00 0. -1.
         25    1    1    2    0    0  0.00000000000E+00  0.00000000000E+00  0.14143988140E+03  0.18875974160E+03  0.12500000000E+03 0.  0.
<mgrwt>
<rscale>  2 0.12500000E+03</rscale>
<asrwt>0</asrwt>
<pdfrwt beam="1">  1       21 0.25399970E-01 0.12500000E+03</pdfrwt>
<pdfrwt beam="2">  1       21 0.36399894E-02 0.12500000E+03</pdfrwt>
<totfact> 0.66160573E+06</totfact>
</mgrwt>
</event>
<event>
 3    0  0.1668379E+001  0.1250000E+03  0.7546771E-02  0.1235069E+00
         21   -1    0    0  502  501  0.00000000000E+00  0.00000000000E+00  0.31135717196E+02  0.31135717196E+02  0.00000000000E+00 0. -1.
         21   -1    0    0  501  502 -0.00000000000E+00 -0.00000000000E+00 -0.12545880910E+03  0.12545880910E+03  0.00000000000E+00 0. -1.
         25    1    1    2    0    0  0.00000000000E+00  0.00000000000E+00 -0.94323091908E+02  0.15659452630E+03  0.12500000000E+03 0.  0.
<mgrwt>
<rscale>  2 0.12500000E+03</rscale>
<asrwt>0</asrwt>
<pdfrwt beam="1">  1       21 0.47901104E-02 0.12500000E+03</pdfrwt>
<pdfrwt beam="2">  1       21 0.19301355E-01 0.12500000E+03</pdfrwt>
<totfact> 0.69938020E+06</totfact>
</mgrwt>
</event>
<event>
 3    0  0.1681160E+001  0.1250000E+03  0.7546771E-02  0.1235069E+00
         21   -1    0    0  502  501  0.00000000000E+00  0.00000000000E+00  0.16447449316E+03  0.16447449316E+03  0.00000000000E+00 0.  1.
         21   -1    0    0  501  502 -0.00000000000E+00 -0.00000000000E+00 -0.23749883188E+02  0.23749883188E+02  0.00000000000E+00 0.  1.
         25    1    1    2    0    0  0.00000000000E+00  0.00000000000E+00  0.14072460997E+03  0.18822437635E+03  0.12500000000E+03 0.  0.
<mgrwt>
<rscale>  2 0.12500000E+03</rscale>
<asrwt>0</asrwt>
<pdfrwt beam="1">  1       21 0.25303768E-01 0.12500000E+03</pdfrwt>
<pdfrwt beam="2">  1       21 0.36538283E-02 0.12500000E+03</pdfrwt>
<totfact> 0.66220354E+06</totfact>
</mgrwt>
</event>
<event>
 3    0  0.1368989E+001  0.1250000E+03  0.7546771E-02  0.1235069E+00
         21   -1    0    0  502  501  0.00000000000E+00  0.00000000000E+00  0.69001274539E+03  0.69001274539E+03  0.00000000000E+00 0. -1.
         21   -1    0    0  501  502 -0.00000000000E+00 -0.00000000000E+00 -0.56611273141E+01  0.56611273141E+01  0.00000000000E+00 0. -1.
         25    1    1    2    0    0  0.00000000000E+00  0.00000000000E+00  0.68435161807E+03  0.69567387270E+03  0.12500000000E+03 0.  0.
<mgrwt>
<rscale>  2 0.12500000E+03</rscale>
<asrwt>0</asrwt>
<pdfrwt beam="1">  1       21 0.10615574E+00 0.12500000E+03</pdfrwt>
<pdfrwt beam="2">  1       21 0.87094321E-03 0.12500000E+03</pdfrwt>
<totfact> 0.33077611E+06</totfact>
</mgrwt>
</event>
<event>
 3    0  0.1460951E+001  0.1250000E+03  0.7546771E-02  0.1235069E+00
         21   -1    0    0  502  501  0.00000000000E+00  0.00000000000E+00  0.79370653226E+01  0.79370653226E+01  0.00000000000E+00 0.  1.
         21   -1    0    0  501  502 -0.00000000000E+00 -0.00000000000E+00 -0.49215293578E+03  0.49215293578E+03  0.00000000000E+00 0.  1.
         25    1    1    2    0    0  0.00000000000E+00  0.00000000000E+00 -0.48421587046E+03  0.50009000111E+03  0.12500000000E+03 0.  0.
<mgrwt>
<rscale>  2 0.12500000E+03</rscale>
<asrwt>0</asrwt>
<pdfrwt beam="1">  1       21 0.12210867E-02 0.12500000E+03</pdfrwt>
<pdfrwt beam="2">  1       21 0.75715851E-01 0.12500000E+03</pdfrwt>
<totfact> 0.42039185E+06</totfact>
</mgrwt>
</event>
<event>
 3    0  0.1375542E+001  0.1250000E+03  0.7546771E-02  0.1235069E+00
         21   -1    0    0  502  501  0.00000000000E+00  0.00000000000E+00  0.64924738568E+03  0.64924738568E+03  0.00000000000E+00 0.  1.
         21   -1    0    0  501  502 -0.00000000000E+00 -0.00000000000E+00 -0.60165817932E+01  0.60165817932E+01  0.00000000000E+00 0.  1.
         25    1    1    2    0    0  0.00000000000E+00  0.00000000000E+00  0.64323080389E+03  0.65526396748E+03  0.12500000000E+03 0.  0.
<mgrwt>
<rscale>  2 0.12500000E+03</rscale>
<asrwt>0</asrwt>
<pdfrwt beam="1">  1       21 0.99884158E-01 0.12500000E+03</pdfrwt>
<pdfrwt beam="2">  1       21 0.92562848E-03 0.12500000E+03</pdfrwt>
<totfact> 0.34706567E+06</totfact>
</mgrwt>
</event>
<event>
 3    0  0.1664876E+001  0.1250000E+03  0.7546771E-02  0.1235069E+00
         21   -1    0    0  502  501  0.00000000000E+00  0.00000000000E+00  0.14194649536E+03  0.14194649536E+03  0.00000000000E+00 0. -1.
         21   -1    0    0  501  502 -0.00000000000E+00 -0.00000000000E+00 -0.27519171855E+02  0.27519171855E+02  0.00000000000E+00 0. -1.
         25    1    1    2    0    0  0.00000000000E+00  0.00000000000E+00  0.11442732351E+03  0.16946566722E+03  0.12500000000E+03 0.  0.
<mgrwt>
<rscale>  2 0.12500000E+03</rscale>
<asrwt>0</asrwt>
<pdfrwt beam="1">  1       21 0.21837922E-01 0.12500000E+03</pdfrwt>
<pdfrwt beam="2">  1       21 0.42337188E-02 0.12500000E+03</pdfrwt>
<totfact> 0.68380991E+06</totfact>
</mgrwt>
</event>
<event>
 3    0  0.1692926E+001  0.1250000E+03  0.7546771E-02  0.1235069E+00
         21   -1    0    0  502  501  0.00000000000E+00  0.00000000000E+00  0.50599001369E+02  0.50599001369E+02  0.00000000000E+00 0. -1.
         21   -1    0    0  501  502 -0.00000000000E+00 -0.00000000000E+00 -0.77200140206E+02  0.77200140206E+02  0.00000000000E+00 0. -1.
         25    1    1    2    0    0  0.00000000000E+00  0.00000000000E+00 -0.26601138837E+02  0.12779914158E+03  0.12500000000E+03 0.  0.
<mgrwt>
<rscale>  2 0.12500000E+03</rscale>
<asrwt>0</asrwt>
<pdfrwt beam="1">  1       21 0.77844618E-02 0.12500000E+03</pdfrwt>
<pdfrwt beam="2">  1       21 0.11876945E-01 0.12500000E+03</pdfrwt>
<totfact> 0.73660710E+06</totfact>
</mgrwt>
</event>
<event>
 3    0  0.1400890E+001  0.1250000E+03  0.7546771E-02  0.1235069E+00
         21   -1    0    0  502  501  0.00000000000E+00  0.00000000000E+00  0.59484997560E+03  0.59484997560E+03  0.00000000000E+00 0.  1.
         21   -1    0    0  501  502 -0.00000000000E+00 -0.00000000000E+00 -0.65667818110E+01  0.65667818110E+01  0.00000000000E+00 0.  1.
         25    1    1    2    0    0  0.00000000000E+00  0.00000000000E+00  0.58828319379E+03  0.60141675741E+03  0.12500000000E+03 0.  0.
<mgrwt>
<rscale>  2 0.12500000E+03</rscale>
<asrwt>0</asrwt>
<pdfrwt beam="1">  1       21 0.91515338E-01 0.12500000E+03</pdfrwt>
<pdfrwt beam="2">  1       21 0.10102746E-02 0.12500000E+03</pdfrwt>
<totfact> 0.37028650E+06</totfact>
</mgrwt>
</event>
<event>
 3    0  0.1717847E+001  0.1250000E+03  0.7546771E-02  0.1235069E+00
         21   -1    0    0  502  501  0.00000000000E+00  0.00000000000E+00  0.53296599621E+02  0.53296599621E+02  0.00000000000E+00 0.  1.
         21   -1    0    0  501  502 -0.00000000000E+00 -0.00000000000E+00 -0.73292668346E+02  0.73292668346E+02  0.00000000000E+00 0.  1.
         25    1    1    2    0    0  0.00000000000E+00  0.00000000000E+00 -0.19996068725E+02  0.12658926797E+03  0.12500000000E+03 0.  0.
<mgrwt>
<rscale>  2 0.12500000E+03</rscale>
<asrwt>0</asrwt>
<pdfrwt beam="1">  1       21 0.81994769E-02 0.12500000E+03</pdfrwt>
<pdfrwt beam="2">  1       21 0.11275795E-01 0.12500000E+03</pdfrwt>
<totfact> 0.73825163E+06</totfact>
</mgrwt>
</event>
<event>
 3    0  0.1677654E+001  0.1250000E+03  0.7546771E-02  0.1235069E+00
         21   -1    0    0  502  501  0.00000000000E+00  0.00000000000E+00  0.34448622543E+02  0.34448622543E+02  0.00000000000E+00 0. -1.
         21   -1    0    0  501  502 -0.00000000000E+00 -0.00000000000E+00 -0.11339350347E+03  0.11339350347E+03  0.00000000000E+00 0. -1.
         25    1    1    2    0    0  0.00000000000E+00  0.00000000000E+00 -0.78944880930E+02  0.14784212602E+03  0.12500000000E+03 0.  0.
<mgrwt>
<rscale>  2 0.12500000E+03</rscale>
<asrwt>0</asrwt>
<pdfrwt beam="1">  1       21 0.52997880E-02 0.12500000E+03</pdfrwt>
<pdfrwt beam="2">  1       21 0.17445155E-01 0.12500000E+03</pdfrwt>
<totfact> 0.71031333E+06</totfact>
</mgrwt>
</event>
<event>
 3    0  0.1676431E+001  0.1250000E+03  0.7546771E-02  0.1235069E+00
         21   -1    0    0  502  501  0.00000000000E+00  0.00000000000E+00  0.10439853495E+03  0.10439853495E+03  0.00000000000E+00 0. -1.
         21   -1    0    0  501  502 -0.00000000000E+00 -0.00000000000E+00 -0.37416712808E+02  0.37416712808E+02  0.00000000000E+00 0. -1.
         25    1    1    2    0    0  0.00000000000E+00  0.00000000000E+00  0.66981822146E+02  0.14181524776E+03  0.12500000000E+03 0.  0.
<mgrwt>
<rscale>  2 0.12500000E+03</rscale>
<asrwt>0</asrwt>
<pdfrwt beam="1">  1       21 0.16061313E-01 0.12500000E+03</pdfrwt>
<pdfrwt beam="2">  1       21 0.57564174E-02 0.12500000E+03</pdfrwt>
<totfact> 0.71803209E+06</totfact>
</mgrwt>
</event>
<event>
 3    0  0.1713087E+001  0.1250000E+03  0.7546771E-02  0.1235069E+00
         21   -1    0    0  502  501  0.00000000000E+00  0.00000000000E+00  0.46907504735E+02  0.46907504735E+02  0.00000000000E+00 0.  1.
         21   -1    0    0  501  502 -0.00000000000E+00 -0.00000000000E+00 -0.83275587181E+02  0.83275587181E+02  0.00000000000E+00 0.  1.
         25    1    1    2    0    0  0.00000000000E+00  0.00000000000E+00 -0.36368082446E+02  0.13018309192E+03  0.12500000000E+03 0.  0.
<mgrwt>
<rscale>  2 0.12500000E+03</rscale>
<asrwt>0</asrwt>
<pdfrwt beam="1">  1       21 0.72165392E-02 0.12500000E+03</pdfrwt>
<pdfrwt beam="2">  1       21 0.12811629E-01 0.12500000E+03</pdfrwt>
<totfact> 0.73340455E+06</totfact>
</mgrwt>
</event>
<event>
 3    0  0.1658735E+001  0.1250000E+03  0.7546771E-02  0.1235069E+00
         21   -1    0    0  502  501  0.00000000000E+00  0.00000000000E+00  0.14762408538E+03  0.14762408538E+03  0.00000000000E+00 0. -1.
         21   -1    0    0  501  502 -0.00000000000E+00 -0.00000000000E+00 -0.26460790526E+02  0.26460790526E+02  0.00000000000E+00 0. -1.
         25    1    1    2    0    0  0.00000000000E+00  0.00000000000E+00  0.12116329486E+03  0.17408487591E+03  0.12500000000E+03 0.  0.
<mgrwt>
<rscale>  2 0.12500000E+03</rscale>
<asrwt>0</asrwt>
<pdfrwt beam="1">  1       21 0.22711397E-01 0.12500000E+03</pdfrwt>
<pdfrwt beam="2">  1       21 0.40708909E-02 0.12500000E+03</pdfrwt>
<totfact> 0.67836666E+06</totfact>
</mgrwt>
</event>
<event>
 3    0  0.1368989E+001  0.1250000E+03  0.7546771E-02  0.1235069E+00
         21   -1    0    0  502  501  0.00000000000E+00  0.00000000000E+00  0.44567284500E+01  0.44567284500E+01  0.00000000000E+00 0.  1.
         21   -1    0    0  501  502 -0.00000000000E+00 -0.00000000000E+00 -0.87648373551E+03  0.87648373551E+03  0.00000000000E+00 0.  1.
         25    1    1    2    0    0  0.00000000000E+00  0.00000000000E+00 -0.87202700706E+03  0.88094046396E+03  0.12500000000E+03 0.  0.
<mgrwt>
<rscale>  2 0.12500000E+03</rscale>
<asrwt>0</asrwt>
<pdfrwt beam="1">  1       21 0.68565057E-03 0.12500000E+03</pdfrwt>
<pdfrwt beam="2">  1       21 0.13484364E+00 0.12500000E+03</pdfrwt>
<totfact> 0.26849202E+06</totfact>
</mgrwt>
</event>
<event>
 3    0  0.1580176E+001  0.1250000E+03  0.7546771E-02  0.1235069E+00
         21   -1    0    0  502  501  0.00000000000E+00  0.00000000000E+00  0.28135050010E+03  0.28135050010E+03  0.00000000000E+00 0.  1.
         21   -1    0    0  501  502 -0.00000000000E+00 -0.00000000000E+00 -0.13883927694E+02  0.13883927694E+02  0.00000000000E+00 0.  1.
         25    1    1    2    0    0  0.00000000000E+00  0.00000000000E+00  0.26746657241E+03  0.29523442780E+03  0.12500000000E+03 0.  0.
<mgrwt>
<rscale>  2 0.12500000E+03</rscale>
<asrwt>0</asrwt>
<pdfrwt beam="1">  1       21 0.43284688E-01 0.12500000E+03</pdfrwt>
<pdfrwt beam="2">  1       21 0.21359891E-02 0.12500000E+03</pdfrwt>
<totfact> 0.55854553E+06</totfact>
</mgrwt>
</event>
<event>
 3    0  0.1451092E+001  0.1250000E+03  0.7546771E-02  0.1235069E+00
         21   -1    0    0  502  501  0.00000000000E+00  0.00000000000E+00  0.46676261035E+03  0.46676261035E+03  0.00000000000E+00 0. -1.
         21   -1    0    0  501  502 -0.00000000000E+00 -0.00000000000E+00 -0.83688151394E+01  0.83688151394E+01  0.00000000000E+00 0. -1.
         25    1    1    2    0    0  0.00000000000E+00  0.00000000000E+00  0.45839379521E+03  0.47513142549E+03  0.12500000000E+03 0.  0.
<mgrwt>
<rscale>  2 0.12500000E+03</rscale>
<asrwt>0</asrwt>
<pdfrwt beam="1">  1       21 0.71809612E-01 0.12500000E+03</pdfrwt>
<pdfrwt beam="2">  1       21 0.12875104E-02 0.12500000E+03</pdfrwt>
<totfact> 0.43425682E+06</totfact>
</mgrwt>
</event>
<event>
 3    0  0.1368989E+001  0.1250000E+03  0.7546771E-02  0.1235069E+00
         21   -1    0    0  502  501  0.00000000000E+00  0.00000000000E+00  0.64245454857E+01  0.64245454857E+01  0.00000000000E+00 0. -1.
         21   -1    0    0  501  502 -0.00000000000E+00 -0.00000000000E+00 -0.60801966594E+03  0.60801966594E+03  0.00000000000E+00 0. -1.
         25    1    1    2    0    0  0.00000000000E+00  0.00000000000E+00 -0.60159512045E+03  0.61444421142E+03  0.12500000000E+03 0.  0.
<mgrwt>
<rscale>  2 0.12500000E+03</rscale>
<asrwt>0</asrwt>
<pdfrwt beam="1">  1       21 0.98839141E-03 0.12500000E+03</pdfrwt>
<pdfrwt beam="2">  1       21 0.93541506E-01 0.12500000E+03</pdfrwt>
<totfact> 0.36447446E+06</totfact>
</mgrwt>
</event>
<event>
 3    0  0.1621902E+001  0.1250000E+03  0.7546771E-02  0.1235069E+00
         21   -1    0    0  502  501  0.00000000000E+00  0.00000000000E+00  0.25410201583E+03  0.25410201583E+03  0.00000000000E+00 0.  1.
         21   -1    0    0  501  502 -0.00000000000E+00 -0.00000000000E+00 -0.15372762736E+02  0.15372762736E+02  0.00000000000E+00 0.  1.
         25    1    1    2    0    0  0.00000000000E+00  0.00000000000E+00  0.23872925309E+03  0.26947477857E+03  0.12500000000E+03 0.  0.
<mgrwt>
<rscale>  2 0.12500000E+03</rscale>
<asrwt>0</asrwt>
<pdfrwt beam="1">  1       21 0.39092615E-01 0.12500000E+03</pdfrwt>
<pdfrwt beam="2">  1       21 0.23650406E-02 0.12500000E+03</pdfrwt>
<totfact> 0.58091592E+06</totfact>
</mgrwt>
</event>
<event>
 3    0  0.1660000E+001  0.1250000E+03  0.7546771E-02  0.1235069E+00
         21   -1    0    0  502  501  0.00000000000E+00  0.00000000000E+00  0.12940298850E+03  0.12940298850E+03  0.00000000000E+00 0. -1.
         21   -1    0    0  501  502 -0.00000000000E+00 -0.00000000000E+00 -0.30186706237E+02  0.30186706237E+02  0.00000000000E+00 0. -1.
         25    1    1    2    0    0  0.00000000000E+00  0.00000000000E+00  0.99216282263E+02  0.15958969474E+03  0.12500000000E+03 0.  0.
<mgrwt>
<rscale>  2 0.12500000E+03</rscale>
<asrwt>0</asrwt>
<pdfrwt beam="1">  1       21 0.19908152E-01 0.12500000E+03</pdfrwt>
<pdfrwt beam="2">  1       21 0.46441087E-02 0.12500000E+03</pdfrwt>
<totfact> 0.69569666E+06</totfact>
</mgrwt>
</event>
<event>
 3    0  0.1368989E+001  0.1250000E+03  0.7546771E-02  0.1235069E+00
         21   -1    0    0  502  501  0.00000000000E+00  0.00000000000E+00  0.14956913060E+04  0.14956913060E+04  0.00000000000E+00 0.  1.
         21   -1    0    0  501  502 -0.00000000000E+00 -0.00000000000E+00 -0.26116685872E+01  0.26116685872E+01  0.00000000000E+00 0.  1.
         25    1    1    2    0    0  0.00000000000E+00  0.00000000000E+00  0.14930796374E+04  0.14983029746E+04  0.12500000000E+03 0.  0.
<mgrwt>
<rscale>  2 0.12500000E+03</rscale>
<asrwt>0</asrwt>
<pdfrwt beam="1">  1       21 0.23010567E+00 0.12500000E+03</pdfrwt>
<pdfrwt beam="2">  1       21 0.40179636E-03 0.12500000E+03</pdfrwt>
<totfact> 0.14018354E+06</totfact>
</mgrwt>
</event>
<event>
 3    0  0.1637812E+001  0.1250000E+03  0.7546771E-02  0.1235069E+00
         21   -1    0    0  502  501  0.00000000000E+00  0.00000000000E+00  0.22613448777E+02  0.22613448777E+02  0.00000000000E+00 0. -1.
         21   -1    0    0  501  502 -0.00000000000E+00 -0.00000000000E+00 -0.17274012640E+03  0.17274012640E+03  0.00000000000E+00 0. -1.
         25    1    1    2    0    0  0.00000000000E+00  0.00000000000E+00 -0.15012667762E+03  0.19535357518E+03  0.12500000000E+03 0.  0.
<mgrwt>
<rscale>  2 0.12500000E+03</rscale>
<asrwt>0</asrwt>
<pdfrwt beam="1">  1       21 0.34789920E-02 0.12500000E+03</pdfrwt>
<pdfrwt beam="2">  1       21 0.26575405E-01 0.12500000E+03</pdfrwt>
<totfact> 0.65432345E+06</totfact>
</mgrwt>
</event>
<event>
 3    0  0.1368989E+001  0.1250000E+03  0.7546771E-02  0.1235069E+00
         21   -1    0    0  502  501  0.00000000000E+00  0.00000000000E+00  0.93707204981E+03  0.93707204981E+03  0.00000000000E+00 0.  1.
         21   -1    0    0  501  502 -0.00000000000E+00 -0.00000000000E+00 -0.41685695361E+01  0.41685695361E+01  0.00000000000E+00 0.  1.
         25    1    1    2    0    0  0.00000000000E+00  0.00000000000E+00  0.93290348028E+03  0.94124061935E+03  0.12500000000E+03 0.  0.
<mgrwt>
<rscale>  2 0.12500000E+03</rscale>
<asrwt>0</asrwt>
<pdfrwt beam="1">  1       21 0.14416476E+00 0.12500000E+03</pdfrwt>
<pdfrwt beam="2">  1       21 0.64131914E-03 0.12500000E+03</pdfrwt>
<totfact> 0.25147433E+06</totfact>
</mgrwt>
</event>
<event>
 3    0  0.1684926E+001  0.1250000E+03  0.7546771E-02  0.1235069E+00
         21   -1    0    0  502  501  0.00000000000E+00  0.00000000000E+00  0.13449663445E+03  0.13449663445E+03  0.00000000000E+00 0.  1.
         21   -1    0    0  501  502 -0.00000000000E+00 -0.00000000000E+00 -0.29043477675E+02  0.29043477675E+02  0.00000000000E+00 0.  1.
         25    1    1    2    0    0  0.00000000000E+00  0.00000000000E+00  0.10545315678E+03  0.16354011213E+03  0.12500000000E+03 0.  0.
<mgrwt>
<rscale>  2 0.12500000E+03</rscale>
<asrwt>0</asrwt>
<pdfrwt beam="1">  1       21 0.20691790E-01 0.12500000E+03</pdfrwt>
<pdfrwt beam="2">  1       21 0.44682274E-02 0.12500000E+03</pdfrwt>
<totfact> 0.69089499E+06</totfact>
</mgrwt>
</event>
<event>
 3    0  0.1718802E+001  0.1250000E+03  0.7546771E-02  0.1235069E+00
         21   -1    0    0  502  501  0.00000000000E+00  0.00000000000E+00  0.71920928770E+02  0.71920928770E+02  0.00000000000E+00 0.  1.
         21   -1    0    0  501  502 -0.00000000000E+00 -0.00000000000E+00 -0.54313119516E+02  0.54313119516E+02  0.00000000000E+00 0.  1.
         25    1    1    2    0    0  0.00000000000E+00  0.00000000000E+00  0.17607809254E+02  0.12623404829E+03  0.12500000000E+03 0.  0.
<mgrwt>
<rscale>  2 0.12500000E+03</rscale>
<asrwt>0</asrwt>
<pdfrwt beam="1">  1       21 0.11064758E-01 0.12500000E+03</pdfrwt>
<pdfrwt beam="2">  1       21 0.83558645E-02 0.12500000E+03</pdfrwt>
<totfact> 0.73873832E+06</totfact>
</mgrwt>
</event>
<event>
 3    0  0.1368989E+001  0.1250000E+03  0.7546771E-02  0.1235069E+00
         21   -1    0    0  502  501  0.00000000000E+00  0.00000000000E+00  0.10548098510E+04  0.10548098510E+04  0.00000000000E+00 0.  1.
         21   -1    0    0  501  502 -0.00000000000E+00 -0.00000000000E+00 -0.37032740986E+01  0.37032740986E+01  0.00000000000E+00 0.  1.
         25    1    1    2    0    0  0.00000000000E+00  0.00000000000E+00  0.10511065769E+04  0.10585131251E+04  0.12500000000E+03 0.  0.
<mgrwt>
<rscale>  2 0.12500000E+03</rscale>
<asrwt>0</asrwt>
<pdfrwt beam="1">  1       21 0.16227820E+00 0.12500000E+03</pdfrwt>
<pdfrwt beam="2">  1       21 0.56973532E-03 0.12500000E+03</pdfrwt>
<totfact> 0.22198483E+06</totfact>
</mgrwt>
</event>
<event>
 3    0  0.1663712E+001  0.1250000E+03  0.7546771E-02  0.1235069E+00
         21   -1    0    0  502  501  0.00000000000E+00  0.00000000000E+00  0.27314072197E+02  0.27314072197E+02  0.00000000000E+00 0. -1.
         21   -1    0    0  501  502 -0.00000000000E+00 -0.00000000000E+00 -0.14301236271E+03  0.14301236271E+03  0.00000000000E+00 0. -1.
         25    1    1    2    0    0  0.00000000000E+00  0.00000000000E+00 -0.11569829051E+03  0.17032643490E+03  0.12500000000E+03 0.  0.
<mgrwt>
<rscale>  2 0.12500000E+03</rscale>
<asrwt>0</asrwt>
<pdfrwt beam="1">  1       21 0.42021650E-02 0.12500000E+03</pdfrwt>
<pdfrwt beam="2">  1       21 0.22001902E-01 0.12500000E+03</pdfrwt>
<totfact> 0.68278960E+06</totfact>
</mgrwt>
</event>
<event>
 3    0  0.1368989E+001  0.1250000E+03  0.7546771E-02  0.1235069E+00
         21   -1    0    0  502  501  0.00000000000E+00  0.00000000000E+00  0.28581424592E+01  0.28581424592E+01  0.00000000000E+00 0. -1.
         21   -1    0    0  501  502 -0.00000000000E+00 -0.00000000000E+00 -0.13667093421E+04  0.13667093421E+04  0.00000000000E+00 0. -1.
         25    1    1    2    0    0  0.00000000000E+00  0.00000000000E+00 -0.13638511996E+04  0.13695674845E+04  0.12500000000E+03 0.  0.
<mgrwt>
<rscale>  2 0.12500000E+03</rscale>
<asrwt>0</asrwt>
<pdfrwt beam="1">  1       21 0.43971415E-03 0.12500000E+03</pdfrwt>
<pdfrwt beam="2">  1       21 0.21026301E+00 0.12500000E+03</pdfrwt>
<totfact> 0.16047615E+06</totfact>
</mgrwt>
</event>
<event>
 3    0  0.1587067E+001  0.1250000E+03  0.7546771E-02  0.1235069E+00
         21   -1    0    0  502  501  0.00000000000E+00  0.00000000000E+00  0.31158138369E+03  0.31158138369E+03  0.00000000000E+00 0.  1.
         21   -1    0    0  501  502 -0.00000000000E+00 -0.00000000000E+00 -0.12536852985E+02  0.12536852985E+02  0.00000000000E+00 0.  1.
         25    1    1    2    0    0  0.00000000000E+00  0.00000000000E+00  0.29904453070E+03  0.32411823667E+03  0.12500000000E+03 0.  0.
<mgrwt>
<rscale>  2 0.12500000E+03</rscale>
<asrwt>0</asrwt>
<pdfrwt beam="1">  1       21 0.47935592E-01 0.12500000E+03</pdfrwt>
<pdfrwt beam="2">  1       21 0.19287468E-02 0.12500000E+03</pdfrwt>
<totfact> 0.53508601E+06</totfact>
</mgrwt>
</event>
<event>
 3    0  0.1599827E+001  0.1250000E+03  0.7546771E-02  0.1235069E+00
         21   -1    0    0  502  501  0.00000000000E+00  0.00000000000E+00  0.15383143479E+02  0.15383143479E+02  0.00000000000E+00 0. -1.
         21   -1    0    0  501  502 -0.00000000000E+00 -0.00000000000E+00 -0.25393054451E+03  0.25393054451E+03  0.00000000000E+00 0. -1.
         25    1    1    2    0    0  0.00000000000E+00  0.00000000000E+00 -0.23854740103E+03  0.26931368799E+03  0.12500000000E+03 0.  0.
<mgrwt>
<rscale>  2 0.12500000E+03</rscale>
<asrwt>0</asrwt>
<pdfrwt beam="1">  1       21 0.23666376E-02 0.12500000E+03</pdfrwt>
<pdfrwt beam="2">  1       21 0.39066235E-01 0.12500000E+03</pdfrwt>
<totfact> 0.58105997E+06</totfact>
</mgrwt>
</event>
<event>
 3    0  0.1685345E+001  0.1250000E+03  0.7546771E-02  0.1235069E+00
         21   -1    0    0  502  501  0.00000000000E+00  0.00000000000E+00  0.99710703651E+02  0.99710703651E+02  0.00000000000E+00 0. -1.
         21   -1    0    0  501  502 -0.00000000000E+00 -0.00000000000E+00 -0.39175834258E+02  0.39175834258E+02  0.00000000000E+00 0. -1.
         25    1    1    2    0    0  0.00000000000E+00  0.00000000000E+00  0.60534869393E+02  0.13888653791E+03  0.12500000000E+03 0.  0.
<mgrwt>
<rscale>  2 0.12500000E+03</rscale>
<asrwt>0</asrwt>
<pdfrwt beam="1">  1       21 0.15340108E-01 0.12500000E+03</pdfrwt>
<pdfrwt beam="2">  1       21 0.60270514E-02 0.12500000E+03</pdfrwt>
<totfact> 0.72185003E+06</totfact>
</mgrwt>
</event>
<event>
 3    0  0.1502983E+001  0.1250000E+03  0.7546771E-02  0.1235069E+00
         21   -1    0    0  502  501  0.00000000000E+00  0.00000000000E+00  0.40208344864E+03  0.40208344864E+03  0.00000000000E+00 0.  1.
         21   -1    0    0  501  502 -0.00000000000E+00 -0.00000000000E+00 -0.97150231206E+01  0.97150231206E+01  0.00000000000E+00 0.  1.
         25    1    1    2    0    0  0.00000000000E+00  0.00000000000E+00  0.39236842552E+03  0.41179847177E+03  0.12500000000E+03 0.  0.
<mgrwt>
<rscale>  2 0.12500000E+03</rscale>
<asrwt>0</asrwt>
<pdfrwt beam="1">  1       21 0.61858979E-01 0.12500000E+03</pdfrwt>
<pdfrwt beam="2">  1       21 0.14946192E-02 0.12500000E+03</pdfrwt>
<totfact> 0.47268498E+06</totfact>
</mgrwt>
</event>
<event>
 3    0  0.1490393E+001  0.1250000E+03  0.7546771E-02  0.1235069E+00
         21   -1    0    0  502  501  0.00000000000E+00  0.00000000000E+00  0.85589590511E+01  0.85589590511E+01  0.00000000000E+00 0.  1.
         21   -1    0    0  501  502 -0.00000000000E+00 -0.00000000000E+00 -0.45639311704E+03  0.45639311704E+03  0.00000000000E+00 0.  1.
         25    1    1    2    0    0  0.00000000000E+00  0.00000000000E+00 -0.44783415799E+03  0.46495207609E+03  0.12500000000E+03 0.  0.
<mgrwt>
<rscale>  2 0.12500000E+03</rscale>
<asrwt>0</asrwt>
<pdfrwt beam="1">  1       21 0.13167625E-02 0.12500000E+03</pdfrwt>
<pdfrwt beam="2">  1       21 0.70214350E-01 0.12500000E+03</pdfrwt>
<totfact> 0.44010871E+06</totfact>
</mgrwt>
</event>
<event>
 3    0  0.1692926E+001  0.1250000E+03  0.7546771E-02  0.1235069E+00
         21   -1    0    0  502  501  0.00000000000E+00  0.00000000000E+00  0.77163398579E+02  0.77163398579E+02  0.00000000000E+00 0. -1.
         21   -1    0    0  501  502 -0.00000000000E+00 -0.00000000000E+00 -0.50623094264E+02  0.50623094264E+02  0.00000000000E+00 0. -1.
         25    1    1    2    0    0  0.00000000000E+00  0.00000000000E+00  0.26540304315E+02  0.12778649284E+03  0.12500000000E+03 0.  0.
<mgrwt>
<rscale>  2 0.12500000E+03</rscale>
<asrwt>0</asrwt>
<pdfrwt beam="1">  1       21 0.11871292E-01 0.12500000E+03</pdfrwt>
<pdfrwt beam="2">  1       21 0.77881683E-02 0.12500000E+03</pdfrwt>
<totfact> 0.73662421E+06</totfact>
</mgrwt>
</event>
<event>
 3    0  0.1368989E+001  0.1250000E+03  0.7546771E-02  0.1235069E+00
         21   -1    0    0  502  501  0.00000000000E+00  0.00000000000E+00  0.71014041328E+03  0.71014041328E+03  0.00000000000E+00 0.  1.
         21   -1    0    0  501  502 -0.00000000000E+00 -0.00000000000E+00 -0.55006727218E+01  0.55006727218E+01  0.00000000000E+00 0.  1.
         25    1    1    2    0    0  0.00000000000E+00  0.00000000000E+00  0.70463974056E+03  0.71564108600E+03  0.12500000000E+03 0.  0.
<mgrwt>
<rscale>  2 0.12500000E+03</rscale>
<asrwt>0</asrwt>
<pdfrwt beam="1">  1       21 0.10925230E+00 0.12500000E+03</pdfrwt>
<pdfrwt beam="2">  1       21 0.84625790E-03 0.12500000E+03</pdfrwt>
<totfact> 0.32315800E+06</totfact>
</mgrwt>
</event>
<event>
 3    0  0.1616037E+001  0.1250000E+03  0.7546771E-02  0.1235069E+00
         21   -1    0    0  502  501  0.00000000000E+00  0.00000000000E+00  0.21357676598E+03  0.21357676598E+03  0.00000000000E+00 0. -1.
         21   -1    0    0  501  502 -0.00000000000E+00 -0.00000000000E+00 -0.18289676698E+02  0.18289676698E+02  0.00000000000E+00 0. -1.
         25    1    1    2    0    0  0.00000000000E+00  0.00000000000E+00  0.19528708928E+03  0.23186644268E+03  0.12500000000E+03 0.  0.
<mgrwt>
<rscale>  2 0.12500000E+03</rscale>
<asrwt>0</asrwt>
<pdfrwt beam="1">  1       21 0.32857962E-01 0.12500000E+03</pdfrwt>
<pdfrwt beam="2">  1       21 0.28137966E-02 0.12500000E+03</pdfrwt>
<totfact> 0.61628726E+06</totfact>
</mgrwt>
</event>
<event>
 3    0  0.1489926E+001  0.1250000E+03  0.7546771E-02  0.1235069E+00
         21   -1    0    0  502  501  0.00000000000E+00  0.00000000000E+00  0.41848593287E+03  0.41848593287E+03  0.00000000000E+00 0. -1.
         21   -1    0    0  501  502 -0.00000000000E+00 -0.00000000000E+00 -0.93342444588E+01  0.93342444588E+01  0.00000000000E+00 0. -1.
         25    1    1    2    0    0  0.00000000000E+00  0.00000000000E+00  0.40915168841E+03  0.42782017733E+03  0.12500000000E+03 0.  0.
<mgrwt>
<rscale>  2 0.12500000E+03</rscale>
<asrwt>0</asrwt>
<pdfrwt beam="1">  1       21 0.64382437E-01 0.12500000E+03</pdfrwt>
<pdfrwt beam="2">  1       21 0.14360379E-02 0.12500000E+03</pdfrwt>
<totfact> 0.46249205E+06</totfact>
</mgrwt>
</event>
<event>
 3    0  0.1662228E+001  0.1250000E+03  0.7546771E-02  0.1235069E+00
         21   -1    0    0  502  501  0.00000000000E+00  0.00000000000E+00  0.18562609656E+03  0.18562609656E+03  0.00000000000E+00 0.  1.
         21   -1    0    0  501  502 -0.00000000000E+00 -0.00000000000E+00 -0.21043646730E+02  0.21043646730E+02  0.00000000000E+00 0.  1.
         25    1    1    2    0    0  0.00000000000E+00  0.00000000000E+00  0.16458244983E+03  0.20666974329E+03  0.12500000000E+03 0.  0.
<mgrwt>
<rscale>  2 0.12500000E+03</rscale>
<asrwt>0</asrwt>
<pdfrwt beam="1">  1       21 0.28557860E-01 0.12500000E+03</pdfrwt>
<pdfrwt beam="2">  1       21 0.32374842E-02 0.12500000E+03</pdfrwt>
<totfact> 0.64211629E+06</totfact>
</mgrwt>
</event>
<event>
 3    0  0.1708823E+001  0.1250000E+03  0.7546771E-02  0.1235069E+00
         21   -1    0    0  502  501  0.00000000000E+00  0.00000000000E+00  0.44220622223E+02  0.44220622223E+02  0.00000000000E+00 0.  1.
         21   -1    0    0  501  502 -0.00000000000E+00 -0.00000000000E+00 -0.88335482487E+02  0.88335482487E+02  0.00000000000E+00 0.  1.
         25    1    1    2    0    0  0.00000000000E+00  0.00000000000E+00 -0.44114860264E+02  0.13255610471E+03  0.12500000000E+03 0.  0.
<mgrwt>
<rscale>  2 0.12500000E+03</rscale>
<asrwt>0</asrwt>
<pdfrwt beam="1">  1       21 0.68031726E-02 0.12500000E+03</pdfrwt>
<pdfrwt beam="2">  1       21 0.13590074E-01 0.12500000E+03</pdfrwt>
<totfact> 0.73021731E+06</totfact>
</mgrwt>
</event>
<event>
 3    0  0.1654671E+001  0.1250000E+03  0.7546771E-02  0.1235069E+00
         21   -1    0    0  502  501  0.00000000000E+00  0.00000000000E+00  0.28442203340E+02  0.28442203340E+02  0.00000000000E+00 0. -1.
         21   -1    0    0  501  502 -0.00000000000E+00 -0.00000000000E+00 -0.13733992241E+03  0.13733992241E+03  0.00000000000E+00 0. -1.
         25    1    1    2    0    0  0.00000000000E+00  0.00000000000E+00 -0.10889771907E+03  0.16578212575E+03  0.12500000000E+03 0.  0.
<mgrwt>
<rscale>  2 0.12500000E+03</rscale>
<asrwt>0</asrwt>
<pdfrwt beam="1">  1       21 0.43757237E-02 0.12500000E+03</pdfrwt>
<pdfrwt beam="2">  1       21 0.21129218E-01 0.12500000E+03</pdfrwt>
<totfact> 0.68819794E+06</totfact>
</mgrwt>
</event>
<event>
 3    0  0.1670396E+001  0.1250000E+03  0.7546771E-02  0.1235069E+00
         21   -1    0    0  502  501  0.00000000000E+00  0.00000000000E+00  0.24610505192E+02  0.24610505192E+02  0.00000000000E+00 0.  1.
         21   -1    0    0  501  502 -0.00000000000E+00 -0.00000000000E+00 -0.15872286934E+03  0.15872286934E+03  0.00000000000E+00 0.  1.
         25    1    1    2    0    0  0.00000000000E+00  0.00000000000E+00 -0.13411236415E+03  0.18333337453E+03  0.12500000000E+03 0.  0.
<mgrwt>
<rscale>  2 0.12500000E+03</rscale>
<asrwt>0</asrwt>
<pdfrwt beam="1">  1       21 0.37862316E-02 0.12500000E+03</pdfrwt>
<pdfrwt beam="2">  1       21 0.24418903E-01 0.12500000E+03</pdfrwt>
<totfact> 0.66771185E+06</totfact>
</mgrwt>
</event>
<event>
 3    0  0.1368989E+001  0.1250000E+03  0.7546771E-02  0.1235069E+00
         21   -1    0    0  502  501  0.00000000000E+00  0.00000000000E+00  0.14669111105E+04  0.14669111105E+04  0.00000000000E+00 0. -1.
         21   -1    0    0  501  502 -0.00000000000E+00 -0.00000000000E+00 -0.26629084557E+01  0.26629084557E+01  0.00000000000E+00 0. -1.
         25    1    1    2    0    0  0.00000000000E+00  0.00000000000E+00  0.14642482021E+04  0.14695740190E+04  0.12500000000E+03 0.  0.
<mgrwt>
<rscale>  2 0.12500000E+03</rscale>
<asrwt>0</asrwt>
<pdfrwt beam="1">  1       21 0.22567799E+00 0.12500000E+03</pdfrwt>
<pdfrwt beam="2">  1       21 0.40967940E-03 0.12500000E+03</pdfrwt>
<totfact> 0.14450163E+06</totfact>
</mgrwt>
</event>
<event>
 3    0  0.1685049E+001  0.1250000E+03  0.7546771E-02  0.1235069E+00
         21   -1    0    0  502  501  0.00000000000E+00  0.00000000000E+00  0.44404251529E+02  0.44404251529E+02  0.00000000000E+00 0. -1.
         21   -1    0    0  501  502 -0.00000000000E+00 -0.00000000000E+00 -0.87970180005E+02  0.87970180005E+02  0.00000000000E+00 0. -1.
         25    1    1    2    0    0  0.00000000000E+00  0.00000000000E+00 -0.43565928477E+02  0.13237443153E+03  0.12500000000E+03 0.  0.
<mgrwt>
<rscale>  2 0.12500000E+03</rscale>
<asrwt>0</asrwt>
<pdfrwt beam="1">  1       21 0.68314233E-02 0.12500000E+03</pdfrwt>
<pdfrwt beam="2">  1       21 0.13533874E-01 0.12500000E+03</pdfrwt>
<totfact> 0.73046048E+06</totfact>
</mgrwt>
</event>
<event>
 3    0  0.1694908E+001  0.1250000E+03  0.7546771E-02  0.1235069E+00
         21   -1    0    0  502  501  0.00000000000E+00  0.00000000000E+00  0.64832663527E+02  0.64832663527E+02  0.00000000000E+00 0. -1.
         21   -1    0    0  501  502 -0.00000000000E+00 -0.00000000000E+00 -0.60251265141E+02  0.60251265141E+02  0.00000000000E+00 0. -1.
         25    1    1    2    0    0  0.00000000000E+00  0.00000000000E+00  0.45813983861E+01  0.12508392867E+03  0.12500000000E+03 0.  0.
<mgrwt>
<rscale>  2 0.12500000E+03</rscale>
<asrwt>0</asrwt>
<pdfrwt beam="1">  1       21 0.99742560E-02 0.12500000E+03</pdfrwt>
<pdfrwt beam="2">  1       21 0.92694254E-02 0.12500000E+03</pdfrwt>
<totfact> 0.74032246E+06</totfact>
</mgrwt>
</event>
<event>
 3    0  0.1368989E+001  0.1250000E+03  0.7546771E-02  0.1235069E+00
         21   -1    0    0  502  501  0.00000000000E+00  0.00000000000E+00  0.34084880448E+01  0.34084880448E+01  0.00000000000E+00 0.  1.
         21   -1    0    0  501  502 -0.00000000000E+00 -0.00000000000E+00 -0.11460359986E+04  0.11460359986E+04  0.00000000000E+00 0.  1.
         25    1    1    2    0    0  0.00000000000E+00  0.00000000000E+00 -0.11426275105E+04  0.11494444866E+04  0.12500000000E+03 0.  0.
<mgrwt>
<rscale>  2 0.12500000E+03</rscale>
<asrwt>0</asrwt>
<pdfrwt beam="1">  1       21 0.52438228E-03 0.12500000E+03</pdfrwt>
<pdfrwt beam="2">  1       21 0.17631340E+00 0.12500000E+03</pdfrwt>
<totfact> 0.20180863E+06</totfact>
</mgrwt>
</event>
<event>
 3    0  0.1491319E+001  0.1250000E+03  0.7546771E-02  0.1235069E+00
         21   -1    0    0  502  501  0.00000000000E+00  0.00000000000E+00  0.91084591076E+01  0.91084591076E+01  0.00000000000E+00 0.  1.
         21   -1    0    0  501  502 -0.00000000000E+00 -0.00000000000E+00 -0.42885958578E+03  0.42885958578E+03  0.00000000000E+00 0.  1.
         25    1    1    2    0    0  0.00000000000E+00  0.00000000000E+00 -0.41975112668E+03  0.43796804489E+03  0.12500000000E+03 0.  0.
<mgrwt>
<rscale>  2 0.12500000E+03</rscale>
<asrwt>0</asrwt>
<pdfrwt beam="1">  1       21 0.14013014E-02 0.12500000E+03</pdfrwt>
<pdfrwt beam="2">  1       21 0.65978399E-01 0.12500000E+03</pdfrwt>
<totfact> 0.45620874E+06</totfact>
</mgrwt>
</event>
<event>
 3    0  0.1709208E+001  0.1250000E+03  0.7546771E-02  0.1235069E+00
         21   -1    0    0  502  501  0.00000000000E+00  0.00000000000E+00  0.97189154056E+02  0.97189154056E+02  0.00000000000E+00 0.  1.
         21   -1    0    0  501  502 -0.00000000000E+00 -0.00000000000E+00 -0.40192242004E+02  0.40192242004E+02  0.00000000000E+00 0.  1.
         25    1    1    2    0    0  0.00000000000E+00  0.00000000000E+00  0.56996912052E+02  0.13738139606E+03  0.12500000000E+03 0.  0.
<mgrwt>
<rscale>  2 0.12500000E+03</rscale>
<asrwt>0</asrwt>
<pdfrwt beam="1">  1       21 0.14952178E-01 0.12500000E+03</pdfrwt>
<pdfrwt beam="2">  1       21 0.61834219E-02 0.12500000E+03</pdfrwt>
<totfact> 0.72382668E+06</totfact>
</mgrwt>
</event>
<event>
 3    0  0.1687198E+001  0.1250000E+03  0.7546771E-02  0.1235069E+00
         21   -1    0    0  502  501  0.00000000000E+00  0.00000000000E+00  0.30565097079E+02  0.30565097079E+02  0.00000000000E+00 0.  1.
         21   -1    0    0  501  502 -0.00000000000E+00 -0.00000000000E+00 -0.12780100092E+03  0.12780100092E+03  0.00000000000E+00 0.  1.
         25    1    1    2    0    0  0.00000000000E+00  0.00000000000E+00 -0.97235903846E+02  0.15836609800E+03  0.12500000000E+03 0.  0.
<mgrwt>
<rscale>  2 0.12500000E+03</rscale>
<asrwt>0</asrwt>
<pdfrwt beam="1">  1       21 0.47023226E-02 0.12500000E+03</pdfrwt>
<pdfrwt beam="2">  1       21 0.19661693E-01 0.12500000E+03</pdfrwt>
<totfact> 0.69719694E+06</totfact>
</mgrwt>
</event>
<event>
 3    0  0.1717958E+001  0.1250000E+03  0.7546771E-02  0.1235069E+00
         21   -1    0    0  502  501  0.00000000000E+00  0.00000000000E+00  0.79717648971E+02  0.79717648971E+02  0.00000000000E+00 0.  1.
         21   -1    0    0  501  502 -0.00000000000E+00 -0.00000000000E+00 -0.49001068778E+02  0.49001068778E+02  0.00000000000E+00 0.  1.
         25    1    1    2    0    0  0.00000000000E+00  0.00000000000E+00  0.30716580193E+02  0.12871871775E+03  0.12500000000E+03 0.  0.
<mgrwt>
<rscale>  2 0.12500000E+03</rscale>
<asrwt>0</asrwt>
<pdfrwt beam="1">  1       21 0.12264254E-01 0.12500000E+03</pdfrwt>
<pdfrwt beam="2">  1       21 0.75386259E-02 0.12500000E+03</pdfrwt>
<totfact> 0.73536685E+06</totfact>
</mgrwt>
</event>
<event>
 3    0  0.1702655E+001  0.1250000E+03  0.7546771E-02  0.1235069E+00
         21   -1    0    0  502  501  0.00000000000E+00  0.00000000000E+00  0.11776113599E+03  0.11776113599E+03  0.00000000000E+00 0.  1.
         21   -1    0    0  501  502 -0.00000000000E+00 -0.00000000000E+00 -0.33170960582E+02  0.33170960582E+02  0.00000000000E+00 0.  1.
         25    1    1    2    0    0  0.00000000000E+00  0.00000000000E+00  0.84590175408E+02  0.15093209657E+03  0.12500000000E+03 0.  0.
<mgrwt>
<rscale>  2 0.12500000E+03</rscale>
<asrwt>0</asrwt>
<pdfrwt beam="1">  1       21 0.18117098E-01 0.12500000E+03</pdfrwt>
<pdfrwt beam="2">  1       21 0.51032248E-02 0.12500000E+03</pdfrwt>
<totfact> 0.70642309E+06</totfact>
</mgrwt>
</event>
<event>
 3    0  0.1368989E+001  0.1250000E+03  0.7546771E-02  0.1235069E+00
         21   -1    0    0  502  501  0.00000000000E+00  0.00000000000E+00  0.27198991267E+01  0.27198991267E+01  0.00000000000E+00 0. -1.
         21   -1    0    0  501  502 -0.00000000000E+00 -0.00000000000E+00 -0.14361745852E+04  0.14361745852E+04  0.00000000000E+00 0. -1.
         25    1    1    2    0    0  0.00000000000E+00  0.00000000000E+00 -0.14334546861E+04  0.14388944843E+04  0.12500000000E+03 0.  0.
<mgrwt>
<rscale>  2 0.12500000E+03</rscale>
<asrwt>0</asrwt>
<pdfrwt beam="1">  1       21 0.41844692E-03 0.12500000E+03</pdfrwt>
<pdfrwt beam="2">  1       21 0.22094946E+00 0.12500000E+03</pdfrwt>
<totfact> 0.14923762E+06</totfact>
</mgrwt>
</event>
<event>
 3    0  0.1670334E+001  0.1250000E+03  0.7546771E-02  0.1235069E+00
         21   -1    0    0  502  501  0.00000000000E+00  0.00000000000E+00  0.12151273644E+03  0.12151273644E+03  0.00000000000E+00 0. -1.
         21   -1    0    0  501  502 -0.00000000000E+00 -0.00000000000E+00 -0.32146835916E+02  0.32146835916E+02  0.00000000000E+00 0. -1.
         25    1    1    2    0    0  0.00000000000E+00  0.00000000000E+00  0.89365900522E+02  0.15365957235E+03  0.12500000000E+03 0.  0.
<mgrwt>
<rscale>  2 0.12500000E+03</rscale>
<asrwt>0</asrwt>
<pdfrwt beam="1">  1       21 0.18694267E-01 0.12500000E+03</pdfrwt>
<pdfrwt beam="2">  1       21 0.49456671E-02 0.12500000E+03</pdfrwt>
<totfact> 0.70302462E+06</totfact>
</mgrwt>
</event>
<event>
 3    0  0.1697803E+001  0.1250000E+03  0.7546771E-02  0.1235069E+00
         21   -1    0    0  502  501  0.00000000000E+00  0.00000000000E+00  0.11556646095E+03  0.11556646095E+03  0.00000000000E+00 0.  1.
         21   -1    0    0  501  502 -0.00000000000E+00 -0.00000000000E+00 -0.33800896626E+02  0.33800896626E+02  0.00000000000E+00 0.  1.
         25    1    1    2    0    0  0.00000000000E+00  0.00000000000E+00  0.81765564325E+02  0.14936735758E+03  0.12500000000E+03 0.  0.
<mgrwt>
<rscale>  2 0.12500000E+03</rscale>
<asrwt>0</asrwt>
<pdfrwt beam="1">  1       21 0.17779455E-01 0.12500000E+03</pdfrwt>
<pdfrwt beam="2">  1       21 0.52001380E-02 0.12500000E+03</pdfrwt>
<totfact> 0.70838763E+06</totfact>
</mgrwt>
</event>
<event>
 3    0  0.1426614E+001  0.1250000E+03  0.7546771E-02  0.1235069E+00
         21   -1    0    0  502  501  0.00000000000E+00  0.00000000000E+00  0.50137951020E+03  0.50137951020E+03  0.00000000000E+00 0. -1.
         21   -1    0    0  501  502 -0.00000000000E+00 -0.00000000000E+00 -0.77910044598E+01  0.77910044598E+01  0.00000000000E+00 0. -1.
         25    1    1    2    0    0  0.00000000000E+00  0.00000000000E+00  0.49358850574E+03  0.50917051466E+03  0.12500000000E+03 0.  0.
<mgrwt>
<rscale>  2 0.12500000E+03</rscale>
<asrwt>0</asrwt>
<pdfrwt beam="1">  1       21 0.77135284E-01 0.12500000E+03</pdfrwt>
<pdfrwt beam="2">  1       21 0.11986165E-02 0.12500000E+03</pdfrwt>
<totfact> 0.41551069E+06</totfact>
</mgrwt>
</event>
<event>
 3    0  0.1691970E+001  0.1250000E+03  0.7546771E-02  0.1235069E+00
         21   -1    0    0  502  501  0.00000000000E+00  0.00000000000E+00  0.80964805373E+02  0.80964805373E+02  0.00000000000E+00 0. -1.
         21   -1    0    0  501  502 -0.00000000000E+00 -0.00000000000E+00 -0.48246271723E+02  0.48246271723E+02  0.00000000000E+00 0. -1.
         25    1    1    2    0    0  0.00000000000E+00  0.00000000000E+00  0.32718533650E+02  0.12921107710E+03  0.12500000000E+03 0.  0.
<mgrwt>
<rscale>  2 0.12500000E+03</rscale>
<asrwt>0</asrwt>
<pdfrwt beam="1">  1       21 0.12456124E-01 0.12500000E+03</pdfrwt>
<pdfrwt beam="2">  1       21 0.74225033E-02 0.12500000E+03</pdfrwt>
<totfact> 0.73470549E+06</totfact>
</mgrwt>
</event>
<event>
 3    0  0.1691157E+001  0.1250000E+03  0.7546771E-02  0.1235069E+00
         21   -1    0    0  502  501  0.00000000000E+00  0.00000000000E+00  0.84231436008E+02  0.84231436008E+02  0.00000000000E+00 0. -1.
         21   -1    0    0  501  502 -0.00000000000E+00 -0.00000000000E+00 -0.46375203666E+02  0.46375203666E+02  0.00000000000E+00 0. -1.
         25    1    1    2    0    0  0.00000000000E+00  0.00000000000E+00  0.37856232342E+02  0.13060663967E+03  0.12500000000E+03 0.  0.
<mgrwt>
<rscale>  2 0.12500000E+03</rscale>
<asrwt>0</asrwt>
<pdfrwt beam="1">  1       21 0.12958682E-01 0.12500000E+03</pdfrwt>
<pdfrwt beam="2">  1       21 0.71346467E-02 0.12500000E+03</pdfrwt>
<totfact> 0.73283730E+06</totfact>
</mgrwt>
</event>
<event>
 3    0  0.1719332E+001  0.1250000E+03  0.7546771E-02  0.1235069E+00
         21   -1    0    0  502  501  0.00000000000E+00  0.00000000000E+00  0.59129115972E+02  0.59129115972E+02  0.00000000000E+00 0.  1.
         21   -1    0    0  501  502 -0.00000000000E+00 -0.00000000000E+00 -0.66063054314E+02  0.66063054314E+02  0.00000000000E+00 0.  1.
         25    1    1    2    0    0  0.00000000000E+00  0.00000000000E+00 -0.69339383412E+01  0.12519217029E+03  0.12500000000E+03 0.  0.
<mgrwt>
<rscale>  2 0.12500000E+03</rscale>
<asrwt>0</asrwt>
<pdfrwt beam="1">  1       21 0.90967871E-02 0.12500000E+03</pdfrwt>
<pdfrwt beam="2">  1       21 0.10163547E-01 0.12500000E+03</pdfrwt>
<totfact> 0.74017629E+06</totfact>
</mgrwt>
</event>
<event>
 3    0  0.1577359E+001  0.1250000E+03  0.7546771E-02  0.1235069E+00
         21   -1    0    0  502  501  0.00000000000E+00  0.00000000000E+00  0.15567549922E+02  0.15567549922E+02  0.00000000000E+00 0. -1.
         21   -1    0    0  501  502 -0.00000000000E+00 -0.00000000000E+00 -0.25092259344E+03  0.25092259344E+03  0.00000000000E+00 0. -1.
         25    1    1    2    0    0  0.00000000000E+00  0.00000000000E+00 -0.23535504352E+03  0.26649014336E+03  0.12500000000E+03 0.  0.
<mgrwt>
<rscale>  2 0.12500000E+03</rscale>
<asrwt>0</asrwt>
<pdfrwt beam="1">  1       21 0.23950077E-02 0.12500000E+03</pdfrwt>
<pdfrwt beam="2">  1       21 0.38603475E-01 0.12500000E+03</pdfrwt>
<totfact> 0.58359475E+06</totfact>
</mgrwt>
</event>
<event>
 3    0  0.1703108E+001  0.1250000E+03  0.7546771E-02  0.1235069E+00
         21   -1    0    0  502  501  0.00000000000E+00  0.00000000000E+00  0.10617212138E+03  0.10617212138E+03  0.00000000000E+00 0.  1.
         21   -1    0    0  501  502 -0.00000000000E+00 -0.00000000000E+00 -0.36791673269E+02  0.36791673269E+02  0.00000000000E+00 0.  1.
         25    1    1    2    0    0  0.00000000000E+00  0.00000000000E+00  0.69380448109E+02  0.14296379465E+03  0.12500000000E+03 0.  0.
<mgrwt>
<rscale>  2 0.12500000E+03</rscale>
<asrwt>0</asrwt>
<pdfrwt beam="1">  1       21 0.16334172E-01 0.12500000E+03</pdfrwt>
<pdfrwt beam="2">  1       21 0.56602575E-02 0.12500000E+03</pdfrwt>
<totfact> 0.71654714E+06</totfact>
</mgrwt>
</event>
<event>
 3    0  0.1702612E+001  0.1250000E+03  0.7546771E-02  0.1235069E+00
         21   -1    0    0  502  501  0.00000000000E+00  0.00000000000E+00  0.37837833871E+02  0.37837833871E+02  0.00000000000E+00 0.  1.
         21   -1    0    0  501  502 -0.00000000000E+00 -0.00000000000E+00 -0.10323661797E+03  0.10323661797E+03  0.00000000000E+00 0.  1.
         25    1    1    2    0    0  0.00000000000E+00  0.00000000000E+00 -0.65398784094E+02  0.14107445184E+03  0.12500000000E+03 0.  0.
<mgrwt>
<rscale>  2 0.12500000E+03</rscale>
<asrwt>0</asrwt>
<pdfrwt beam="1">  1       21 0.58212053E-02 0.12500000E+03</pdfrwt>
<pdfrwt beam="2">  1       21 0.15882556E-01 0.12500000E+03</pdfrwt>
<totfact> 0.71899350E+06</totfact>
</mgrwt>
</event>
<event>
 3    0  0.1631074E+001  0.1250000E+03  0.7546771E-02  0.1235069E+00
         21   -1    0    0  502  501  0.00000000000E+00  0.00000000000E+00  0.23737354011E+03  0.23737354011E+03  0.00000000000E+00 0.  1.
         21   -1    0    0  501  502 -0.00000000000E+00 -0.00000000000E+00 -0.16456130697E+02  0.16456130697E+02  0.00000000000E+00 0.  1.
         25    1    1    2    0    0  0.00000000000E+00  0.00000000000E+00  0.22091740941E+03  0.25382967080E+03  0.12500000000E+03 0.  0.
<mgrwt>
<rscale>  2 0.12500000E+03</rscale>
<asrwt>0</asrwt>
<pdfrwt beam="1">  1       21 0.36519004E-01 0.12500000E+03</pdfrwt>
<pdfrwt beam="2">  1       21 0.25317126E-02 0.12500000E+03</pdfrwt>
<totfact> 0.59519495E+06</totfact>
</mgrwt>
</event>
<event>
 3    0  0.1368989E+001  0.1250000E+03  0.7546771E-02  0.1235069E+00
         21   -1    0    0  502  501  0.00000000000E+00  0.00000000000E+00  0.98147422994E+03  0.98147422994E+03  0.00000000000E+00 0. -1.
         21   -1    0    0  501  502 -0.00000000000E+00 -0.00000000000E+00 -0.39799822358E+01  0.39799822358E+01  0.00000000000E+00 0. -1.
         25    1    1    2    0    0  0.00000000000E+00  0.00000000000E+00  0.97749424770E+03  0.98545421217E+03  0.12500000000E+03 0.  0.
<mgrwt>
<rscale>  2 0.12500000E+03</rscale>
<asrwt>0</asrwt>
<pdfrwt beam="1">  1       21 0.15099584E+00 0.12500000E+03</pdfrwt>
<pdfrwt beam="2">  1       21 0.61230574E-03 0.12500000E+03</pdfrwt>
<totfact> 0.23985605E+06</totfact>
</mgrwt>
</event>
<event>
 3    0  0.1658129E+001  0.1250000E+03  0.7546771E-02  0.1235069E+00
         21   -1    0    0  502  501  0.00000000000E+00  0.00000000000E+00  0.26347323262E+02  0.26347323262E+02  0.00000000000E+00 0. -1.
         21   -1    0    0  501  502 -0.00000000000E+00 -0.00000000000E+00 -0.14825984261E+03  0.14825984261E+03  0.00000000000E+00 0. -1.
         25    1    1    2    0    0  0.00000000000E+00  0.00000000000E+00 -0.12191251935E+03  0.17460716587E+03  0.12500000000E+03 0.  0.
<mgrwt>
<rscale>  2 0.12500000E+03</rscale>
<asrwt>0</asrwt>
<pdfrwt beam="1">  1       21 0.40534344E-02 0.12500000E+03</pdfrwt>
<pdfrwt beam="2">  1       21 0.22809206E-01 0.12500000E+03</pdfrwt>
<totfact> 0.67775636E+06</totfact>
</mgrwt>
</event>
<event>
 3    0  0.1657924E+001  0.1250000E+03  0.7546771E-02  0.1235069E+00
         21   -1    0    0  502  501  0.00000000000E+00  0.00000000000E+00  0.16401647733E+03  0.16401647733E+03  0.00000000000E+00 0.  1.
         21   -1    0    0  501  502 -0.00000000000E+00 -0.00000000000E+00 -0.23816204711E+02  0.23816204711E+02  0.00000000000E+00 0.  1.
         25    1    1    2    0    0  0.00000000000E+00  0.00000000000E+00  0.14020027261E+03  0.18783268204E+03  0.12500000000E+03 0.  0.
<mgrwt>
<rscale>  2 0.12500000E+03</rscale>
<asrwt>0</asrwt>
<pdfrwt beam="1">  1       21 0.25233304E-01 0.12500000E+03</pdfrwt>
<pdfrwt beam="2">  1       21 0.36640316E-02 0.12500000E+03</pdfrwt>
<totfact> 0.66264155E+06</totfact>
</mgrwt>
</event>
<event>
 3    0  0.1438244E+001  0.1250000E+03  0.7546771E-02  0.1235069E+00
         21   -1    0    0  502  501  0.00000000000E+00  0.00000000000E+00  0.47368604231E+03  0.47368604231E+03  0.00000000000E+00 0. -1.
         21   -1    0    0  501  502 -0.00000000000E+00 -0.00000000000E+00 -0.82464958877E+01  0.82464958877E+01  0.00000000000E+00 0. -1.
         25    1    1    2    0    0  0.00000000000E+00  0.00000000000E+00  0.46543954642E+03  0.48193253820E+03  0.12500000000E+03 0.  0.
<mgrwt>
<rscale>  2 0.12500000E+03</rscale>
<asrwt>0</asrwt>
<pdfrwt beam="1">  1       21 0.72874754E-01 0.12500000E+03</pdfrwt>
<pdfrwt beam="2">  1       21 0.12686920E-02 0.12500000E+03</pdfrwt>
<totfact> 0.43041177E+06</totfact>
</mgrwt>
</event>
<event>
 3    0  0.1710797E+001  0.1250000E+03  0.7546771E-02  0.1235069E+00
         21   -1    0    0  502  501  0.00000000000E+00  0.00000000000E+00  0.44870589743E+02  0.44870589743E+02  0.00000000000E+00 0.  1.
         21   -1    0    0  501  502 -0.00000000000E+00 -0.00000000000E+00 -0.87055909502E+02  0.87055909502E+02  0.00000000000E+00 0.  1.
         25    1    1    2    0    0  0.00000000000E+00  0.00000000000E+00 -0.42185319759E+02  0.13192649925E+03  0.12500000000E+03 0.  0.
<mgrwt>
<rscale>  2 0.12500000E+03</rscale>
<asrwt>0</asrwt>
<pdfrwt beam="1">  1       21 0.69031677E-02 0.12500000E+03</pdfrwt>
<pdfrwt beam="2">  1       21 0.13393217E-01 0.12500000E+03</pdfrwt>
<totfact> 0.73106089E+06</totfact>
</mgrwt>
</event>
<event>
 3    0  0.1665862E+001  0.1250000E+03  0.7546771E-02  0.1235069E+00
         21   -1    0    0  502  501  0.00000000000E+00  0.00000000000E+00  0.17661245558E+03  0.17661245558E+03  0.00000000000E+00 0.  1.
         21   -1    0    0  501  502 -0.00000000000E+00 -0.00000000000E+00 -0.22117635968E+02  0.22117635968E+02  0.00000000000E+00 0.  1.
         25    1    1    2    0    0  0.00000000000E+00  0.00000000000E+00  0.15449481961E+03  0.19873009155E+03  0.12500000000E+03 0.  0.
<mgrwt>
<rscale>  2 0.12500000E+03</rscale>
<asrwt>0</asrwt>
<pdfrwt beam="1">  1       21 0.27171146E-01 0.12500000E+03</pdfrwt>
<pdfrwt beam="2">  1       21 0.34027133E-02 0.12500000E+03</pdfrwt>
<totfact> 0.65065069E+06</totfact>
</mgrwt>
</event>
<event>
 3    0  0.1634293E+001  0.1250000E+03  0.7546771E-02  0.1235069E+00
         21   -1    0    0  502  501  0.00000000000E+00  0.00000000000E+00  0.17988574480E+03  0.17988574480E+03  0.00000000000E+00 0. -1.
         21   -1    0    0  501  502 -0.00000000000E+00 -0.00000000000E+00 -0.21715172619E+02  0.21715172619E+02  0.00000000000E+00 0. -1.
         25    1    1    2    0    0  0.00000000000E+00  0.00000000000E+00  0.15817057218E+03  0.20160091742E+03  0.12500000000E+03 0.  0.
<mgrwt>
<rscale>  2 0.12500000E+03</rscale>
<asrwt>0</asrwt>
<pdfrwt beam="1">  1       21 0.27674729E-01 0.12500000E+03</pdfrwt>
<pdfrwt beam="2">  1       21 0.33407959E-02 0.12500000E+03</pdfrwt>
<totfact> 0.64754195E+06</totfact>
</mgrwt>
</event>
<event>
 3    0  0.1559696E+001  0.1250000E+03  0.7546771E-02  0.1235069E+00
         21   -1    0    0  502  501  0.00000000000E+00  0.00000000000E+00  0.30559107533E+03  0.30559107533E+03  0.00000000000E+00 0.  1.
         21   -1    0    0  501  502 -0.00000000000E+00 -0.00000000000E+00 -0.12782604976E+02  0.12782604976E+02  0.00000000000E+00 0.  1.
         25    1    1    2    0    0  0.00000000000E+00  0.00000000000E+00  0.29280847035E+03  0.31837368031E+03  0.12500000000E+03 0.  0.
<mgrwt>
<rscale>  2 0.12500000E+03</rscale>
<asrwt>0</asrwt>
<pdfrwt beam="1">  1       21 0.47014006E-01 0.12500000E+03</pdfrwt>
<pdfrwt beam="2">  1       21 0.19665548E-02 0.12500000E+03</pdfrwt>
<totfact> 0.53962475E+06</totfact>
</mgrwt>
</event>
<event>
 3    0  0.1669435E+001  0.1250000E+03  0.7546771E-02  0.1235069E+00
         21   -1    0    0  502  501  0.00000000000E+00  0.00000000000E+00  0.27791808050E+02  0.27791808050E+02  0.00000000000E+00 0. -1.
         21   -1    0    0  501  502 -0.00000000000E+00 -0.00000000000E+00 -0.14055400760E+03  0.14055400760E+03  0.00000000000E+00 0. -1.
         25    1    1    2    0    0  0.00000000000E+00  0.00000000000E+00 -0.11276219955E+03  0.16834581565E+03  0.12500000000E+03 0.  0.
<mgrwt>
<rscale>  2 0.12500000E+03</rscale>
<asrwt>0</asrwt>
<pdfrwt beam="1">  1       21 0.42756628E-02 0.12500000E+03</pdfrwt>
<pdfrwt beam="2">  1       21 0.21623693E-01 0.12500000E+03</pdfrwt>
<totfact> 0.68513833E+06</totfact>
</mgrwt>
</event>
<event>
 3    0  0.1368989E+001  0.1250000E+03  0.7546771E-02  0.1235069E+00
         21   -1    0    0  502  501  0.00000000000E+00  0.00000000000E+00  0.40843632051E+01  0.40843632051E+01  0.00000000000E+00 0. -1.
         21   -1    0    0  501  502 -0.00000000000E+00 -0.00000000000E+00 -0.95639143824E+03  0.95639143824E+03  0.00000000000E+00 0. -1.
         25    1    1    2    0    0  0.00000000000E+00  0.00000000000E+00 -0.95230707504E+03  0.96047580145E+03  0.12500000000E+03 0.  0.
<mgrwt>
<rscale>  2 0.12500000E+03</rscale>
<asrwt>0</asrwt>
<pdfrwt beam="1">  1       21 0.62836248E-03 0.12500000E+03</pdfrwt>
<pdfrwt beam="2">  1       21 0.14713740E+00 0.12500000E+03</pdfrwt>
<totfact> 0.24632966E+06</totfact>
</mgrwt>
</event>
<event>
 3    0  0.1651812E+001  0.1250000E+03  0.7546771E-02  0.1235069E+00
         21   -1    0    0  502  501  0.00000000000E+00  0.00000000000E+00  0.25878004581E+02  0.25878004581E+02  0.00000000000E+00 0. -1.
         21   -1    0    0  501  502 -0.00000000000E+00 -0.00000000000E+00 -0.15094865556E+03  0.15094865556E+03  0.00000000000E+00 0. -1.
         25    1    1    2    0    0  0.00000000000E+00  0.00000000000E+00 -0.12507065098E+03  0.17682666014E+03  0.12500000000E+03 0.  0.
<mgrwt>
<rscale>  2 0.12500000E+03</rscale>
<asrwt>0</asrwt>
<pdfrwt beam="1">  1       21 0.39812315E-02 0.12500000E+03</pdfrwt>
<pdfrwt beam="2">  1       21 0.23222870E-01 0.12500000E+03</pdfrwt>
<totfact> 0.67517449E+06</totfact>
</mgrwt>
</event>
<event>
 3    0  0.1689614E+001  0.1250000E+03  0.7546771E-02  0.1235069E+00
         21   -1    0    0  502  501  0.00000000000E+00  0.00000000000E+00  0.85317919926E+02  0.85317919926E+02  0.00000000000E+00 0. -1.
         21   -1    0    0  501  502 -0.00000000000E+00 -0.00000000000E+00 -0.45784637077E+02  0.45784637077E+02  0.00000000000E+00 0. -1.
         25    1    1    2    0    0  0.00000000000E+00  0.00000000000E+00  0.39533282848E+02  0.13110255700E+03  0.12500000000E+03 0.  0.
<mgrwt>
<rscale>  2 0.12500000E+03</rscale>
<asrwt>0</asrwt>
<pdfrwt beam="1">  1       21 0.13125834E-01 0.12500000E+03</pdfrwt>
<pdfrwt beam="2">  1       21 0.70437904E-02 0.12500000E+03</pdfrwt>
<totfact> 0.73216854E+06</totfact>
</mgrwt>
</event>
<event>
 3    0  0.1465105E+001  0.1250000E+03  0.7546771E-02  0.1235069E+00
         21   -1    0    0  502  501  0.00000000000E+00  0.00000000000E+00  0.90539641953E+01  0.90539641953E+01  0.00000000000E+00 0. -1.
         21   -1    0    0  501  502 -0.00000000000E+00 -0.00000000000E+00 -0.43144084909E+03  0.43144084909E+03  0.00000000000E+00 0. -1.
         25    1    1    2    0    0  0.00000000000E+00  0.00000000000E+00 -0.42238688489E+03  0.44049481328E+03  0.12500000000E+03 0.  0.
<mgrwt>
<rscale>  2 0.12500000E+03</rscale>
<asrwt>0</asrwt>
<pdfrwt beam="1">  1       21 0.13929177E-02 0.12500000E+03</pdfrwt>
<pdfrwt beam="2">  1       21 0.66375507E-01 0.12500000E+03</pdfrwt>
<totfact> 0.45466449E+06</totfact>
</mgrwt>
</event>
<event>
 3    0  0.1597406E+001  0.1250000E+03  0.7546771E-02  0.1235069E+00
         21   -1    0    0  502  501  0.00000000000E+00  0.00000000000E+00  0.24184871029E+03  0.24184871029E+03  0.00000000000E+00 0. -1.
         21   -1    0    0  501  502 -0.00000000000E+00 -0.00000000000E+00 -0.16151626343E+02  0.16151626343E+02  0.00000000000E+00 0. -1.
         25    1    1    2    0    0  0.00000000000E+00  0.00000000000E+00  0.22569708395E+03  0.25800033663E+03  0.12500000000E+03 0.  0.
<mgrwt>
<rscale>  2 0.12500000E+03</rscale>
<asrwt>0</asrwt>
<pdfrwt beam="1">  1       21 0.37207491E-01 0.12500000E+03</pdfrwt>
<pdfrwt beam="2">  1       21 0.24848658E-02 0.12500000E+03</pdfrwt>
<totfact> 0.59133041E+06</totfact>
</mgrwt>
</event>
<event>
 3    0  0.1715202E+001  0.1250000E+03  0.7546771E-02  0.1235069E+00
         21   -1    0    0  502  501  0.00000000000E+00  0.00000000000E+00  0.49369875333E+02  0.49369875333E+02  0.00000000000E+00 0.  1.
         21   -1    0    0  501  502 -0.00000000000E+00 -0.00000000000E+00 -0.79122136195E+02  0.79122136195E+02  0.00000000000E+00 0.  1.
         25    1    1    2    0    0  0.00000000000E+00  0.00000000000E+00 -0.29752260862E+02  0.12849201153E+03  0.12500000000E+03 0.  0.
<mgrwt>
<rscale>  2 0.12500000E+03</rscale>
<asrwt>0</asrwt>
<pdfrwt beam="1">  1       21 0.75953654E-02 0.12500000E+03</pdfrwt>
<pdfrwt beam="2">  1       21 0.12172636E-01 0.12500000E+03</pdfrwt>
<totfact> 0.73567198E+06</totfact>
</mgrwt>
</event>
<event>
 3    0  0.1368989E+001  0.1250000E+03  0.7546771E-02  0.1235069E+00
         21   -1    0    0  502  501  0.00000000000E+00  0.00000000000E+00  0.93079372048E+03  0.93079372048E+03  0.00000000000E+00 0. -1.
         21   -1    0    0  501  502 -0.00000000000E+00 -0.00000000000E+00 -0.41966871005E+01  0.41966871005E+01  0.00000000000E+00 0. -1.
         25    1    1    2    0    0  0.00000000000E+00  0.00000000000E+00  0.92659703338E+03  0.93499040759E+03  0.12500000000E+03 0.  0.
<mgrwt>
<rscale>  2 0.12500000E+03</rscale>
<asrwt>0</asrwt>
<pdfrwt beam="1">  1       21 0.14319887E+00 0.12500000E+03</pdfrwt>
<pdfrwt beam="2">  1       21 0.64564491E-03 0.12500000E+03</pdfrwt>
<totfact> 0.25317651E+06</totfact>
</mgrwt>
</event>
<event>
 3    0  0.1516668E+001  0.1250000E+03  0.7546771E-02  0.1235069E+00
         21   -1    0    0  502  501  0.00000000000E+00  0.00000000000E+00  0.34446118720E+03  0.34446118720E+03  0.00000000000E+00 0. -1.
         21   -1    0    0  501  502 -0.00000000000E+00 -0.00000000000E+00 -0.11340174583E+02  0.11340174583E+02  0.00000000000E+00 0. -1.
         25    1    1    2    0    0  0.00000000000E+00  0.00000000000E+00  0.33312101262E+03  0.35580136178E+03  0.12500000000E+03 0.  0.
<mgrwt>
<rscale>  2 0.12500000E+03</rscale>
<asrwt>0</asrwt>
<pdfrwt beam="1">  1       21 0.52994021E-01 0.12500000E+03</pdfrwt>
<pdfrwt beam="2">  1       21 0.17446425E-02 0.12500000E+03</pdfrwt>
<totfact> 0.51112822E+06</totfact>
</mgrwt>
</event>
<event>
 3    0  0.1696093E+001  0.1250000E+03  0.7546771E-02  0.1235069E+00
         21   -1    0    0  502  501  0.00000000000E+00  0.00000000000E+00  0.13890332197E+03  0.13890332197E+03  0.00000000000E+00 0.  1.
         21   -1    0    0  501  502 -0.00000000000E+00 -0.00000000000E+00 -0.28122077606E+02  0.28122077606E+02  0.00000000000E+00 0.  1.
         25    1    1    2    0    0  0.00000000000E+00  0.00000000000E+00  0.11078124436E+03  0.16702539957E+03  0.12500000000E+03 0.  0.
<mgrwt>
<rscale>  2 0.12500000E+03</rscale>
<asrwt>0</asrwt>
<pdfrwt beam="1">  1       21 0.21369741E-01 0.12500000E+03</pdfrwt>
<pdfrwt beam="2">  1       21 0.43264736E-02 0.12500000E+03</pdfrwt>
<totfact> 0.68671095E+06</totfact>
</mgrwt>
</event>
<event>
 3    0  0.1615611E+001  0.1250000E+03  0.7546771E-02  0.1235069E+00
         21   -1    0    0  502  501  0.00000000000E+00  0.00000000000E+00  0.19032366051E+02  0.19032366051E+02  0.00000000000E+00 0. -1.
         21   -1    0    0  501  502 -0.00000000000E+00 -0.00000000000E+00 -0.20524247955E+03  0.20524247955E+03  0.00000000000E+00 0. -1.
         25    1    1    2    0    0  0.00000000000E+00  0.00000000000E+00 -0.18621011349E+03  0.22427484560E+03  0.12500000000E+03 0.  0.
<mgrwt>
<rscale>  2 0.12500000E+03</rscale>
<asrwt>0</asrwt>
<pdfrwt beam="1">  1       21 0.29280563E-02 0.12500000E+03</pdfrwt>
<pdfrwt beam="2">  1       21 0.31575766E-01 0.12500000E+03</pdfrwt>
<totfact> 0.62388242E+06</totfact>
</mgrwt>
</event>
<event>
 3    0  0.1644990E+001  0.1250000E+03  0.7546771E-02  0.1235069E+00
         21   -1    0    0  502  501  0.00000000000E+00  0.00000000000E+00  0.19272717165E+03  0.19272717165E+03  0.00000000000E+00 0.  1.
         21   -1    0    0  501  502 -0.00000000000E+00 -0.00000000000E+00 -0.20268288932E+02  0.20268288932E+02  0.00000000000E+00 0.  1.
         25    1    1    2    0    0  0.00000000000E+00  0.00000000000E+00  0.17245888272E+03  0.21299546058E+03  0.12500000000E+03 0.  0.
<mgrwt>
<rscale>  2 0.12500000E+03</rscale>
<asrwt>0</asrwt>
<pdfrwt beam="1">  1       21 0.29650333E-01 0.12500000E+03</pdfrwt>
<pdfrwt beam="2">  1       21 0.31181984E-02 0.12500000E+03</pdfrwt>
<totfact> 0.63545751E+06</totfact>
</mgrwt>
</event>
<event>
 3    0  0.1443245E+001  0.1250000E+03  0.7546771E-02  0.1235069E+00
         21   -1    0    0  502  501  0.00000000000E+00  0.00000000000E+00  0.47098061692E+03  0.47098061692E+03  0.00000000000E+00 0. -1.
         21   -1    0    0  501  502 -0.00000000000E+00 -0.00000000000E+00 -0.82938657339E+01  0.82938657339E+01  0.00000000000E+00 0. -1.
         25    1    1    2    0    0  0.00000000000E+00  0.00000000000E+00  0.46268675119E+03  0.47927448265E+03  0.12500000000E+03 0.  0.
<mgrwt>
<rscale>  2 0.12500000E+03</rscale>
<asrwt>0</asrwt>
<pdfrwt beam="1">  1       21 0.72458535E-01 0.12500000E+03</pdfrwt>
<pdfrwt beam="2">  1       21 0.12759797E-02 0.12500000E+03</pdfrwt>
<totfact> 0.43190842E+06</totfact>
</mgrwt>
</event>
<event>
 3    0  0.1641520E+001  0.1250000E+03  0.7546771E-02  0.1235069E+00
         21   -1    0    0  502  501  0.00000000000E+00  0.00000000000E+00  0.20109907639E+02  0.20109907639E+02  0.00000000000E+00 0.  1.
         21   -1    0    0  501  502 -0.00000000000E+00 -0.00000000000E+00 -0.19424504926E+03  0.19424504926E+03  0.00000000000E+00 0.  1.
         25    1    1    2    0    0  0.00000000000E+00  0.00000000000E+00 -0.17413514162E+03  0.21435495690E+03  0.12500000000E+03 0.  0.
<mgrwt>
<rscale>  2 0.12500000E+03</rscale>
<asrwt>0</asrwt>
<pdfrwt beam="1">  1       21 0.30938319E-02 0.12500000E+03</pdfrwt>
<pdfrwt beam="2">  1       21 0.29883854E-01 0.12500000E+03</pdfrwt>
<totfact> 0.63404237E+06</totfact>
</mgrwt>
</event>
<event>
 3    0  0.1693900E+001  0.1250000E+03  0.7546771E-02  0.1235069E+00
         21   -1    0    0  502  501  0.00000000000E+00  0.00000000000E+00  0.68679886178E+02  0.68679886178E+02  0.00000000000E+00 0. -1.
         21   -1    0    0  501  502 -0.00000000000E+00 -0.00000000000E+00 -0.56876186281E+02  0.56876186281E+02  0.00000000000E+00 0. -1.
         25    1    1    2    0    0  0.00000000000E+00  0.00000000000E+00  0.11803699897E+02  0.12555607246E+03  0.12500000000E+03 0.  0.
<mgrwt>
<rscale>  2 0.12500000E+03</rscale>
<asrwt>0</asrwt>
<pdfrwt beam="1">  1       21 0.10566136E-01 0.12500000E+03</pdfrwt>
<pdfrwt beam="2">  1       21 0.87501825E-02 0.12500000E+03</pdfrwt>
<totfact> 0.73967566E+06</totfact>
</mgrwt>
</event>
<event>
 3    0  0.1662100E+001  0.1250000E+03  0.7546771E-02  0.1235069E+00
         21   -1    0    0  502  501  0.00000000000E+00  0.00000000000E+00  0.17234837024E+03  0.17234837024E+03  0.00000000000E+00 0.  1.
         21   -1    0    0  501  502 -0.00000000000E+00 -0.00000000000E+00 -0.22664850236E+02  0.22664850236E+02  0.00000000000E+00 0.  1.
         25    1    1    2    0    0  0.00000000000E+00  0.00000000000E+00  0.14968352001E+03  0.19501322048E+03  0.12500000000E+03 0.  0.
<mgrwt>
<rscale>  2 0.12500000E+03</rscale>
<asrwt>0</asrwt>
<pdfrwt beam="1">  1       21 0.26515133E-01 0.12500000E+03</pdfrwt>
<pdfrwt beam="2">  1       21 0.34869002E-02 0.12500000E+03</pdfrwt>
<totfact> 0.65469576E+06</totfact>
</mgrwt>
</event>
<event>
 3    0  0.1694584E+001  0.1250000E+03  0.7546771E-02  0.1235069E+00
         21   -1    0    0  502  501  0.00000000000E+00  0.00000000000E+00  0.66030198694E+02  0.66030198694E+02  0.00000000000E+00 0. -1.
         21   -1    0    0  501  502 -0.00000000000E+00 -0.00000000000E+00 -0.59158537719E+02  0.59158537719E+02  0.00000000000E+00 0. -1.
         25    1    1    2    0    0  0.00000000000E+00  0.00000000000E+00  0.68716609750E+01  0.12518873641E+03  0.12500000000E+03 0.  0.
<mgrwt>
<rscale>  2 0.12500000E+03</rscale>
<asrwt>0</asrwt>
<pdfrwt beam="1">  1       21 0.10158492E-01 0.12500000E+03</pdfrwt>
<pdfrwt beam="2">  1       21 0.91013135E-02 0.12500000E+03</pdfrwt>
<totfact> 0.74018093E+06</totfact>
</mgrwt>
</event>
<event>
 3    0  0.1699283E+001  0.1250000E+03  0.7546771E-02  0.1235069E+00
         21   -1    0    0  502  501  0.00000000000E+00  0.00000000000E+00  0.10806788887E+03  0.10806788887E+03  0.00000000000E+00 0.  1.
         21   -1    0    0  501  502 -0.00000000000E+00 -0.00000000000E+00 -0.36146259918E+02  0.36146259918E+02  0.00000000000E+00 0.  1.
         25    1    1    2    0    0  0.00000000000E+00  0.00000000000E+00  0.71921628956E+02  0.14421414879E+03  0.12500000000E+03 0.  0.
<mgrwt>
<rscale>  2 0.12500000E+03</rscale>
<asrwt>0</asrwt>
<pdfrwt beam="1">  1       21 0.16625829E-01 0.12500000E+03</pdfrwt>
<pdfrwt beam="2">  1       21 0.55609631E-02 0.12500000E+03</pdfrwt>
<totfact> 0.71493820E+06</totfact>
</mgrwt>
</event>
<event>
 3    0  0.1368989E+001  0.1250000E+03  0.7546771E-02  0.1235069E+00
         21   -1    0    0  502  501  0.00000000000E+00  0.00000000000E+00  0.21318849831E+01  0.21318849831E+01  0.00000000000E+00 0. -1.
         21   -1    0    0  501  502 -0.00000000000E+00 -0.00000000000E+00 -0.18322986610E+04  0.18322986610E+04  0.00000000000E+00 0. -1.
         25    1    1    2    0    0  0.00000000000E+00  0.00000000000E+00 -0.18301667760E+04  0.18344305460E+04  0.12500000000E+03 0.  0.
<mgrwt>
<rscale>  2 0.12500000E+03</rscale>
<asrwt>0</asrwt>
<pdfrwt beam="1">  1       21 0.32798193E-03 0.12500000E+03</pdfrwt>
<pdfrwt beam="2">  1       21 0.28189242E+00 0.12500000E+03</pdfrwt>
<totfact> 0.96793528E+05</totfact>
</mgrwt>
</event>
<event>
 3    0  0.1561119E+001  0.1250000E+03  0.7546771E-02  0.1235069E+00
         21   -1    0    0  502  501  0.00000000000E+00  0.00000000000E+00  0.33394865364E+03  0.33394865364E+03  0.00000000000E+00 0.  1.
         21   -1    0    0  501  502 -0.00000000000E+00 -0.00000000000E+00 -0.11697157504E+02  0.11697157504E+02  0.00000000000E+00 0.  1.
         25    1    1    2    0    0  0.00000000000E+00  0.00000000000E+00  0.32225149613E+03  0.34564581114E+03  0.12500000000E+03 0.  0.
<mgrwt>
<rscale>  2 0.12500000E+03</rscale>
<asrwt>0</asrwt>
<pdfrwt beam="1">  1       21 0.51376709E-01 0.12500000E+03</pdfrwt>
<pdfrwt beam="2">  1       21 0.17995629E-02 0.12500000E+03</pdfrwt>
<totfact> 0.51861620E+06</totfact>
</mgrwt>
</event>
<event>
 3    0  0.1591654E+001  0.1250000E+03  0.7546771E-02  0.1235069E+00
         21   -1    0    0  502  501  0.00000000000E+00  0.00000000000E+00  0.16788339218E+02  0.16788339218E+02  0.00000000000E+00 0. -1.
         21   -1    0    0  501  502 -0.00000000000E+00 -0.00000000000E+00 -0.23267638027E+03  0.23267638027E+03  0.00000000000E+00 0. -1.
         25    1    1    2    0    0  0.00000000000E+00  0.00000000000E+00 -0.21588804105E+03  0.24946471948E+03  0.12500000000E+03 0.  0.
<mgrwt>
<rscale>  2 0.12500000E+03</rscale>
<asrwt>0</asrwt>
<pdfrwt beam="1">  1       21 0.25828216E-02 0.12500000E+03</pdfrwt>
<pdfrwt beam="2">  1       21 0.35796364E-01 0.12500000E+03</pdfrwt>
<totfact> 0.59928623E+06</totfact>
</mgrwt>
</event>
<event>
 3    0  0.1368989E+001  0.1250000E+03  0.7546771E-02  0.1235069E+00
         21   -1    0    0  502  501  0.00000000000E+00  0.00000000000E+00  0.13476035772E+04  0.13476035772E+04  0.00000000000E+00 0.  1.
         21   -1    0    0  501  502 -0.00000000000E+00 -0.00000000000E+00 -0.28986640181E+01  0.28986640181E+01  0.00000000000E+00 0.  1.
         25    1    1    2    0    0  0.00000000000E+00  0.00000000000E+00  0.13447049132E+04  0.13505022412E+04  0.12500000000E+03 0.  0.
<mgrwt>
<rscale>  2 0.12500000E+03</rscale>
<asrwt>0</asrwt>
<pdfrwt beam="1">  1       21 0.20732313E+00 0.12500000E+03</pdfrwt>
<pdfrwt beam="2">  1       21 0.44594939E-03 0.12500000E+03</pdfrwt>
<totfact> 0.16369290E+06</totfact>
</mgrwt>
</event>
<event>
 3    0  0.1632838E+001  0.1250000E+03  0.7546771E-02  0.1235069E+00
         21   -1    0    0  502  501  0.00000000000E+00  0.00000000000E+00  0.18026649946E+02  0.18026649946E+02  0.00000000000E+00 0.  1.
         21   -1    0    0  501  502 -0.00000000000E+00 -0.00000000000E+00 -0.21669306342E+03  0.21669306342E+03  0.00000000000E+00 0.  1.
         25    1    1    2    0    0  0.00000000000E+00  0.00000000000E+00 -0.19866641347E+03  0.23471971336E+03  0.12500000000E+03 0.  0.
<mgrwt>
<rscale>  2 0.12500000E+03</rscale>
<asrwt>0</asrwt>
<pdfrwt beam="1">  1       21 0.27733309E-02 0.12500000E+03</pdfrwt>
<pdfrwt beam="2">  1       21 0.33337393E-01 0.12500000E+03</pdfrwt>
<totfact> 0.61347399E+06</totfact>
</mgrwt>
</event>
<event>
 3    0  0.1643478E+001  0.1250000E+03  0.7546771E-02  0.1235069E+00
         21   -1    0    0  502  501  0.00000000000E+00  0.00000000000E+00  0.17605217311E+03  0.17605217311E+03  0.00000000000E+00 0. -1.
         21   -1    0    0  501  502 -0.00000000000E+00 -0.00000000000E+00 -0.22188024896E+02  0.22188024896E+02  0.00000000000E+00 0. -1.
         25    1    1    2    0    0  0.00000000000E+00  0.00000000000E+00  0.15386414822E+03  0.19824019801E+03  0.12500000000E+03 0.  0.
<mgrwt>
<rscale>  2 0.12500000E+03</rscale>
<asrwt>0</asrwt>
<pdfrwt beam="1">  1       21 0.27084949E-01 0.12500000E+03</pdfrwt>
<pdfrwt beam="2">  1       21 0.34135424E-02 0.12500000E+03</pdfrwt>
<totfact> 0.65118126E+06</totfact>
</mgrwt>
</event>
<event>
 3    0  0.1591748E+001  0.1250000E+03  0.7546771E-02  0.1235069E+00
         21   -1    0    0  502  501  0.00000000000E+00  0.00000000000E+00  0.15174017082E+02  0.15174017082E+02  0.00000000000E+00 0. -1.
         21   -1    0    0  501  502 -0.00000000000E+00 -0.00000000000E+00 -0.25743018338E+03  0.25743018338E+03  0.00000000000E+00 0. -1.
         25    1    1    2    0    0  0.00000000000E+00  0.00000000000E+00 -0.24225616629E+03  0.27260420046E+03  0.12500000000E+03 0.  0.
<mgrwt>
<rscale>  2 0.12500000E+03</rscale>
<asrwt>0</asrwt>
<pdfrwt beam="1">  1       21 0.23344645E-02 0.12500000E+03</pdfrwt>
<pdfrwt beam="2">  1       21 0.39604638E-01 0.12500000E+03</pdfrwt>
<totfact> 0.57812589E+06</totfact>
</mgrwt>
</event>
<event>
 3    0  0.1694192E+001  0.1250000E+03  0.7546771E-02  0.1235069E+00
         21   -1    0    0  502  501  0.00000000000E+00  0.00000000000E+00  0.68128221311E+02  0.68128221311E+02  0.00000000000E+00 0. -1.
         21   -1    0    0  501  502 -0.00000000000E+00 -0.00000000000E+00 -0.57336738357E+02  0.57336738357E+02  0.00000000000E+00 0. -1.
         25    1    1    2    0    0  0.00000000000E+00  0.00000000000E+00  0.10791482954E+02  0.12546495967E+03  0.12500000000E+03 0.  0.
<mgrwt>
<rscale>  2 0.12500000E+03</rscale>
<asrwt>0</asrwt>
<pdfrwt beam="1">  1       21 0.10481265E-01 0.12500000E+03</pdfrwt>
<pdfrwt beam="2">  1       21 0.88210367E-02 0.12500000E+03</pdfrwt>
<totfact> 0.73980300E+06</totfact>
</mgrwt>
</event>
<event>
 3    0  0.1579293E+001  0.1250000E+03  0.7546771E-02  0.1235069E+00
         21   -1    0    0  502  501  0.00000000000E+00  0.00000000000E+00  0.26258765079E+03  0.26258765079E+03  0.00000000000E+00 0. -1.
         21   -1    0    0  501  502 -0.00000000000E+00 -0.00000000000E+00 -0.14875985174E+02  0.14875985174E+02  0.00000000000E+00 0. -1.
         25    1    1    2    0    0  0.00000000000E+00  0.00000000000E+00  0.24771166561E+03  0.27746363596E+03  0.12500000000E+03 0.  0.
<mgrwt>
<rscale>  2 0.12500000E+03</rscale>
<asrwt>0</asrwt>
<pdfrwt beam="1">  1       21 0.40398097E-01 0.12500000E+03</pdfrwt>
<pdfrwt beam="2">  1       21 0.22886133E-02 0.12500000E+03</pdfrwt>
<totfact> 0.57382627E+06</totfact>
</mgrwt>
</event>
<event>
 3    0  0.1694320E+001  0.1250000E+03  0.7546771E-02  0.1235069E+00
         21   -1    0    0  502  501  0.00000000000E+00  0.00000000000E+00  0.54139086463E+02  0.54139086463E+02  0.00000000000E+00 0. -1.
         21   -1    0    0  501  502 -0.00000000000E+00 -0.00000000000E+00 -0.72152122528E+02  0.72152122528E+02  0.00000000000E+00 0. -1.
         25    1    1    2    0    0  0.00000000000E+00  0.00000000000E+00 -0.18013036065E+02  0.12629120899E+03  0.12500000000E+03 0.  0.
<mgrwt>
<rscale>  2 0.12500000E+03</rscale>
<asrwt>0</asrwt>
<pdfrwt beam="1">  1       21 0.83290902E-02 0.12500000E+03</pdfrwt>
<pdfrwt beam="2">  1       21 0.11100327E-01 0.12500000E+03</pdfrwt>
<totfact> 0.73865985E+06</totfact>
</mgrwt>
</event>
<event>
 3    0  0.1368989E+001  0.1250000E+03  0.7546771E-02  0.1235069E+00
         21   -1    0    0  502  501  0.00000000000E+00  0.00000000000E+00  0.25521148841E+01  0.25521148841E+01  0.00000000000E+00 0. -1.
         21   -1    0    0  501  502 -0.00000000000E+00 -0.00000000000E+00 -0.15305933226E+04  0.15305933226E+04  0.00000000000E+00 0. -1.
         25    1    1    2    0    0  0.00000000000E+00  0.00000000000E+00 -0.15280412077E+04  0.15331454374E+04  0.12500000000E+03 0.  0.
<mgrwt>
<rscale>  2 0.12500000E+03</rscale>
<asrwt>0</asrwt>
<pdfrwt beam="1">  1       21 0.39263298E-03 0.12500000E+03</pdfrwt>
<pdfrwt beam="2">  1       21 0.23547594E+00 0.12500000E+03</pdfrwt>
<totfact> 0.13508375E+06</totfact>
</mgrwt>
</event>
<event>
 3    0  0.1600127E+001  0.1250000E+03  0.7546771E-02  0.1235069E+00
         21   -1    0    0  502  501  0.00000000000E+00  0.00000000000E+00  0.15567017482E+02  0.15567017482E+02  0.00000000000E+00 0.  1.
         21   -1    0    0  501  502 -0.00000000000E+00 -0.00000000000E+00 -0.25093117578E+03  0.25093117578E+03  0.00000000000E+00 0.  1.
         25    1    1    2    0    0  0.00000000000E+00  0.00000000000E+00 -0.23536415830E+03  0.26649819326E+03  0.12500000000E+03 0.  0.
<mgrwt>
<rscale>  2 0.12500000E+03</rscale>
<asrwt>0</asrwt>
<pdfrwt beam="1">  1       21 0.23949260E-02 0.12500000E+03</pdfrwt>
<pdfrwt beam="2">  1       21 0.38604792E-01 0.12500000E+03</pdfrwt>
<totfact> 0.58358752E+06</totfact>
</mgrwt>
</event>
<event>
 3    0  0.1645271E+001  0.1250000E+03  0.7546771E-02  0.1235069E+00
         21   -1    0    0  502  501  0.00000000000E+00  0.00000000000E+00  0.21113640998E+03  0.21113640998E+03  0.00000000000E+00 0.  1.
         21   -1    0    0  501  502 -0.00000000000E+00 -0.00000000000E+00 -0.18501072366E+02  0.18501072366E+02  0.00000000000E+00 0.  1.
         25    1    1    2    0    0  0.00000000000E+00  0.00000000000E+00  0.19263533761E+03  0.22963748234E+03  0.12500000000E+03 0.  0.
<mgrwt>
<rscale>  2 0.12500000E+03</rscale>
<asrwt>0</asrwt>
<pdfrwt beam="1">  1       21 0.32482523E-01 0.12500000E+03</pdfrwt>
<pdfrwt beam="2">  1       21 0.28463190E-02 0.12500000E+03</pdfrwt>
<totfact> 0.61850076E+06</totfact>
</mgrwt>
</event>
<event>
 3    0  0.1466548E+001  0.1250000E+03  0.7546771E-02  0.1235069E+00
         21   -1    0    0  502  501  0.00000000000E+00  0.00000000000E+00  0.83307567003E+01  0.83307567003E+01  0.00000000000E+00 0.  1.
         21   -1    0    0  501  502 -0.00000000000E+00 -0.00000000000E+00 -0.46889498044E+03  0.46889498044E+03  0.00000000000E+00 0.  1.
         25    1    1    2    0    0  0.00000000000E+00  0.00000000000E+00 -0.46056422374E+03  0.47722573714E+03  0.12500000000E+03 0.  0.
<mgrwt>
<rscale>  2 0.12500000E+03</rscale>
<asrwt>0</asrwt>
<pdfrwt beam="1">  1       21 0.12816550E-02 0.12500000E+03</pdfrwt>
<pdfrwt beam="2">  1       21 0.72137683E-01 0.12500000E+03</pdfrwt>
<totfact> 0.43306727E+06</totfact>
</mgrwt>
</event>
<event>
 3    0  0.1530457E+001  0.1250000E+03  0.7546771E-02  0.1235069E+00
         21   -1    0    0  502  501  0.00000000000E+00  0.00000000000E+00  0.40906382544E+03  0.40906382544E+03  0.00000000000E+00 0.  1.
         21   -1    0    0  501  502 -0.00000000000E+00 -0.00000000000E+00 -0.95492433139E+01  0.95492433139E+01  0.00000000000E+00 0.  1.
         25    1    1    2    0    0  0.00000000000E+00  0.00000000000E+00  0.39951458212E+03  0.41861306875E+03  0.12500000000E+03 0.  0.
<mgrwt>
<rscale>  2 0.12500000E+03</rscale>
<asrwt>0</asrwt>
<pdfrwt beam="1">  1       21 0.62932883E-01 0.12500000E+03</pdfrwt>
<pdfrwt beam="2">  1       21 0.14691147E-02 0.12500000E+03</pdfrwt>
<totfact> 0.46830789E+06</totfact>
</mgrwt>
</event>
<event>
 3    0  0.1681579E+001  0.1250000E+03  0.7546771E-02  0.1235069E+00
         21   -1    0    0  502  501  0.00000000000E+00  0.00000000000E+00  0.28713334554E+02  0.28713334554E+02  0.00000000000E+00 0.  1.
         21   -1    0    0  501  502 -0.00000000000E+00 -0.00000000000E+00 -0.13604306364E+03  0.13604306364E+03  0.00000000000E+00 0.  1.
         25    1    1    2    0    0  0.00000000000E+00  0.00000000000E+00 -0.10732972908E+03  0.16475639819E+03  0.12500000000E+03 0.  0.
<mgrwt>
<rscale>  2 0.12500000E+03</rscale>
<asrwt>0</asrwt>
<pdfrwt beam="1">  1       21 0.44174361E-02 0.12500000E+03</pdfrwt>
<pdfrwt beam="2">  1       21 0.20929702E-01 0.12500000E+03</pdfrwt>
<totfact> 0.68942936E+06</totfact>
</mgrwt>
</event>
<event>
 3    0  0.1674519E+001  0.1250000E+03  0.7546771E-02  0.1235069E+00
         21   -1    0    0  502  501  0.00000000000E+00  0.00000000000E+00  0.33998787600E+02  0.33998787600E+02  0.00000000000E+00 0. -1.
         21   -1    0    0  501  502 -0.00000000000E+00 -0.00000000000E+00 -0.11489380286E+03  0.11489380286E+03  0.00000000000E+00 0. -1.
         25    1    1    2    0    0  0.00000000000E+00  0.00000000000E+00 -0.80895015260E+02  0.14889259046E+03  0.12500000000E+03 0.  0.
<mgrwt>
<rscale>  2 0.12500000E+03</rscale>
<asrwt>0</asrwt>
<pdfrwt beam="1">  1       21 0.52305827E-02 0.12500000E+03</pdfrwt>
<pdfrwt beam="2">  1       21 0.17675970E-01 0.12500000E+03</pdfrwt>
<totfact> 0.70898590E+06</totfact>
</mgrwt>
</event>
<event>
 3    0  0.1603744E+001  0.1250000E+03  0.7546771E-02  0.1235069E+00
         21   -1    0    0  502  501  0.00000000000E+00  0.00000000000E+00  0.23912746086E+03  0.23912746086E+03  0.00000000000E+00 0. -1.
         21   -1    0    0  501  502 -0.00000000000E+00 -0.00000000000E+00 -0.16335430427E+02  0.16335430427E+02  0.00000000000E+00 0. -1.
         25    1    1    2    0    0  0.00000000000E+00  0.00000000000E+00  0.22279203043E+03  0.25546289128E+03  0.12500000000E+03 0.  0.
<mgrwt>
<rscale>  2 0.12500000E+03</rscale>
<asrwt>0</asrwt>
<pdfrwt beam="1">  1       21 0.36788838E-01 0.12500000E+03</pdfrwt>
<pdfrwt beam="2">  1       21 0.25131433E-02 0.12500000E+03</pdfrwt>
<totfact> 0.59367646E+06</totfact>
</mgrwt>
</event>
<event>
 3    0  0.1700173E+001  0.1250000E+03  0.7546771E-02  0.1235069E+00
         21   -1    0    0  502  501  0.00000000000E+00  0.00000000000E+00  0.37387253200E+02  0.37387253200E+02  0.00000000000E+00 0.  1.
         21   -1    0    0  501  502 -0.00000000000E+00 -0.00000000000E+00 -0.10448079668E+03  0.10448079668E+03  0.00000000000E+00 0.  1.
         25    1    1    2    0    0  0.00000000000E+00  0.00000000000E+00 -0.67093543480E+02  0.14186804988E+03  0.12500000000E+03 0.  0.
<mgrwt>
<rscale>  2 0.12500000E+03</rscale>
<asrwt>0</asrwt>
<pdfrwt beam="1">  1       21 0.57518851E-02 0.12500000E+03</pdfrwt>
<pdfrwt beam="2">  1       21 0.16073969E-01 0.12500000E+03</pdfrwt>
<totfact> 0.71796367E+06</totfact>
</mgrwt>
</event>
<event>
 3    0  0.1582284E+001  0.1250000E+03  0.7546771E-02  0.1235069E+00
         21   -1    0    0  502  501  0.00000000000E+00  0.00000000000E+00  0.23621150837E+03  0.23621150837E+03  0.00000000000E+00 0. -1.
         21   -1    0    0  501  502 -0.00000000000E+00 -0.00000000000E+00 -0.16537085881E+02  0.16537085881E+02  0.00000000000E+00 0. -1.
         25    1    1    2    0    0  0.00000000000E+00  0.00000000000E+00  0.21967442249E+03  0.25274859425E+03  0.12500000000E+03 0.  0.
<mgrwt>
<rscale>  2 0.12500000E+03</rscale>
<asrwt>0</asrwt>
<pdfrwt beam="1">  1       21 0.36340230E-01 0.12500000E+03</pdfrwt>
<pdfrwt beam="2">  1       21 0.25441672E-02 0.12500000E+03</pdfrwt>
<totfact> 0.59620375E+06</totfact>
</mgrwt>
</event>
<event>
 3    0  0.1485997E+001  0.1250000E+03  0.7546771E-02  0.1235069E+00
         21   -1    0    0  502  501  0.00000000000E+00  0.00000000000E+00  0.51671657307E+03  0.51671657307E+03  0.00000000000E+00 0.  1.
         21   -1    0    0  501  502 -0.00000000000E+00 -0.00000000000E+00 -0.75597536513E+01  0.75597536513E+01  0.00000000000E+00 0.  1.
         25    1    1    2    0    0  0.00000000000E+00  0.00000000000E+00  0.50915681942E+03  0.52427632673E+03  0.12500000000E+03 0.  0.
<mgrwt>
<rscale>  2 0.12500000E+03</rscale>
<asrwt>0</asrwt>
<pdfrwt beam="1">  1       21 0.79494830E-01 0.12500000E+03</pdfrwt>
<pdfrwt beam="2">  1       21 0.11630394E-02 0.12500000E+03</pdfrwt>
<totfact> 0.40757398E+06</totfact>
</mgrwt>
</event>
<event>
 3    0  0.1637293E+001  0.1250000E+03  0.7546771E-02  0.1235069E+00
         21   -1    0    0  502  501  0.00000000000E+00  0.00000000000E+00  0.19592007558E+03  0.19592007558E+03  0.00000000000E+00 0.  1.
         21   -1    0    0  501  502 -0.00000000000E+00 -0.00000000000E+00 -0.19937977201E+02  0.19937977201E+02  0.00000000000E+00 0.  1.
         25    1    1    2    0    0  0.00000000000E+00  0.00000000000E+00  0.17598209838E+03  0.21585805278E+03  0.12500000000E+03 0.  0.
<mgrwt>
<rscale>  2 0.12500000E+03</rscale>
<asrwt>0</asrwt>
<pdfrwt beam="1">  1       21 0.30141549E-01 0.12500000E+03</pdfrwt>
<pdfrwt beam="2">  1       21 0.30673812E-02 0.12500000E+03</pdfrwt>
<totfact> 0.63248424E+06</totfact>
</mgrwt>
</event>
<event>
 3    0  0.1678717E+001  0.1250000E+03  0.7546771E-02  0.1235069E+00
         21   -1    0    0  502  501  0.00000000000E+00  0.00000000000E+00  0.37905122495E+02  0.37905122495E+02  0.00000000000E+00 0. -1.
         21   -1    0    0  501  502 -0.00000000000E+00 -0.00000000000E+00 -0.10305335382E+03  0.10305335382E+03  0.00000000000E+00 0. -1.
         25    1    1    2    0    0  0.00000000000E+00  0.00000000000E+00 -0.65148231322E+02  0.14095847631E+03  0.12500000000E+03 0.  0.
<mgrwt>
<rscale>  2 0.12500000E+03</rscale>
<asrwt>0</asrwt>
<pdfrwt beam="1">  1       21 0.58315574E-02 0.12500000E+03</pdfrwt>
<pdfrwt beam="2">  1       21 0.15854362E-01 0.12500000E+03</pdfrwt>
<totfact> 0.71914427E+06</totfact>
</mgrwt>
</event>
<event>
 3    0  0.1368989E+001  0.1250000E+03  0.7546771E-02  0.1235069E+00
         21   -1    0    0  502  501  0.00000000000E+00  0.00000000000E+00  0.58275050346E+01  0.58275050346E+01  0.00000000000E+00 0. -1.
         21   -1    0    0  501  502 -0.00000000000E+00 -0.00000000000E+00 -0.67031259121E+03  0.67031259121E+03  0.00000000000E+00 0. -1.
         25    1    1    2    0    0  0.00000000000E+00  0.00000000000E+00 -0.66448508617E+03  0.67614009624E+03  0.12500000000E+03 0.  0.
<mgrwt>
<rscale>  2 0.12500000E+03</rscale>
<asrwt>0</asrwt>
<pdfrwt beam="1">  1       21 0.89653916E-03 0.12500000E+03</pdfrwt>
<pdfrwt beam="2">  1       21 0.10312502E+00 0.12500000E+03</pdfrwt>
<totfact> 0.33850473E+06</totfact>
</mgrwt>
</event>
<event>
 3    0  0.1430499E+001  0.1250000E+03  0.7546771E-02  0.1235069E+00
         21   -1    0    0  502  501  0.00000000000E+00  0.00000000000E+00  0.56578661865E+03  0.56578661865E+03  0.00000000000E+00 0. -1.
         21   -1    0    0  501  502 -0.00000000000E+00 -0.00000000000E+00 -0.69041046063E+01  0.69041046063E+01  0.00000000000E+00 0. -1.
         25    1    1    2    0    0  0.00000000000E+00  0.00000000000E+00  0.55888251404E+03  0.57269072325E+03  0.12500000000E+03 0.  0.
<mgrwt>
<rscale>  2 0.12500000E+03</rscale>
<asrwt>0</asrwt>
<pdfrwt beam="1">  1       21 0.87044059E-01 0.12500000E+03</pdfrwt>
<pdfrwt beam="2">  1       21 0.10621704E-02 0.12500000E+03</pdfrwt>
<totfact> 0.38357529E+06</totfact>
</mgrwt>
</event>
<event>
 3    0  0.1717418E+001  0.1250000E+03  0.7546771E-02  0.1235069E+00
         21   -1    0    0  502  501  0.00000000000E+00  0.00000000000E+00  0.70232703315E+02  0.70232703315E+02  0.00000000000E+00 0.  1.
         21   -1    0    0  501  502 -0.00000000000E+00 -0.00000000000E+00 -0.55618676423E+02  0.55618676423E+02  0.00000000000E+00 0.  1.
         25    1    1    2    0    0  0.00000000000E+00  0.00000000000E+00  0.14614026892E+02  0.12585137974E+03  0.12500000000E+03 0.  0.
<mgrwt>
<rscale>  2 0.12500000E+03</rscale>
<asrwt>0</asrwt>
<pdfrwt beam="1">  1       21 0.10805031E-01 0.12500000E+03</pdfrwt>
<pdfrwt beam="2">  1       21 0.85567195E-02 0.12500000E+03</pdfrwt>
<totfact> 0.73926561E+06</totfact>
</mgrwt>
</event>
<event>
 3    0  0.1368989E+001  0.1250000E+03  0.7546771E-02  0.1235069E+00
         21   -1    0    0  502  501  0.00000000000E+00  0.00000000000E+00  0.50945969869E+01  0.50945969869E+01  0.00000000000E+00 0. -1.
         21   -1    0    0  501  502 -0.00000000000E+00 -0.00000000000E+00 -0.76674367179E+03  0.76674367179E+03  0.00000000000E+00 0. -1.
         25    1    1    2    0    0  0.00000000000E+00  0.00000000000E+00 -0.76164907480E+03  0.77183826878E+03  0.12500000000E+03 0.  0.
<mgrwt>
<rscale>  2 0.12500000E+03</rscale>
<asrwt>0</asrwt>
<pdfrwt beam="1">  1       21 0.78378459E-03 0.12500000E+03</pdfrwt>
<pdfrwt beam="2">  1       21 0.11796050E+00 0.12500000E+03</pdfrwt>
<totfact> 0.30315235E+06</totfact>
</mgrwt>
</event>
<event>
 3    0  0.1631651E+001  0.1250000E+03  0.7546771E-02  0.1235069E+00
         21   -1    0    0  502  501  0.00000000000E+00  0.00000000000E+00  0.17321850966E+02  0.17321850966E+02  0.00000000000E+00 0.  1.
         21   -1    0    0  501  502 -0.00000000000E+00 -0.00000000000E+00 -0.22550996471E+03  0.22550996471E+03  0.00000000000E+00 0.  1.
         25    1    1    2    0    0  0.00000000000E+00  0.00000000000E+00 -0.20818811375E+03  0.24283181568E+03  0.12500000000E+03 0.  0.
<mgrwt>
<rscale>  2 0.12500000E+03</rscale>
<asrwt>0</asrwt>
<pdfrwt beam="1">  1       21 0.26649003E-02 0.12500000E+03</pdfrwt>
<pdfrwt beam="2">  1       21 0.34693838E-01 0.12500000E+03</pdfrwt>
<totfact> 0.60559707E+06</totfact>
</mgrwt>
</event>
<event>
 3    0  0.1402789E+001  0.1250000E+03  0.7546771E-02  0.1235069E+00
         21   -1    0    0  502  501  0.00000000000E+00  0.00000000000E+00  0.51476579273E+03  0.51476579273E+03  0.00000000000E+00 0. -1.
         21   -1    0    0  501  502 -0.00000000000E+00 -0.00000000000E+00 -0.75884024447E+01  0.75884024447E+01  0.00000000000E+00 0. -1.
         25    1    1    2    0    0  0.00000000000E+00  0.00000000000E+00  0.50717739029E+03  0.52235419518E+03  0.12500000000E+03 0.  0.
<mgrwt>
<rscale>  2 0.12500000E+03</rscale>
<asrwt>0</asrwt>
<pdfrwt beam="1">  1       21 0.79194710E-01 0.12500000E+03</pdfrwt>
<pdfrwt beam="2">  1       21 0.11674469E-02 0.12500000E+03</pdfrwt>
<totfact> 0.40857143E+06</totfact>
</mgrwt>
</event>
<event>
 3    0  0.1484174E+001  0.1250000E+03  0.7546771E-02  0.1235069E+00
         21   -1    0    0  502  501  0.00000000000E+00  0.00000000000E+00  0.92649189622E+01  0.92649189622E+01  0.00000000000E+00 0. -1.
         21   -1    0    0  501  502 -0.00000000000E+00 -0.00000000000E+00 -0.42161728731E+03  0.42161728731E+03  0.00000000000E+00 0. -1.
         25    1    1    2    0    0  0.00000000000E+00  0.00000000000E+00 -0.41235236835E+03  0.43088220627E+03  0.12500000000E+03 0.  0.
<mgrwt>
<rscale>  2 0.12500000E+03</rscale>
<asrwt>0</asrwt>
<pdfrwt beam="1">  1       21 0.14253721E-02 0.12500000E+03</pdfrwt>
<pdfrwt beam="2">  1       21 0.64864203E-01 0.12500000E+03</pdfrwt>
<totfact> 0.46058223E+06</totfact>
</mgrwt>
</event>
<event>
 3    0  0.1368989E+001  0.1250000E+03  0.7546771E-02  0.1235069E+00
         21   -1    0    0  502  501  0.00000000000E+00  0.00000000000E+00  0.81929197104E+03  0.81929197104E+03  0.00000000000E+00 0.  1.
         21   -1    0    0  501  502 -0.00000000000E+00 -0.00000000000E+00 -0.47678363002E+01  0.47678363002E+01  0.00000000000E+00 0.  1.
         25    1    1    2    0    0  0.00000000000E+00  0.00000000000E+00  0.81452413474E+03  0.82405980734E+03  0.12500000000E+03 0.  0.
<mgrwt>
<rscale>  2 0.12500000E+03</rscale>
<asrwt>0</asrwt>
<pdfrwt beam="1">  1       21 0.12604481E+00 0.12500000E+03</pdfrwt>
<pdfrwt beam="2">  1       21 0.73351393E-03 0.12500000E+03</pdfrwt>
<totfact> 0.28581047E+06</totfact>
</mgrwt>
</event>
<event>
 3    0  0.1632374E+001  0.1250000E+03  0.7546771E-02  0.1235069E+00
         21   -1    0    0  502  501  0.00000000000E+00  0.00000000000E+00  0.19707129905E+02  0.19707129905E+02  0.00000000000E+00 0. -1.
         21   -1    0    0  501  502 -0.00000000000E+00 -0.00000000000E+00 -0.19821506322E+03  0.19821506322E+03  0.00000000000E+00 0. -1.
         25    1    1    2    0    0  0.00000000000E+00  0.00000000000E+00 -0.17850793332E+03  0.21792219313E+03  0.12500000000E+03 0.  0.
<mgrwt>
<rscale>  2 0.12500000E+03</rscale>
<asrwt>0</asrwt>
<pdfrwt beam="1">  1       21 0.30318660E-02 0.12500000E+03</pdfrwt>
<pdfrwt beam="2">  1       21 0.30494626E-01 0.12500000E+03</pdfrwt>
<totfact> 0.63035548E+06</totfact>
</mgrwt>
</event>
<event>
 3    0  0.1678007E+001  0.1250000E+03  0.7546771E-02  0.1235069E+00
         21   -1    0    0  502  501  0.00000000000E+00  0.00000000000E+00  0.33154756863E+02  0.33154756863E+02  0.00000000000E+00 0. -1.
         21   -1    0    0  501  502 -0.00000000000E+00 -0.00000000000E+00 -0.11781868937E+03  0.11781868937E+03  0.00000000000E+00 0. -1.
         25    1    1    2    0    0  0.00000000000E+00  0.00000000000E+00 -0.84663932509E+02  0.15097344623E+03  0.12500000000E+03 0.  0.
<mgrwt>
<rscale>  2 0.12500000E+03</rscale>
<asrwt>0</asrwt>
<pdfrwt beam="1">  1       21 0.51007318E-02 0.12500000E+03</pdfrwt>
<pdfrwt beam="2">  1       21 0.18125952E-01 0.12500000E+03</pdfrwt>
<totfact> 0.70637132E+06</totfact>
</mgrwt>
</event>
<event>
 3    0  0.1494558E+001  0.1250000E+03  0.7546771E-02  0.1235069E+00
         21   -1    0    0  502  501  0.00000000000E+00  0.00000000000E+00  0.42700469187E+03  0.42700469187E+03  0.00000000000E+00 0.  1.
         21   -1    0    0  501  502 -0.00000000000E+00 -0.00000000000E+00 -0.91480259452E+01  0.91480259452E+01  0.00000000000E+00 0.  1.
         25    1    1    2    0    0  0.00000000000E+00  0.00000000000E+00  0.41785666593E+03  0.43615271782E+03  0.12500000000E+03 0.  0.
<mgrwt>
<rscale>  2 0.12500000E+03</rscale>
<asrwt>0</asrwt>
<pdfrwt beam="1">  1       21 0.65693014E-01 0.12500000E+03</pdfrwt>
<pdfrwt beam="2">  1       21 0.14073889E-02 0.12500000E+03</pdfrwt>
<totfact> 0.45732321E+06</totfact>
</mgrwt>
</event>
<event>
 3    0  0.1368989E+001  0.1250000E+03  0.7546771E-02  0.1235069E+00
         21   -1    0    0  502  501  0.00000000000E+00  0.00000000000E+00  0.53422094138E+01  0.53422094138E+01  0.00000000000E+00 0. -1.
         21   -1    0    0  501  502 -0.00000000000E+00 -0.00000000000E+00 -0.73120495612E+03  0.73120495612E+03  0.00000000000E+00 0. -1.
         25    1    1    2    0    0  0.00000000000E+00  0.00000000000E+00 -0.72586274671E+03  0.73654716553E+03  0.12500000000E+03 0.  0.
<mgrwt>
<rscale>  2 0.12500000E+03</rscale>
<asrwt>0</asrwt>
<pdfrwt beam="1">  1       21 0.82187845E-03 0.12500000E+03</pdfrwt>
<pdfrwt beam="2">  1       21 0.11249306E+00 0.12500000E+03</pdfrwt>
<totfact> 0.31547774E+06</totfact>
</mgrwt>
</event>
<event>
 3    0  0.1584629E+001  0.1250000E+03  0.7546771E-02  0.1235069E+00
         21   -1    0    0  502  501  0.00000000000E+00  0.00000000000E+00  0.26025556775E+03  0.26025556775E+03  0.00000000000E+00 0. -1.
         21   -1    0    0  501  502 -0.00000000000E+00 -0.00000000000E+00 -0.15009285042E+02  0.15009285042E+02  0.00000000000E+00 0. -1.
         25    1    1    2    0    0  0.00000000000E+00  0.00000000000E+00  0.24524628270E+03  0.27526485279E+03  0.12500000000E+03 0.  0.
<mgrwt>
<rscale>  2 0.12500000E+03</rscale>
<asrwt>0</asrwt>
<pdfrwt beam="1">  1       21 0.40039315E-01 0.12500000E+03</pdfrwt>
<pdfrwt beam="2">  1       21 0.23091210E-02 0.12500000E+03</pdfrwt>
<totfact> 0.57576513E+06</totfact>
</mgrwt>
</event>
<event>
 3    0  0.1419047E+001  0.1250000E+03  0.7546771E-02  0.1235069E+00
         21   -1    0    0  502  501  0.00000000000E+00  0.00000000000E+00  0.55388205120E+03  0.55388205120E+03  0.00000000000E+00 0.  1.
         21   -1    0    0  501  502 -0.00000000000E+00 -0.00000000000E+00 -0.70524942838E+01  0.70524942838E+01  0.00000000000E+00 0.  1.
         25    1    1    2    0    0  0.00000000000E+00  0.00000000000E+00  0.54682955691E+03  0.56093454548E+03  0.12500000000E+03 0.  0.
<mgrwt>
<rscale>  2 0.12500000E+03</rscale>
<asrwt>0</asrwt>
<pdfrwt beam="1">  1       21 0.85212589E-01 0.12500000E+03</pdfrwt>
<pdfrwt beam="2">  1       21 0.10849996E-02 0.12500000E+03</pdfrwt>
<totfact> 0.38921106E+06</totfact>
</mgrwt>
</event>
<event>
 3    0  0.1644056E+001  0.1250000E+03  0.7546771E-02  0.1235069E+00
         21   -1    0    0  502  501  0.00000000000E+00  0.00000000000E+00  0.22962083030E+02  0.22962083030E+02  0.00000000000E+00 0. -1.
         21   -1    0    0  501  502 -0.00000000000E+00 -0.00000000000E+00 -0.17011740594E+03  0.17011740594E+03  0.00000000000E+00 0. -1.
         25    1    1    2    0    0  0.00000000000E+00  0.00000000000E+00 -0.14715532291E+03  0.19307948897E+03  0.12500000000E+03 0.  0.
<mgrwt>
<rscale>  2 0.12500000E+03</rscale>
<asrwt>0</asrwt>
<pdfrwt beam="1">  1       21 0.35326281E-02 0.12500000E+03</pdfrwt>
<pdfrwt beam="2">  1       21 0.26171909E-01 0.12500000E+03</pdfrwt>
<totfact> 0.65681832E+06</totfact>
</mgrwt>
</event>
<event>
 3    0  0.1693668E+001  0.1250000E+03  0.7546771E-02  0.1235069E+00
         21   -1    0    0  502  501  0.00000000000E+00  0.00000000000E+00  0.56115768907E+02  0.56115768907E+02  0.00000000000E+00 0. -1.
         21   -1    0    0  501  502 -0.00000000000E+00 -0.00000000000E+00 -0.69610558246E+02  0.69610558246E+02  0.00000000000E+00 0. -1.
         25    1    1    2    0    0  0.00000000000E+00  0.00000000000E+00 -0.13494789340E+02  0.12572632715E+03  0.12500000000E+03 0.  0.
<mgrwt>
<rscale>  2 0.12500000E+03</rscale>
<asrwt>0</asrwt>
<pdfrwt beam="1">  1       21 0.86331953E-02 0.12500000E+03</pdfrwt>
<pdfrwt beam="2">  1       21 0.10709317E-01 0.12500000E+03</pdfrwt>
<totfact> 0.73943883E+06</totfact>
</mgrwt>
</event>
<event>
 3    0  0.1701727E+001  0.1250000E+03  0.7546771E-02  0.1235069E+00
         21   -1    0    0  502  501  0.00000000000E+00  0.00000000000E+00  0.36536443110E+02  0.36536443110E+02  0.00000000000E+00 0.  1.
         21   -1    0    0  501  502 -0.00000000000E+00 -0.00000000000E+00 -0.10691380078E+03  0.10691380078E+03  0.00000000000E+00 0.  1.
         25    1    1    2    0    0  0.00000000000E+00  0.00000000000E+00 -0.70377357675E+02  0.14345024389E+03  0.12500000000E+03 0.  0.
<mgrwt>
<rscale>  2 0.12500000E+03</rscale>
<asrwt>0</asrwt>
<pdfrwt beam="1">  1       21 0.56209913E-02 0.12500000E+03</pdfrwt>
<pdfrwt beam="2">  1       21 0.16448277E-01 0.12500000E+03</pdfrwt>
<totfact> 0.71592024E+06</totfact>
</mgrwt>
</event>
<event>
 3    0  0.1695016E+001  0.1250000E+03  0.7546771E-02  0.1235069E+00
         21   -1    0    0  502  501  0.00000000000E+00  0.00000000000E+00  0.61805573318E+02  0.61805573318E+02  0.00000000000E+00 0. -1.
         21   -1    0    0  501  502 -0.00000000000E+00 -0.00000000000E+00 -0.63202229027E+02  0.63202229027E+02  0.00000000000E+00 0. -1.
         25    1    1    2    0    0  0.00000000000E+00  0.00000000000E+00 -0.13966557094E+01  0.12500780235E+03  0.12500000000E+03 0.  0.
<mgrwt>
<rscale>  2 0.12500000E+03</rscale>
<asrwt>0</asrwt>
<pdfrwt beam="1">  1       21 0.95085497E-02 0.12500000E+03</pdfrwt>
<pdfrwt beam="2">  1       21 0.97234198E-02 0.12500000E+03</pdfrwt>
<totfact> 0.74042528E+06</totfact>
</mgrwt>
</event>
<event>
 3    0  0.1368989E+001  0.1250000E+03  0.7546771E-02  0.1235069E+00
         21   -1    0    0  502  501  0.00000000000E+00  0.00000000000E+00  0.11591766087E+04  0.11591766087E+04  0.00000000000E+00 0. -1.
         21   -1    0    0  501  502 -0.00000000000E+00 -0.00000000000E+00 -0.33698488829E+01  0.33698488829E+01  0.00000000000E+00 0. -1.
         25    1    1    2    0    0  0.00000000000E+00  0.00000000000E+00  0.11558067598E+04  0.11625464576E+04  0.12500000000E+03 0.  0.
<mgrwt>
<rscale>  2 0.12500000E+03</rscale>
<asrwt>0</asrwt>
<pdfrwt beam="1">  1       21 0.17833454E+00 0.12500000E+03</pdfrwt>
<pdfrwt beam="2">  1       21 0.51843922E-03 0.12500000E+03</pdfrwt>
<totfact> 0.19906173E+06</totfact>
</mgrwt>
</event>
<event>
 3    0  0.1438623E+001  0.1250000E+03  0.7546771E-02  0.1235069E+00
         21   -1    0    0  502  501  0.00000000000E+00  0.00000000000E+00  0.68309549318E+01  0.68309549318E+01  0.00000000000E+00 0.  1.
         21   -1    0    0  501  502 -0.00000000000E+00 -0.00000000000E+00 -0.57184537726E+03  0.57184537726E+03  0.00000000000E+00 0.  1.
         25    1    1    2    0    0  0.00000000000E+00  0.00000000000E+00 -0.56501442233E+03  0.57867633219E+03  0.12500000000E+03 0.  0.
<mgrwt>
<rscale>  2 0.12500000E+03</rscale>
<asrwt>0</asrwt>
<pdfrwt beam="1">  1       21 0.10509161E-02 0.12500000E+03</pdfrwt>
<pdfrwt beam="2">  1       21 0.87976212E-01 0.12500000E+03</pdfrwt>
<totfact> 0.38075070E+06</totfact>
</mgrwt>
</event>
<event>
 3    0  0.1508817E+001  0.1250000E+03  0.7546771E-02  0.1235069E+00
         21   -1    0    0  502  501  0.00000000000E+00  0.00000000000E+00  0.34822945060E+03  0.34822945060E+03  0.00000000000E+00 0. -1.
         21   -1    0    0  501  502 -0.00000000000E+00 -0.00000000000E+00 -0.11217460193E+02  0.11217460193E+02  0.00000000000E+00 0. -1.
         25    1    1    2    0    0  0.00000000000E+00  0.00000000000E+00  0.33701199041E+03  0.35944691079E+03  0.12500000000E+03 0.  0.
<mgrwt>
<rscale>  2 0.12500000E+03</rscale>
<asrwt>0</asrwt>
<pdfrwt beam="1">  1       21 0.53573753E-01 0.12500000E+03</pdfrwt>
<pdfrwt beam="2">  1       21 0.17257634E-02 0.12500000E+03</pdfrwt>
<totfact> 0.50848233E+06</totfact>
</mgrwt>
</event>
<event>
 3    0  0.1648130E+001  0.1250000E+03  0.7546771E-02  0.1235069E+00
         21   -1    0    0  502  501  0.00000000000E+00  0.00000000000E+00  0.16827780514E+03  0.16827780514E+03  0.00000000000E+00 0. -1.
         21   -1    0    0  501  502 -0.00000000000E+00 -0.00000000000E+00 -0.23213102862E+02  0.23213102862E+02  0.00000000000E+00 0. -1.
         25    1    1    2    0    0  0.00000000000E+00  0.00000000000E+00  0.14506470227E+03  0.19149090800E+03  0.12500000000E+03 0.  0.
<mgrwt>
<rscale>  2 0.12500000E+03</rscale>
<asrwt>0</asrwt>
<pdfrwt beam="1">  1       21 0.25888892E-01 0.12500000E+03</pdfrwt>
<pdfrwt beam="2">  1       21 0.35712467E-02 0.12500000E+03</pdfrwt>
<totfact> 0.65857146E+06</totfact>
</mgrwt>
</event>
<event>
 3    0  0.1709077E+001  0.1250000E+03  0.7546771E-02  0.1235069E+00
         21   -1    0    0  502  501  0.00000000000E+00  0.00000000000E+00  0.42366803329E+02  0.42366803329E+02  0.00000000000E+00 0.  1.
         21   -1    0    0  501  502 -0.00000000000E+00 -0.00000000000E+00 -0.92200725404E+02  0.92200725404E+02  0.00000000000E+00 0.  1.
         25    1    1    2    0    0  0.00000000000E+00  0.00000000000E+00 -0.49833922075E+02  0.13456752873E+03  0.12500000000E+03 0.  0.
<mgrwt>
<rscale>  2 0.12500000E+03</rscale>
<asrwt>0</asrwt>
<pdfrwt beam="1">  1       21 0.65179698E-02 0.12500000E+03</pdfrwt>
<pdfrwt beam="2">  1       21 0.14184727E-01 0.12500000E+03</pdfrwt>
<totfact> 0.72753785E+06</totfact>
</mgrwt>
</event>
<event>
 3    0  0.1672685E+001  0.1250000E+03  0.7546771E-02  0.1235069E+00
         21   -1    0    0  502  501  0.00000000000E+00  0.00000000000E+00  0.10926191057E+03  0.10926191057E+03  0.00000000000E+00 0. -1.
         21   -1    0    0  501  502 -0.00000000000E+00 -0.00000000000E+00 -0.35751251095E+02  0.35751251095E+02  0.00000000000E+00 0. -1.
         25    1    1    2    0    0  0.00000000000E+00  0.00000000000E+00  0.73510659477E+02  0.14501316167E+03  0.12500000000E+03 0.  0.
<mgrwt>
<rscale>  2 0.12500000E+03</rscale>
<asrwt>0</asrwt>
<pdfrwt beam="1">  1       21 0.16809525E-01 0.12500000E+03</pdfrwt>
<pdfrwt beam="2">  1       21 0.55001925E-02 0.12500000E+03</pdfrwt>
<totfact> 0.71391414E+06</totfact>
</mgrwt>
</event>
<event>
 3    0  0.1650760E+001  0.1250000E+03  0.7546771E-02  0.1235069E+00
         21   -1    0    0  502  501  0.00000000000E+00  0.00000000000E+00  0.19496685949E+02  0.19496685949E+02  0.00000000000E+00 0.  1.
         21   -1    0    0  501  502 -0.00000000000E+00 -0.00000000000E+00 -0.20035456334E+03  0.20035456334E+03  0.00000000000E+00 0.  1.
         25    1    1    2    0    0  0.00000000000E+00  0.00000000000E+00 -0.18085787739E+03  0.21985124929E+03  0.12500000000E+03 0.  0.
<mgrwt>
<rscale>  2 0.12500000E+03</rscale>
<asrwt>0</asrwt>
<pdfrwt beam="1">  1       21 0.29994902E-02 0.12500000E+03</pdfrwt>
<pdfrwt beam="2">  1       21 0.30823778E-01 0.12500000E+03</pdfrwt>
<totfact> 0.62837743E+06</totfact>
</mgrwt>
</event>
<event>
 3    0  0.1719528E+001  0.1250000E+03  0.7546771E-02  0.1235069E+00
         21   -1    0    0  502  501  0.00000000000E+00  0.00000000000E+00  0.62435837060E+02  0.62435837060E+02  0.00000000000E+00 0.  1.
         21   -1    0    0  501  502 -0.00000000000E+00 -0.00000000000E+00 -0.62564228878E+02  0.62564228878E+02  0.00000000000E+00 0.  1.
         25    1    1    2    0    0  0.00000000000E+00  0.00000000000E+00 -0.12839181798E+00  0.12500006594E+03  0.12500000000E+03 0.  0.
<mgrwt>
<rscale>  2 0.12500000E+03</rscale>
<asrwt>0</asrwt>
<pdfrwt beam="1">  1       21 0.96055134E-02 0.12500000E+03</pdfrwt>
<pdfrwt beam="2">  1       21 0.96252660E-02 0.12500000E+03</pdfrwt>
<totfact> 0.74043573E+06</totfact>
</mgrwt>
</event>
<event>
 3    0  0.1368989E+001  0.1250000E+03  0.7546771E-02  0.1235069E+00
         21   -1    0    0  502  501  0.00000000000E+00  0.00000000000E+00  0.39383393166E+01  0.39383393166E+01  0.00000000000E+00 0. -1.
         21   -1    0    0  501  502 -0.00000000000E+00 -0.00000000000E+00 -0.99185206911E+03  0.99185206911E+03  0.00000000000E+00 0. -1.
         25    1    1    2    0    0  0.00000000000E+00  0.00000000000E+00 -0.98791372980E+03  0.99579040843E+03  0.12500000000E+03 0.  0.
<mgrwt>
<rscale>  2 0.12500000E+03</rscale>
<asrwt>0</asrwt>
<pdfrwt beam="1">  1       21 0.60589849E-03 0.12500000E+03</pdfrwt>
<pdfrwt beam="2">  1       21 0.15259259E+00 0.12500000E+03</pdfrwt>
<totfact> 0.23724134E+06</totfact>
</mgrwt>
</event>
<event>
 3    0  0.1718467E+001  0.1250000E+03  0.7546771E-02  0.1235069E+00
         21   -1    0    0  502  501  0.00000000000E+00  0.00000000000E+00  0.56560981718E+02  0.56560981718E+02  0.00000000000E+00 0.  1.
         21   -1    0    0  501  502 -0.00000000000E+00 -0.00000000000E+00 -0.69062627299E+02  0.69062627299E+02  0.00000000000E+00 0.  1.
         25    1    1    2    0    0  0.00000000000E+00  0.00000000000E+00 -0.12501645581E+02  0.12562360902E+03  0.12500000000E+03 0.  0.
<mgrwt>
<rscale>  2 0.12500000E+03</rscale>
<asrwt>0</asrwt>
<pdfrwt beam="1">  1       21 0.87016895E-02 0.12500000E+03</pdfrwt>
<pdfrwt beam="2">  1       21 0.10625020E-01 0.12500000E+03</pdfrwt>
<totfact> 0.73958156E+06</totfact>
</mgrwt>
</event>
<event>
 3    0  0.1692251E+001  0.1250000E+03  0.7546771E-02  0.1235069E+00
         21   -1    0    0  502  501  0.00000000000E+00  0.00000000000E+00  0.74372237517E+02  0.74372237517E+02  0.00000000000E+00 0. -1.
         21   -1    0    0  501  502 -0.00000000000E+00 -0.00000000000E+00 -0.52522959244E+02  0.52522959244E+02  0.00000000000E+00 0. -1.
         25    1    1    2    0    0  0.00000000000E+00  0.00000000000E+00  0.21849278272E+02  0.12689519676E+03  0.12500000000E+03 0.  0.
<mgrwt>
<rscale>  2 0.12500000E+03</rscale>
<asrwt>0</asrwt>
<pdfrwt beam="1">  1       21 0.11441883E-01 0.12500000E+03</pdfrwt>
<pdfrwt beam="2">  1       21 0.80804553E-02 0.12500000E+03</pdfrwt>
<totfact> 0.73783410E+06</totfact>
</mgrwt>
</event>
<event>
 3    0  0.1657608E+001  0.1250000E+03  0.7546771E-02  0.1235069E+00
         21   -1    0    0  502  501  0.00000000000E+00  0.00000000000E+00  0.19735374862E+03  0.19735374862E+03  0.00000000000E+00 0.  1.
         21   -1    0    0  501  502 -0.00000000000E+00 -0.00000000000E+00 -0.19793138095E+02  0.19793138095E+02  0.00000000000E+00 0.  1.
         25    1    1    2    0    0  0.00000000000E+00  0.00000000000E+00  0.17756061053E+03  0.21714688672E+03  0.12500000000E+03 0.  0.
<mgrwt>
<rscale>  2 0.12500000E+03</rscale>
<asrwt>0</asrwt>
<pdfrwt beam="1">  1       21 0.30362114E-01 0.12500000E+03</pdfrwt>
<pdfrwt beam="2">  1       21 0.30450983E-02 0.12500000E+03</pdfrwt>
<totfact> 0.63115358E+06</totfact>
</mgrwt>
</event>
<event>
 3    0  0.1665874E+001  0.1250000E+03  0.7546771E-02  0.1235069E+00
         21   -1    0    0  502  501  0.00000000000E+00  0.00000000000E+00  0.16069746378E+03  0.16069746378E+03  0.00000000000E+00 0.  1.
         21   -1    0    0  501  502 -0.00000000000E+00 -0.00000000000E+00 -0.24308099880E+02  0.24308099880E+02  0.00000000000E+00 0.  1.
         25    1    1    2    0    0  0.00000000000E+00  0.00000000000E+00  0.13638936390E+03  0.18500556366E+03  0.12500000000E+03 0.  0.
<mgrwt>
<rscale>  2 0.12500000E+03</rscale>
<asrwt>0</asrwt>
<pdfrwt beam="1">  1       21 0.24722686E-01 0.12500000E+03</pdfrwt>
<pdfrwt beam="2">  1       21 0.37397078E-02 0.12500000E+03</pdfrwt>
<totfact> 0.66581902E+06</totfact>
</mgrwt>
</event>
<event>
 3    0  0.1713924E+001  0.1250000E+03  0.7546771E-02  0.1235069E+00
         21   -1    0    0  502  501  0.00000000000E+00  0.00000000000E+00  0.89694672543E+02  0.89694672543E+02  0.00000000000E+00 0.  1.
         21   -1    0    0  501  502 -0.00000000000E+00 -0.00000000000E+00 -0.43550524120E+02  0.43550524120E+02  0.00000000000E+00 0.  1.
         25    1    1    2    0    0  0.00000000000E+00  0.00000000000E+00  0.46144148423E+02  0.13324519666E+03  0.12500000000E+03 0.  0.
<mgrwt>
<rscale>  2 0.12500000E+03</rscale>
<asrwt>0</asrwt>
<pdfrwt beam="1">  1       21 0.13799180E-01 0.12500000E+03</pdfrwt>
<pdfrwt beam="2">  1       21 0.67000806E-02 0.12500000E+03</pdfrwt>
<totfact> 0.72929674E+06</totfact>
</mgrwt>
</event>
<event>
 3    0  0.1368989E+001  0.1250000E+03  0.7546771E-02  0.1235069E+00
         21   -1    0    0  502  501  0.00000000000E+00  0.00000000000E+00  0.11689002789E+04  0.11689002789E+04  0.00000000000E+00 0.  1.
         21   -1    0    0  501  502 -0.00000000000E+00 -0.00000000000E+00 -0.33418162957E+01  0.33418162957E+01  0.00000000000E+00 0.  1.
         25    1    1    2    0    0  0.00000000000E+00  0.00000000000E+00  0.11655584626E+04  0.11722420952E+04  0.12500000000E+03 0.  0.
<mgrwt>
<rscale>  2 0.12500000E+03</rscale>
<asrwt>0</asrwt>
<pdfrwt beam="1">  1       21 0.17983049E+00 0.12500000E+03</pdfrwt>
<pdfrwt beam="2">  1       21 0.51412652E-03 0.12500000E+03</pdfrwt>
<totfact> 0.19705527E+06</totfact>
</mgrwt>
</event>
<event>
 3    0  0.1696116E+001  0.1250000E+03  0.7546771E-02  0.1235069E+00
         21   -1    0    0  502  501  0.00000000000E+00  0.00000000000E+00  0.32381593559E+02  0.32381593559E+02  0.00000000000E+00 0.  1.
         21   -1    0    0  501  502 -0.00000000000E+00 -0.00000000000E+00 -0.12063180254E+03  0.12063180254E+03  0.00000000000E+00 0.  1.
         25    1    1    2    0    0  0.00000000000E+00  0.00000000000E+00 -0.88250208979E+02  0.15301339610E+03  0.12500000000E+03 0.  0.
<mgrwt>
<rscale>  2 0.12500000E+03</rscale>
<asrwt>0</asrwt>
<pdfrwt beam="1">  1       21 0.49817837E-02 0.12500000E+03</pdfrwt>
<pdfrwt beam="2">  1       21 0.18558739E-01 0.12500000E+03</pdfrwt>
<totfact> 0.70382684E+06</totfact>
</mgrwt>
</event>
<event>
 3    0  0.1368989E+001  0.1250000E+03  0.7546771E-02  0.1235069E+00
         21   -1    0    0  502  501  0.00000000000E+00  0.00000000000E+00  0.28719383524E+01  0.28719383524E+01  0.00000000000E+00 0. -1.
         21   -1    0    0  501  502 -0.00000000000E+00 -0.00000000000E+00 -0.13601440981E+04  0.13601440981E+04  0.00000000000E+00 0. -1.
         25    1    1    2    0    0  0.00000000000E+00  0.00000000000E+00 -0.13572721597E+04  0.13630160364E+04  0.12500000000E+03 0.  0.
<mgrwt>
<rscale>  2 0.12500000E+03</rscale>
<asrwt>0</asrwt>
<pdfrwt beam="1">  1       21 0.44183681E-03 0.12500000E+03</pdfrwt>
<pdfrwt beam="2">  1       21 0.20925287E+00 0.12500000E+03</pdfrwt>
<totfact> 0.16157462E+06</totfact>
</mgrwt>
</event>
<event>
 3    0  0.1558353E+001  0.1250000E+03  0.7546771E-02  0.1235069E+00
         21   -1    0    0  502  501  0.00000000000E+00  0.00000000000E+00  0.35881937344E+03  0.35881937344E+03  0.00000000000E+00 0.  1.
         21   -1    0    0  501  502 -0.00000000000E+00 -0.00000000000E+00 -0.10886396581E+02  0.10886396581E+02  0.00000000000E+00 0.  1.
         25    1    1    2    0    0  0.00000000000E+00  0.00000000000E+00  0.34793297686E+03  0.36970577002E+03  0.12500000000E+03 0.  0.
<mgrwt>
<rscale>  2 0.12500000E+03</rscale>
<asrwt>0</asrwt>
<pdfrwt beam="1">  1       21 0.55202971E-01 0.12500000E+03</pdfrwt>
<pdfrwt beam="2">  1       21 0.16748305E-02 0.12500000E+03</pdfrwt>
<totfact> 0.50115229E+06</totfact>
</mgrwt>
</event>
<event>
 3    0  0.1594268E+001  0.1250000E+03  0.7546771E-02  0.1235069E+00
         21   -1    0    0  502  501  0.00000000000E+00  0.00000000000E+00  0.13468564692E+02  0.13468564692E+02  0.00000000000E+00 0.  1.
         21   -1    0    0  501  502 -0.00000000000E+00 -0.00000000000E+00 -0.29002719215E+03  0.29002719215E+03  0.00000000000E+00 0.  1.
         25    1    1    2    0    0  0.00000000000E+00  0.00000000000E+00 -0.27655862746E+03  0.30349575684E+03  0.12500000000E+03 0.  0.
<mgrwt>
<rscale>  2 0.12500000E+03</rscale>
<asrwt>0</asrwt>
<pdfrwt beam="1">  1       21 0.20720869E-02 0.12500000E+03</pdfrwt>
<pdfrwt beam="2">  1       21 0.44619568E-01 0.12500000E+03</pdfrwt>
<totfact> 0.55166908E+06</totfact>
</mgrwt>
</event>
<event>
 3    0  0.1688366E+001  0.1250000E+03  0.7546771E-02  0.1235069E+00
         21   -1    0    0  502  501  0.00000000000E+00  0.00000000000E+00  0.83725690633E+02  0.83725690633E+02  0.00000000000E+00 0. -1.
         21   -1    0    0  501  502 -0.00000000000E+00 -0.00000000000E+00 -0.46655333273E+02  0.46655333273E+02  0.00000000000E+00 0. -1.
         25    1    1    2    0    0  0.00000000000E+00  0.00000000000E+00  0.37070357360E+02  0.13038102391E+03  0.12500000000E+03 0.  0.
<mgrwt>
<rscale>  2 0.12500000E+03</rscale>
<asrwt>0</asrwt>
<pdfrwt beam="1">  1       21 0.12880875E-01 0.12500000E+03</pdfrwt>
<pdfrwt beam="2">  1       21 0.71777436E-02 0.12500000E+03</pdfrwt>
<totfact> 0.73314035E+06</totfact>
</mgrwt>
</event>
<event>
 3    0  0.1666093E+001  0.1250000E+03  0.7546771E-02  0.1235069E+00
         21   -1    0    0  502  501  0.00000000000E+00  0.00000000000E+00  0.15459571031E+03  0.15459571031E+03  0.00000000000E+00 0.  1.
         21   -1    0    0  501  502 -0.00000000000E+00 -0.00000000000E+00 -0.25267518692E+02  0.25267518692E+02  0.00000000000E+00 0.  1.
         25    1    1    2    0    0  0.00000000000E+00  0.00000000000E+00  0.12932819162E+03  0.17986322900E+03  0.12500000000E+03 0.  0.
<mgrwt>
<rscale>  2 0.12500000E+03</rscale>
<asrwt>0</asrwt>
<pdfrwt beam="1">  1       21 0.23783955E-01 0.12500000E+03</pdfrwt>
<pdfrwt beam="2">  1       21 0.38873107E-02 0.12500000E+03</pdfrwt>
<totfact> 0.67167230E+06</totfact>
</mgrwt>
</event>
<event>
 3    0  0.1717695E+001  0.1250000E+03  0.7546771E-02  0.1235069E+00
         21   -1    0    0  502  501  0.00000000000E+00  0.00000000000E+00  0.55574715462E+02  0.55574715462E+02  0.00000000000E+00 0.  1.
         21   -1    0    0  501  502 -0.00000000000E+00 -0.00000000000E+00 -0.70288259103E+02  0.70288259103E+02  0.00000000000E+00 0.  1.
         25    1    1    2    0    0  0.00000000000E+00  0.00000000000E+00 -0.14713543641E+02  0.12586297457E+03  0.12500000000E+03 0.  0.
<mgrwt>
<rscale>  2 0.12500000E+03</rscale>
<asrwt>0</asrwt>
<pdfrwt beam="1">  1       21 0.85499562E-02 0.12500000E+03</pdfrwt>
<pdfrwt beam="2">  1       21 0.10813578E-01 0.12500000E+03</pdfrwt>
<totfact> 0.73924958E+06</totfact>
</mgrwt>
</event>
<event>
 3    0  0.1704316E+001  0.1250000E+03  0.7546771E-02  0.1235069E+00
         21   -1    0    0  502  501  0.00000000000E+00  0.00000000000E+00  0.33425930625E+02  0.33425930625E+02  0.00000000000E+00 0.  1.
         21   -1    0    0  501  502 -0.00000000000E+00 -0.00000000000E+00 -0.11686286446E+03  0.11686286446E+03  0.00000000000E+00 0.  1.
         25    1    1    2    0    0  0.00000000000E+00  0.00000000000E+00 -0.83436933833E+02  0.15028879508E+03  0.12500000000E+03 0.  0.
<mgrwt>
<rscale>  2 0.12500000E+03</rscale>
<asrwt>0</asrwt>
<pdfrwt beam="1">  1       21 0.51424508E-02 0.12500000E+03</pdfrwt>
<pdfrwt beam="2">  1       21 0.17978902E-01 0.12500000E+03</pdfrwt>
<totfact> 0.70722942E+06</totfact>
</mgrwt>
</event>
<event>
 3    0  0.1634831E+001  0.1250000E+03  0.7546771E-02  0.1235069E+00
         21   -1    0    0  502  501  0.00000000000E+00  0.00000000000E+00  0.18874840748E+02  0.18874840748E+02  0.00000000000E+00 0.  1.
         21   -1    0    0  501  502 -0.00000000000E+00 -0.00000000000E+00 -0.20695538850E+03  0.20695538850E+03  0.00000000000E+00 0.  1.
         25    1    1    2    0    0  0.00000000000E+00  0.00000000000E+00 -0.18808054775E+03  0.22583022925E+03  0.12500000000E+03 0.  0.
<mgrwt>
<rscale>  2 0.12500000E+03</rscale>
<asrwt>0</asrwt>
<pdfrwt beam="1">  1       21 0.29038216E-02 0.12500000E+03</pdfrwt>
<pdfrwt beam="2">  1       21 0.31839291E-01 0.12500000E+03</pdfrwt>
<totfact> 0.62231407E+06</totfact>
</mgrwt>
</event>
<event>
 3    0  0.1682707E+001  0.1250000E+03  0.7546771E-02  0.1235069E+00
         21   -1    0    0  502  501  0.00000000000E+00  0.00000000000E+00  0.41817046803E+02  0.41817046803E+02  0.00000000000E+00 0. -1.
         21   -1    0    0  501  502 -0.00000000000E+00 -0.00000000000E+00 -0.93412861468E+02  0.93412861468E+02  0.00000000000E+00 0. -1.
         25    1    1    2    0    0  0.00000000000E+00  0.00000000000E+00 -0.51595814666E+02  0.13522990827E+03  0.12500000000E+03 0.  0.
<mgrwt>
<rscale>  2 0.12500000E+03</rscale>
<asrwt>0</asrwt>
<pdfrwt beam="1">  1       21 0.64333918E-02 0.12500000E+03</pdfrwt>
<pdfrwt beam="2">  1       21 0.14371210E-01 0.12500000E+03</pdfrwt>
<totfact> 0.72666045E+06</totfact>
</mgrwt>
</event>
<event>
 3    0  0.1713506E+001  0.1250000E+03  0.7546771E-02  0.1235069E+00
         21   -1    0    0  502  501  0.00000000000E+00  0.00000000000E+00  0.89952943623E+02  0.89952943623E+02  0.00000000000E+00 0.  1.
         21   -1    0    0  501  502 -0.00000000000E+00 -0.00000000000E+00 -0.43425482732E+02  0.43425482732E+02  0.00000000000E+00 0.  1.
         25    1    1    2    0    0  0.00000000000E+00  0.00000000000E+00  0.46527460891E+02  0.13337842636E+03  0.12500000000E+03 0.  0.
<mgrwt>
<rscale>  2 0.12500000E+03</rscale>
<asrwt>0</asrwt>
<pdfrwt beam="1">  1       21 0.13838914E-01 0.12500000E+03</pdfrwt>
<pdfrwt beam="2">  1       21 0.66808435E-02 0.12500000E+03</pdfrwt>
<totfact> 0.72911907E+06</totfact>
</mgrwt>
</event>
<event>
 3    0  0.1550394E+001  0.1250000E+03  0.7546771E-02  0.1235069E+00
         21   -1    0    0  502  501  0.00000000000E+00  0.00000000000E+00  0.13039247304E+02  0.13039247304E+02  0.00000000000E+00 0. -1.
         21   -1    0    0  501  502 -0.00000000000E+00 -0.00000000000E+00 -0.29957634125E+03  0.29957634125E+03  0.00000000000E+00 0. -1.
         25    1    1    2    0    0  0.00000000000E+00  0.00000000000E+00 -0.28653709395E+03  0.31261558856E+03  0.12500000000E+03 0.  0.
<mgrwt>
<rscale>  2 0.12500000E+03</rscale>
<asrwt>0</asrwt>
<pdfrwt beam="1">  1       21 0.20060382E-02 0.12500000E+03</pdfrwt>
<pdfrwt beam="2">  1       21 0.46088664E-01 0.12500000E+03</pdfrwt>
<totfact> 0.54423758E+06</totfact>
</mgrwt>
</event>
<event>
 3    0  0.1570249E+001  0.1250000E+03  0.7546771E-02  0.1235069E+00
         21   -1    0    0  502  501  0.00000000000E+00  0.00000000000E+00  0.31916853752E+03  0.31916853752E+03  0.00000000000E+00 0.  1.
         21   -1    0    0  501  502 -0.00000000000E+00 -0.00000000000E+00 -0.12238831654E+02  0.12238831654E+02  0.00000000000E+00 0.  1.
         25    1    1    2    0    0  0.00000000000E+00  0.00000000000E+00  0.30692970587E+03  0.33140736918E+03  0.12500000000E+03 0.  0.
<mgrwt>
<rscale>  2 0.12500000E+03</rscale>
<asrwt>0</asrwt>
<pdfrwt beam="1">  1       21 0.49102846E-01 0.12500000E+03</pdfrwt>
<pdfrwt beam="2">  1       21 0.18828974E-02 0.12500000E+03</pdfrwt>
<totfact> 0.52941572E+06</totfact>
</mgrwt>
</event>
<event>
 3    0  0.1368989E+001  0.1250000E+03  0.7546771E-02  0.1235069E+00
         21   -1    0    0  502  501  0.00000000000E+00  0.00000000000E+00  0.28557781167E+01  0.28557781167E+01  0.00000000000E+00 0.  1.
         21   -1    0    0  501  502 -0.00000000000E+00 -0.00000000000E+00 -0.13678408617E+04  0.13678408617E+04  0.00000000000E+00 0.  1.
         25    1    1    2    0    0  0.00000000000E+00  0.00000000000E+00 -0.13649850836E+04  0.13706966399E+04  0.12500000000E+03 0.  0.
<mgrwt>
<rscale>  2 0.12500000E+03</rscale>
<asrwt>0</asrwt>
<pdfrwt beam="1">  1       21 0.43935013E-03 0.12500000E+03</pdfrwt>
<pdfrwt beam="2">  1       21 0.21043722E+00 0.12500000E+03</pdfrwt>
<totfact> 0.16028671E+06</totfact>
</mgrwt>
</event>
<event>
 3    0  0.1389685E+001  0.1250000E+03  0.7546771E-02  0.1235069E+00
         21   -1    0    0  502  501  0.00000000000E+00  0.00000000000E+00  0.62192263408E+01  0.62192263408E+01  0.00000000000E+00 0. -1.
         21   -1    0    0  501  502 -0.00000000000E+00 -0.00000000000E+00 -0.62809259319E+03  0.62809259319E+03  0.00000000000E+00 0. -1.
         25    1    1    2    0    0  0.00000000000E+00  0.00000000000E+00 -0.62187336684E+03  0.63431181953E+03  0.12500000000E+03 0.  0.
<mgrwt>
<rscale>  2 0.12500000E+03</rscale>
<asrwt>0</asrwt>
<pdfrwt beam="1">  1       21 0.95680414E-03 0.12500000E+03</pdfrwt>
<pdfrwt beam="2">  1       21 0.96629621E-01 0.12500000E+03</pdfrwt>
<totfact> 0.35585502E+06</totfact>
</mgrwt>
</event>
<event>
 3    0  0.1385693E+001  0.1250000E+03  0.7546771E-02  0.1235069E+00
         21   -1    0    0  502  501  0.00000000000E+00  0.00000000000E+00  0.63088553783E+03  0.63088553783E+03  0.00000000000E+00 0. -1.
         21   -1    0    0  501  502 -0.00000000000E+00 -0.00000000000E+00 -0.61916936842E+01  0.61916936842E+01  0.00000000000E+00 0. -1.
         25    1    1    2    0    0  0.00000000000E+00  0.00000000000E+00  0.62469384414E+03  0.63707723151E+03  0.12500000000E+03 0.  0.
<mgrwt>
<rscale>  2 0.12500000E+03</rscale>
<asrwt>0</asrwt>
<pdfrwt beam="1">  1       21 0.97059263E-01 0.12500000E+03</pdfrwt>
<pdfrwt beam="2">  1       21 0.95256876E-03 0.12500000E+03</pdfrwt>
<totfact> 0.35467773E+06</totfact>
</mgrwt>
</event>
<event>
 3    0  0.1708250E+001  0.1250000E+03  0.7546771E-02  0.1235069E+00
         21   -1    0    0  502  501  0.00000000000E+00  0.00000000000E+00  0.11061258691E+03  0.11061258691E+03  0.00000000000E+00 0.  1.
         21   -1    0    0  501  502 -0.00000000000E+00 -0.00000000000E+00 -0.35314697080E+02  0.35314697080E+02  0.00000000000E+00 0.  1.
         25    1    1    2    0    0  0.00000000000E+00  0.00000000000E+00  0.75297889831E+02  0.14592728399E+03  0.12500000000E+03 0.  0.
<mgrwt>
<rscale>  2 0.12500000E+03</rscale>
<asrwt>0</asrwt>
<pdfrwt beam="1">  1       21 0.17017321E-01 0.12500000E+03</pdfrwt>
<pdfrwt beam="2">  1       21 0.54330304E-02 0.12500000E+03</pdfrwt>
<totfact> 0.71274640E+06</totfact>
</mgrwt>
</event>
<event>
 3    0  0.1368989E+001  0.1250000E+03  0.7546771E-02  0.1235069E+00
         21   -1    0    0  502  501  0.00000000000E+00  0.00000000000E+00  0.10337712924E+04  0.10337712924E+04  0.00000000000E+00 0. -1.
         21   -1    0    0  501  502 -0.00000000000E+00 -0.00000000000E+00 -0.37786404291E+01  0.37786404291E+01  0.00000000000E+00 0. -1.
         25    1    1    2    0    0  0.00000000000E+00  0.00000000000E+00  0.10299926520E+04  0.10375499329E+04  0.12500000000E+03 0.  0.
<mgrwt>
<rscale>  2 0.12500000E+03</rscale>
<asrwt>0</asrwt>
<pdfrwt beam="1">  1       21 0.15904151E+00 0.12500000E+03</pdfrwt>
<pdfrwt beam="2">  1       21 0.58133012E-03 0.12500000E+03</pdfrwt>
<totfact> 0.22696331E+06</totfact>
</mgrwt>
</event>
<event>
 3    0  0.1691283E+001  0.1250000E+03  0.7546771E-02  0.1235069E+00
         21   -1    0    0  502  501  0.00000000000E+00  0.00000000000E+00  0.12294835860E+03  0.12294835860E+03  0.00000000000E+00 0.  1.
         21   -1    0    0  501  502 -0.00000000000E+00 -0.00000000000E+00 -0.31771469294E+02  0.31771469294E+02  0.00000000000E+00 0.  1.
         25    1    1    2    0    0  0.00000000000E+00  0.00000000000E+00  0.91176889303E+02  0.15471982789E+03  0.12500000000E+03 0.  0.
<mgrwt>
<rscale>  2 0.12500000E+03</rscale>
<asrwt>0</asrwt>
<pdfrwt beam="1">  1       21 0.18915132E-01 0.12500000E+03</pdfrwt>
<pdfrwt beam="2">  1       21 0.48879184E-02 0.12500000E+03</pdfrwt>
<totfact> 0.70170497E+06</totfact>
</mgrwt>
</event>
<event>
 3    0  0.1593880E+001  0.1250000E+03  0.7546771E-02  0.1235069E+00
         21   -1    0    0  502  501  0.00000000000E+00  0.00000000000E+00  0.14661818964E+02  0.14661818964E+02  0.00000000000E+00 0.  1.
         21   -1    0    0  501  502 -0.00000000000E+00 -0.00000000000E+00 -0.26642328688E+03  0.26642328688E+03  0.00000000000E+00 0.  1.
         25    1    1    2    0    0  0.00000000000E+00  0.00000000000E+00 -0.25176146792E+03  0.28108510585E+03  0.12500000000E+03 0.  0.
<mgrwt>
<rscale>  2 0.12500000E+03</rscale>
<asrwt>0</asrwt>
<pdfrwt beam="1">  1       21 0.22556644E-02 0.12500000E+03</pdfrwt>
<pdfrwt beam="2">  1       21 0.40988199E-01 0.12500000E+03</pdfrwt>
<totfact> 0.57065642E+06</totfact>
</mgrwt>
</event>
