<event>
 5    1  0.9399923E-003  0.6622671E+02  0.7546771E-02  0.1484902E+00
          2   -1    0    0  502    0  0.00000000000E+00  0.00000000000E+00  0.23011213697E+03  0.23011213697E+03  0.00000000000E+00 0. -1.
          1   -1    0    0  501    0 -0.00000000000E+00 -0.00000000000E+00 -0.11894622555E+03  0.11894622555E+03  0.00000000000E+00 0. -1.
         25    1    1    2    0    0  0.33428086196E+02  0.50886464859E+02 -0.43591796178E+02  0.14571243580E+03  0.12500000000E+03 0.  0.
          2    1    1    2  501    0 -0.60984965363E+02 -0.44110010632E+02  0.40204942707E+02  0.85330513044E+02  0.00000000000E+00 0. -1.
          1    1    1    2  502    0  0.27556879167E+02 -0.67764542266E+01  0.11455276489E+03  0.11801541368E+03  0.00000000000E+00 0. -1.
<mgrwt>
<rscale>  0 0.43351714E+02</rscale>
<asrwt>0</asrwt>
<pdfrwt beam="1">  1        2 0.35401867E-01 0.28377842E+02</pdfrwt>
<pdfrwt beam="2">  1        1 0.18299419E-01 0.66226710E+02</pdfrwt>
<totfact> 0.51511962E+03</totfact>
</mgrwt>
</event>
<event>
 5    1  0.9399923E-003  0.1000097E+03  0.7546771E-02  0.1387074E+00
          1   -1    0    0  501    0 -0.00000000000E+00  0.00000000000E+00  0.30797690943E+03  0.30797690943E+03  0.00000000000E+00 0. -1.
          2   -1    0    0  502    0  0.00000000000E+00 -0.00000000000E+00 -0.90083921660E+03  0.90083921660E+03  0.00000000000E+00 0. -1.
         25    1    1    2    0    0  0.90741374876E+02  0.10259608922E+03 -0.55585310991E+02  0.19358378402E+03  0.12500000000E+03 0.  0.
          2    1    1    2  501    0 -0.30092520325E+02 -0.25174754837E+02  0.23422440330E+03  0.23748768213E+03  0.00000000000E+00 0. -1.
          1    1    1    2  502    0 -0.60648854552E+02 -0.77421334380E+02 -0.77150139948E+03  0.77774465988E+03  0.00000000000E+00 0. -1.
<mgrwt>
<rscale>  0 0.62640312E+02</rscale>
<asrwt>0</asrwt>
<pdfrwt beam="2">  1        2 0.13859065E+00 0.10000972E+03</pdfrwt>
<pdfrwt beam="1">  1        1 0.47381063E-01 0.39234272E+02</pdfrwt>
<totfact> 0.36710771E+02</totfact>
</mgrwt>
</event>
<event>
 5    1  0.1204110E-002  0.1089367E+03  0.7546771E-02  0.1322433E+00
          1   -1    0    0  501    0 -0.00000000000E+00  0.00000000000E+00  0.18336800606E+04  0.18336800606E+04  0.00000000000E+00 0. -1.
          2   -1    0    0  502    0  0.00000000000E+00 -0.00000000000E+00 -0.20061132446E+04  0.20061132446E+04  0.00000000000E+00 0. -1.
         25    1    1    2    0    0  0.63387561944E+00  0.73359206323E+02  0.23336803987E+03  0.27471370003E+03  0.12500000000E+03 0.  0.
          2    1    1    2  501    0  0.59742332143E+02  0.17652245238E+02  0.15775219776E+04  0.15787515124E+04  0.00000000000E+00 0. -1.
          1    1    1    2  502    0 -0.60376207762E+02 -0.91011451562E+02 -0.19833232015E+04  0.19863280928E+04  0.00000000000E+00 0. -1.
<mgrwt>
<rscale>  0 0.82378887E+02</rscale>
<asrwt>0</asrwt>
<pdfrwt beam="2">  1        2 0.30863281E+00 0.10893668E+03</pdfrwt>
<pdfrwt beam="1">  1        1 0.28210463E+00 0.62295650E+02</pdfrwt>
<totfact> 0.56986454E+00</totfact>
</mgrwt>
</event>
<event>
 5    1  0.9399923E-003  0.2061995E+03  0.7546771E-02  0.1221369E+00
          2   -1    0    0  502    0  0.00000000000E+00  0.00000000000E+00  0.12364411816E+04  0.12364411816E+04  0.00000000000E+00 0. -1.
          1   -1    0    0  501    0 -0.00000000000E+00 -0.00000000000E+00 -0.41857569936E+03  0.41857569936E+03  0.00000000000E+00 0. -1.
         25    1    1    2    0    0 -0.16984124606E+03 -0.19026800228E+03  0.20471598678E+03  0.35011654745E+03  0.12500000000E+03 0.  0.
          2    1    1    2  501    0 -0.22439466149E+01  0.87298094249E+02 -0.32964385225E+03  0.34101475318E+03  0.00000000000E+00 0. -1.
          1    1    1    2  502    0  0.17208519267E+03  0.10296990803E+03  0.94279334775E+03  0.96388558038E+03  0.00000000000E+00 0. -1.
<mgrwt>
<rscale>  0 0.13418931E+03</rscale>
<asrwt>0</asrwt>
<pdfrwt beam="1">  1        2 0.19022172E+00 0.20619951E+03</pdfrwt>
<pdfrwt beam="2">  1        1 0.64396262E-01 0.87326929E+02</pdfrwt>
<totfact> 0.15444632E+02</totfact>
</mgrwt>
</event>
<event>
 5    1  0.9399923E-003  0.8014904E+02  0.7546771E-02  0.1469528E+00
          1   -1    0    0  502    0  0.00000000000E+00  0.00000000000E+00  0.90102696010E+03  0.90102696010E+03  0.00000000000E+00 0. -1.
         -1   -1    0    0    0  501 -0.00000000000E+00 -0.00000000000E+00 -0.69729425300E+02  0.69729425300E+02  0.00000000000E+00 0.  1.
         25    1    1    2    0    0 -0.31242799050E+02 -0.60324873397E+02  0.17084353316E+03  0.22232344830E+03  0.12500000000E+03 0.  0.
          2    1    1    2  502    0  0.57290207644E+02  0.58018847379E+02  0.69796250813E+03  0.70270905594E+03  0.00000000000E+00 0. -1.
         -2    1    1    2    0  501 -0.26047408594E+02  0.23060260178E+01 -0.37508506481E+02  0.45723881166E+02  0.00000000000E+00 0.  1.
<mgrwt>
<rscale>  0 0.45780348E+02</rscale>
<asrwt>0</asrwt>
<pdfrwt beam="1">  1        1 0.13861952E+00 0.80149037E+02</pdfrwt>
<pdfrwt beam="2">  1       -1 0.10727605E-01 0.26149288E+02</pdfrwt>
<totfact> 0.95276035E+02</totfact>
</mgrwt>
</event>
<event>
 5    1  0.9399923E-003  0.6024451E+02  0.7546771E-02  0.1438572E+00
          2   -1    0    0  502    0  0.00000000000E+00  0.00000000000E+00  0.18400718771E+04  0.18400718771E+04  0.00000000000E+00 0. -1.
          1   -1    0    0  501    0 -0.00000000000E+00 -0.00000000000E+00 -0.12877183283E+03  0.12877183283E+03  0.00000000000E+00 0. -1.
         25    1    1    2    0    0  0.42889683103E+02 -0.29736767017E+02  0.43693094486E+02  0.14233020317E+03  0.12500000000E+03 0.  0.
          2    1    1    2  501    0 -0.31931419946E+02 -0.29753115166E+02 -0.72894292346E+02  0.84961410643E+02  0.00000000000E+00 0. -1.
          1    1    1    2  502    0 -0.10958263157E+02  0.59489882183E+02  0.17405012421E+04  0.17415520961E+04  0.00000000000E+00 0. -1.
<mgrwt>
<rscale>  0 0.51277249E+02</rscale>
<asrwt>0</asrwt>
<pdfrwt beam="1">  1        2 0.28308796E+00 0.60244515E+02</pdfrwt>
<pdfrwt beam="2">  1        1 0.19811053E-01 0.43644741E+02</pdfrwt>
<totfact> 0.34528474E+02</totfact>
</mgrwt>
</event>
<event>
 5    1  0.9399923E-003  0.8656283E+02  0.7546771E-02  0.1421677E+00
          2   -1    0    0  502    0  0.00000000000E+00  0.00000000000E+00  0.31747515008E+03  0.31747515008E+03  0.00000000000E+00 0. -1.
         -2   -1    0    0    0  501 -0.00000000000E+00 -0.00000000000E+00 -0.16300516547E+03  0.16300516547E+03  0.00000000000E+00 0.  1.
         25    1    1    2    0    0  0.61491409583E+02 -0.70188272810E+02  0.18078139005E+02  0.15703313727E+03  0.12500000000E+03 0.  0.
          1    1    1    2  502    0 -0.28871664890E+02  0.81497484192E+02  0.21817131102E+03  0.23467878880E+03  0.00000000000E+00 0. -1.
         -1    1    1    2    0  501 -0.32619744693E+02 -0.11309211383E+02 -0.81779465416E+02  0.88768389473E+02  0.00000000000E+00 0.  1.
<mgrwt>
<rscale>  0 0.54667582E+02</rscale>
<asrwt>0</asrwt>
<pdfrwt beam="1">  1        2 0.48842331E-01 0.86562830E+02</pdfrwt>
<pdfrwt beam="2">  1       -2 0.25077718E-01 0.34524571E+02</pdfrwt>
<totfact> 0.13610593E+03</totfact>
</mgrwt>
</event>
<event>
 5    1  0.9399923E-003  0.1727467E+03  0.7546771E-02  0.1230388E+00
          2   -1    0    0  502    0  0.00000000000E+00  0.00000000000E+00  0.15661444170E+03  0.15661444170E+03  0.00000000000E+00 0. -1.
          1   -1    0    0  501    0 -0.00000000000E+00 -0.00000000000E+00 -0.14734924197E+04  0.14734924197E+04  0.00000000000E+00 0. -1.
         25    1    1    2    0    0  0.25244088849E+03 -0.57374234813E+02 -0.24763763394E+03  0.37943062969E+03  0.12500000000E+03 0.  0.
          2    1    1    2  501    0 -0.15809574336E+03  0.47044905019E+02 -0.11273749727E+04  0.11393778198E+04  0.00000000000E+00 0. -1.
          1    1    1    2  502    0 -0.94345145137E+02  0.10329329794E+02  0.58134628594E+02  0.11129841197E+03  0.00000000000E+00 0. -1.
<mgrwt>
<rscale>  0 0.12804375E+03</rscale>
<asrwt>0</asrwt>
<pdfrwt beam="1">  1        2 0.24094529E-01 0.94908911E+02</pdfrwt>
<pdfrwt beam="2">  1        1 0.22669115E+00 0.17274669E+03</pdfrwt>
<totfact> 0.23070361E+02</totfact>
</mgrwt>
</event>
<event>
 5    1  0.9399923E-003  0.3785645E+02  0.7546771E-02  0.1528482E+00
          2   -1    0    0  502    0  0.00000000000E+00  0.00000000000E+00  0.10472372498E+03  0.10472372498E+03  0.00000000000E+00 0. -1.
          1   -1    0    0  501    0 -0.00000000000E+00 -0.00000000000E+00 -0.17172329191E+04  0.17172329191E+04  0.00000000000E+00 0. -1.
         25    1    1    2    0    0 -0.56697266177E+02  0.23199153803E+02 -0.39259339794E+03  0.41654214293E+03  0.12500000000E+03 0.  0.
          2    1    1    2  501    0  0.35946482650E+02  0.83171451285E+01 -0.13085563717E+04  0.13090764311E+04  0.00000000000E+00 0. -1.
          1    1    1    2  502    0  0.20750783527E+02 -0.31516298932E+02  0.88640575515E+02  0.96338070060E+02  0.00000000000E+00 0. -1.
<mgrwt>
<rscale>  0 0.37373208E+02</rscale>
<asrwt>0</asrwt>
<pdfrwt beam="1">  1        2 0.16111342E-01 0.37856454E+02</pdfrwt>
<pdfrwt beam="2">  1        1 0.26418968E+00 0.36896131E+02</pdfrwt>
<totfact> 0.28489748E+02</totfact>
</mgrwt>
</event>
<event>
 5    1  0.9399923E-003  0.6811034E+02  0.7546771E-02  0.1369998E+00
          2   -1    0    0  502    0  0.00000000000E+00  0.00000000000E+00  0.14320951234E+04  0.14320951234E+04  0.00000000000E+00 0. -1.
          1   -1    0    0  501    0 -0.00000000000E+00 -0.00000000000E+00 -0.17506867194E+03  0.17506867194E+03  0.00000000000E+00 0. -1.
         25    1    1    2    0    0 -0.51925290212E+02 -0.56837347692E+02  0.40968031436E+02  0.15241423640E+03  0.12500000000E+03 0.  0.
          2    1    1    2  501    0  0.67601238363E+02 -0.94445001325E+01 -0.10863884671E+03  0.12830247474E+03  0.00000000000E+00 0. -1.
          1    1    1    2  502    0 -0.15675948151E+02  0.66281847825E+02  0.13246972667E+04  0.13264470842E+04  0.00000000000E+00 0. -1.
<mgrwt>
<rscale>  0 0.67167640E+02</rscale>
<asrwt>0</asrwt>
<pdfrwt beam="1">  1        2 0.22032232E+00 0.68110342E+02</pdfrwt>
<pdfrwt beam="2">  1        1 0.26933643E-01 0.66237985E+02</pdfrwt>
<totfact> 0.37965410E+02</totfact>
</mgrwt>
</event>
<event>
 5    1  0.9399923E-003  0.8075614E+02  0.7546771E-02  0.1409660E+00
          1   -1    0    0  501    0 -0.00000000000E+00  0.00000000000E+00  0.84520323764E+03  0.84520323764E+03  0.00000000000E+00 0. -1.
          2   -1    0    0  502    0  0.00000000000E+00 -0.00000000000E+00 -0.70675622495E+03  0.70675622495E+03  0.00000000000E+00 0. -1.
         25    1    1    2    0    0  0.51448362923E+02 -0.97005496864E+01 -0.17320017787E+03  0.21991893126E+03  0.12500000000E+03 0.  0.
          2    1    1    2  501    0  0.32968152554E+02  0.23719017215E+02  0.81774818710E+03  0.81875612264E+03  0.00000000000E+00 0. -1.
          1    1    1    2  502    0 -0.84416515477E+02 -0.14018467529E+02 -0.50610099653E+03  0.51328440869E+03  0.00000000000E+00 0. -1.
<mgrwt>
<rscale>  0 0.57269746E+02</rscale>
<asrwt>0</asrwt>
<pdfrwt beam="2">  1        2 0.10873173E+00 0.80756141E+02</pdfrwt>
<pdfrwt beam="1">  1        1 0.13003127E+00 0.40613924E+02</pdfrwt>
<totfact> 0.13798114E+02</totfact>
</mgrwt>
</event>
<event>
 5    1  0.9399923E-003  0.1457880E+03  0.7546771E-02  0.1281558E+00
          2   -1    0    0  502    0  0.00000000000E+00  0.00000000000E+00  0.45545981020E+03  0.45545981020E+03  0.00000000000E+00 0. -1.
          1   -1    0    0  501    0 -0.00000000000E+00 -0.00000000000E+00 -0.22648028750E+04  0.22648028750E+04  0.00000000000E+00 0. -1.
         25    1    1    2    0    0 -0.10100751014E+03 -0.59775210412E+02  0.31561299639E+02  0.17434651852E+03  0.12500000000E+03 0.  0.
          2    1    1    2  501    0  0.14645709963E+03  0.94978526064E+01 -0.21876709058E+04  0.21925883981E+04  0.00000000000E+00 0. -1.
          1    1    1    2  502    0 -0.45449589486E+02  0.50277357806E+02  0.34676654134E+03  0.35332776863E+03  0.00000000000E+00 0. -1.
<mgrwt>
<rscale>  0 0.99402274E+02</rscale>
<asrwt>0</asrwt>
<pdfrwt beam="1">  1        2 0.70070740E-01 0.67775201E+02</pdfrwt>
<pdfrwt beam="2">  1        1 0.34843121E+00 0.14578802E+03</pdfrwt>
<totfact> 0.23592124E+01</totfact>
</mgrwt>
</event>
<event>
 5    1  0.9399923E-003  0.8659089E+02  0.7546771E-02  0.1442720E+00
         -1   -1    0    0    0  501 -0.00000000000E+00  0.00000000000E+00  0.15454002806E+03  0.15454002806E+03  0.00000000000E+00 0.  1.
          1   -1    0    0  502    0  0.00000000000E+00 -0.00000000000E+00 -0.17531593951E+03  0.17531593951E+03  0.00000000000E+00 0. -1.
         25    1    1    2    0    0  0.58038823507E+02  0.22430090961E+02  0.45589841356E+02  0.14688447042E+03  0.12500000000E+03 0.  0.
          2    1    1    2  502    0 -0.81946873620E+02 -0.39607761555E+02 -0.10202983687E+03  0.13672656100E+03  0.00000000000E+00 0. -1.
         -2    1    1    2    0  501  0.23908050113E+02  0.17177670594E+02  0.35664084065E+02  0.46244936149E+02  0.00000000000E+00 0.  1.
<mgrwt>
<rscale>  0 0.50489281E+02</rscale>
<asrwt>0</asrwt>
<pdfrwt beam="2">  1        1 0.26971683E-01 0.86590887E+02</pdfrwt>
<pdfrwt beam="1">  1       -1 0.23775389E-01 0.29439212E+02</pdfrwt>
<totfact> 0.23943485E+03</totfact>
</mgrwt>
</event>
<event>
 5    1  0.9399923E-003  0.5660999E+02  0.7546771E-02  0.1474630E+00
          2   -1    0    0  502    0  0.00000000000E+00  0.00000000000E+00  0.18897704908E+04  0.18897704908E+04  0.00000000000E+00 0. -1.
          1   -1    0    0  501    0 -0.00000000000E+00 -0.00000000000E+00 -0.18998590637E+02  0.18998590637E+02  0.00000000000E+00 0. -1.
         25    1    1    2    0    0  0.41446322577E+02 -0.58736625154E+01  0.87186680251E+03  0.88177605938E+03  0.12500000000E+03 0.  0.
          2    1    1    2  501    0  0.12601393211E+02  0.33399472545E+02  0.11179968650E+02  0.37407373286E+02  0.00000000000E+00 0. -1.
          1    1    1    2  502    0 -0.54047715788E+02 -0.27525810030E+02  0.98772512902E+03  0.98958564879E+03  0.00000000000E+00 0. -1.
<mgrwt>
<rscale>  0 0.44953774E+02</rscale>
<asrwt>0</asrwt>
<pdfrwt beam="1">  1        2 0.29073377E+00 0.56609991E+02</pdfrwt>
<pdfrwt beam="2">  1        1 0.29228616E-02 0.35697617E+02</pdfrwt>
<totfact> 0.37676090E+03</totfact>
</mgrwt>
</event>
<event>
 5    1  0.9399923E-003  0.1235358E+03  0.7546771E-02  0.1324905E+00
          2   -1    0    0  502    0  0.00000000000E+00  0.00000000000E+00  0.51490401055E+03  0.51490401055E+03  0.00000000000E+00 0. -1.
          1   -1    0    0  501    0 -0.00000000000E+00 -0.00000000000E+00 -0.27627969732E+03  0.27627969732E+03  0.00000000000E+00 0. -1.
         25    1    1    2    0    0  0.89566528462E+02  0.91589057583E+02  0.96625591783E+02  0.20340163096E+03  0.12500000000E+03 0.  0.
          2    1    1    2  501    0 -0.47271748230E+02  0.25562423706E+02 -0.20875975308E+03  0.21556597642E+03  0.00000000000E+00 0. -1.
          1    1    1    2  502    0 -0.42294780232E+02 -0.11715148129E+03  0.35075847453E+03  0.37221610048E+03  0.00000000000E+00 0. -1.
<mgrwt>
<rscale>  0 0.81479383E+02</rscale>
<asrwt>0</asrwt>
<pdfrwt beam="1">  1        2 0.79216001E-01 0.12353576E+03</pdfrwt>
<pdfrwt beam="2">  1        1 0.42504569E-01 0.53740633E+02</pdfrwt>
<totfact> 0.80319908E+02</totfact>
</mgrwt>
</event>
<event>
 5    1  0.9399923E-003  0.1534038E+03  0.7546771E-02  0.1201390E+00
          2   -1    0    0  502    0  0.00000000000E+00  0.00000000000E+00  0.84261286392E+03  0.84261286392E+03  0.00000000000E+00 0. -1.
          1   -1    0    0  501    0 -0.00000000000E+00 -0.00000000000E+00 -0.40141016325E+03  0.40141016325E+03  0.00000000000E+00 0. -1.
         25    1    1    2    0    0 -0.57186622254E+01 -0.39312802805E+02 -0.46855926534E+02  0.13927913488E+03  0.12500000000E+03 0.  0.
          2    1    1    2  501    0  0.12224318907E+03 -0.78395027015E+02 -0.28193490833E+03  0.31713793540E+03  0.00000000000E+00 0. -1.
          1    1    1    2  502    0 -0.11652452684E+03  0.11770782982E+03  0.76999353554E+03  0.78760595689E+03  0.00000000000E+00 0. -1.
<mgrwt>
<rscale>  0 0.14925640E+03</rscale>
<asrwt>0</asrwt>
<pdfrwt beam="1">  1        2 0.12963275E+00 0.15340380E+03</pdfrwt>
<pdfrwt beam="2">  1        1 0.61755410E-01 0.14522113E+03</pdfrwt>
<totfact> 0.28226468E+02</totfact>
</mgrwt>
</event>
<event>
 5    1  0.9399923E-003  0.3498247E+02  0.7546771E-02  0.1559055E+00
          1   -1    0    0  501    0 -0.00000000000E+00  0.00000000000E+00  0.52326311020E+03  0.52326311020E+03  0.00000000000E+00 0. -1.
          2   -1    0    0  502    0  0.00000000000E+00 -0.00000000000E+00 -0.13337759062E+04  0.13337759062E+04  0.00000000000E+00 0. -1.
         25    1    1    2    0    0 -0.43564955165E+02  0.14738739258E+02 -0.65764099570E+02  0.14854309996E+03  0.12500000000E+03 0.  0.
          2    1    1    2  501    0  0.28179865271E+02  0.16695775162E+02  0.48106696799E+03  0.48218075595E+03  0.00000000000E+00 0. -1.
          1    1    1    2  502    0  0.15385089894E+02 -0.31434514421E+02 -0.12258156644E+04  0.12263151604E+04  0.00000000000E+00 0. -1.
<mgrwt>
<rscale>  0 0.33850133E+02</rscale>
<asrwt>0</asrwt>
<pdfrwt beam="2">  1        2 0.20519629E+00 0.34982472E+02</pdfrwt>
<pdfrwt beam="1">  1        1 0.80502017E-01 0.32754446E+02</pdfrwt>
<totfact> 0.11981785E+02</totfact>
</mgrwt>
</event>
<event>
 5    1  0.9399923E-003  0.8611622E+02  0.7546771E-02  0.1383572E+00
          1   -1    0    0  501    0 -0.00000000000E+00  0.00000000000E+00  0.14276100743E+04  0.14276100743E+04  0.00000000000E+00 0. -1.
          2   -1    0    0  502    0  0.00000000000E+00 -0.00000000000E+00 -0.36787122491E+03  0.36787122491E+03  0.00000000000E+00 0. -1.
         25    1    1    2    0    0 -0.11726129339E+03 -0.40561393548E+02 -0.85818190055E+02  0.19592141108E+03  0.12500000000E+03 0.  0.
          2    1    1    2  501    0  0.46873189445E+02 -0.19191228547E+00  0.13648576538E+04  0.13656623111E+04  0.00000000000E+00 0. -1.
          1    1    1    2  502    0  0.70388103942E+02  0.40753305834E+02 -0.21930061435E+03  0.23389757708E+03  0.00000000000E+00 0. -1.
<mgrwt>
<rscale>  0 0.63534053E+02</rscale>
<asrwt>0</asrwt>
<pdfrwt beam="2">  1        2 0.56595574E-01 0.86116224E+02</pdfrwt>
<pdfrwt beam="1">  1        1 0.21963232E+00 0.46873582E+02</pdfrwt>
<totfact> 0.11279203E+02</totfact>
</mgrwt>
</event>
<event>
 5    1  0.9399923E-003  0.1075846E+03  0.7546771E-02  0.1324797E+00
          2   -1    0    0  502    0  0.00000000000E+00  0.00000000000E+00  0.20495150105E+03  0.20495150105E+03  0.00000000000E+00 0. -1.
          1   -1    0    0  501    0 -0.00000000000E+00 -0.00000000000E+00 -0.16474342435E+04  0.16474342435E+04  0.00000000000E+00 0. -1.
         25    1    1    2    0    0 -0.99031863688E+02 -0.46063673393E+02 -0.10090001118E+03  0.19425494663E+03  0.12500000000E+03 0.  0.
          2    1    1    2  501    0  0.10716006322E+03 -0.15167032658E+02 -0.14917944416E+04  0.14957152048E+04  0.00000000000E+00 0. -1.
          1    1    1    2  502    0 -0.81281995337E+01  0.61230706050E+02  0.15021171027E+03  0.16241559313E+03  0.00000000000E+00 0. -1.
<mgrwt>
<rscale>  0 0.81518508E+02</rscale>
<asrwt>0</asrwt>
<pdfrwt beam="1">  1        2 0.31531002E-01 0.61767848E+02</pdfrwt>
<pdfrwt beam="2">  1        1 0.25345141E+00 0.10758457E+03</pdfrwt>
<totfact> 0.13808915E+02</totfact>
</mgrwt>
</event>
<event>
 5    1  0.9399923E-003  0.1442703E+03  0.7546771E-02  0.1360265E+00
          3   -1    0    0  502    0  0.00000000000E+00  0.00000000000E+00  0.10705810807E+04  0.10705810807E+04  0.00000000000E+00 0. -1.
         -1   -1    0    0    0  501 -0.00000000000E+00 -0.00000000000E+00 -0.62991430668E+02  0.62991430668E+02  0.00000000000E+00 0.  1.
         25    1    1    2    0    0  0.26856565571E+02  0.13912505342E+03  0.60110940548E+03  0.63010679489E+03  0.12500000000E+03 0.  0.
          2    1    1    2  502    0  0.58511800755E+01 -0.14809317834E+03  0.43474702379E+03  0.45931557830E+03  0.00000000000E+00 0. -1.
         -2    1    1    2    0  501 -0.32707745647E+02  0.89681249193E+01 -0.28266779257E+02  0.44150138159E+02  0.00000000000E+00 0.  1.
<mgrwt>
<rscale>  0 0.69949422E+02</rscale>
<asrwt>0</asrwt>
<pdfrwt beam="1">  1        3 0.16470477E+00 0.14427034E+03</pdfrwt>
<pdfrwt beam="2">  1       -1 0.96909901E-02 0.33914951E+02</pdfrwt>
<totfact> 0.68109803E+01</totfact>
</mgrwt>
</event>
<event>
 5    1  0.9399923E-003  0.6549379E+02  0.7546771E-02  0.1528905E+00
          1   -1    0    0  502    0  0.00000000000E+00  0.00000000000E+00  0.32810335961E+03  0.32810335961E+03  0.00000000000E+00 0. -1.
         -1   -1    0    0    0  501 -0.00000000000E+00 -0.00000000000E+00 -0.31986902167E+03  0.31986902167E+03  0.00000000000E+00 0.  1.
         25    1    1    2    0    0 -0.51029470205E+02 -0.13690702188E+02 -0.30822874875E+02  0.13916354326E+03  0.12500000000E+03 0.  0.
          2    1    1    2  502    0  0.66172752346E+02 -0.12413297572E+01  0.26943843746E+03  0.27744809538E+03  0.00000000000E+00 0. -1.
         -2    1    1    2    0  501 -0.15143282141E+02  0.14932031945E+02 -0.23038122464E+03  0.23136074265E+03  0.00000000000E+00 0.  1.
<mgrwt>
<rscale>  0 0.37320978E+02</rscale>
<asrwt>0</asrwt>
<pdfrwt beam="1">  1        1 0.50477440E-01 0.65493794E+02</pdfrwt>
<pdfrwt beam="2">  1       -1 0.49210619E-01 0.21266983E+02</pdfrwt>
<totfact> 0.33740334E+02</totfact>
</mgrwt>
</event>
<event>
 5    1  0.9399923E-003  0.6444851E+02  0.7546771E-02  0.1426287E+00
          2   -1    0    0  502    0  0.00000000000E+00  0.00000000000E+00  0.42221054559E+03  0.42221054559E+03  0.00000000000E+00 0. -1.
          1   -1    0    0  501    0 -0.00000000000E+00 -0.00000000000E+00 -0.14162344783E+03  0.14162344783E+03  0.00000000000E+00 0. -1.
         25    1    1    2    0    0 -0.84822291065E+02 -0.78930634653E+01  0.47577521707E+02  0.15857409020E+03  0.12500000000E+03 0.  0.
          2    1    1    2  501    0  0.57101686287E+02 -0.27256302573E+02 -0.72649429832E+02  0.96340273312E+02  0.00000000000E+00 0. -1.
          1    1    1    2  502    0  0.27720604778E+02  0.35149366038E+02  0.30565900589E+03  0.30891962991E+03  0.00000000000E+00 0. -1.
<mgrwt>
<rscale>  0 0.53712578E+02</rscale>
<asrwt>0</asrwt>
<pdfrwt beam="1">  1        2 0.64955468E-01 0.44765052E+02</pdfrwt>
<pdfrwt beam="2">  1        1 0.21788223E-01 0.64448514E+02</pdfrwt>
<totfact> 0.22589938E+03</totfact>
</mgrwt>
</event>
<event>
 5    1  0.9399923E-003  0.1146717E+03  0.7546771E-02  0.1358385E+00
          2   -1    0    0  502    0  0.00000000000E+00  0.00000000000E+00  0.19341882704E+04  0.19341882704E+04  0.00000000000E+00 0. -1.
          3   -1    0    0  501    0 -0.00000000000E+00 -0.00000000000E+00 -0.22681960015E+03  0.22681960015E+03  0.00000000000E+00 0. -1.
         25    1    1    2    0    0  0.11109928496E+03 -0.60896980615E+02  0.10629962949E+04  0.10777929376E+04  0.12500000000E+03 0.  0.
          2    1    1    2  501    0 -0.75757159190E+02  0.85998612662E+02 -0.20386455295E+03  0.23387104245E+03  0.00000000000E+00 0. -1.
          1    1    1    2  502    0 -0.35342125770E+02 -0.25101632048E+02  0.84823692838E+03  0.84934389057E+03  0.00000000000E+00 0. -1.
<mgrwt>
<rscale>  0 0.70504853E+02</rscale>
<asrwt>0</asrwt>
<pdfrwt beam="1">  1        2 0.29756742E+00 0.43349254E+02</pdfrwt>
<pdfrwt beam="2">  1        3 0.34895324E-01 0.11467174E+03</pdfrwt>
<totfact> 0.47277957E+01</totfact>
</mgrwt>
</event>
<event>
 5    1  0.9399923E-003  0.6718167E+02  0.7546771E-02  0.1471669E+00
          2   -1    0    0  502    0  0.00000000000E+00  0.00000000000E+00  0.15418988200E+03  0.15418988200E+03  0.00000000000E+00 0. -1.
          1   -1    0    0  501    0 -0.00000000000E+00 -0.00000000000E+00 -0.83327545633E+03  0.83327545633E+03  0.00000000000E+00 0. -1.
         25    1    1    2    0    0 -0.71582158884E+02  0.61642314103E+02 -0.31490144393E+02  0.15981367136E+03  0.12500000000E+03 0.  0.
          2    1    1    2  501    0  0.56805201988E+02 -0.34707284057E+02 -0.73345054395E+03  0.73646529244E+03  0.00000000000E+00 0. -1.
          3    1    1    2  502    0  0.14776956896E+02 -0.26935030046E+02  0.85855114010E+02  0.91186374533E+02  0.00000000000E+00 0. -1.
<mgrwt>
<rscale>  0 0.45430930E+02</rscale>
<asrwt>0</asrwt>
<pdfrwt beam="1">  1        2 0.23721521E-01 0.30722212E+02</pdfrwt>
<pdfrwt beam="2">  1        1 0.12819622E+00 0.67181667E+02</pdfrwt>
<totfact> 0.67170888E+02</totfact>
</mgrwt>
</event>
<event>
 5    1  0.9399923E-003  0.1697833E+03  0.7546771E-02  0.1317519E+00
          1   -1    0    0  502    0  0.00000000000E+00  0.00000000000E+00  0.11863354496E+04  0.11863354496E+04  0.00000000000E+00 0. -1.
         -1   -1    0    0    0  501 -0.00000000000E+00 -0.00000000000E+00 -0.67544412178E+03  0.67544412178E+03  0.00000000000E+00 0.  1.
         25    1    1    2    0    0 -0.12638258466E+03  0.64365660322E+02  0.87077228933E+03  0.89105828979E+03  0.12500000000E+03 0.  0.
          2    1    1    2  502    0 -0.71133698507E+01  0.41153890995E+02  0.29303467038E+03  0.29599587974E+03  0.00000000000E+00 0. -1.
         -2    1    1    2    0  501  0.13349595451E+03 -0.10551955132E+03 -0.65291563188E+03  0.67472540188E+03  0.00000000000E+00 0.  1.
<mgrwt>
<rscale>  0 0.84207210E+02</rscale>
<asrwt>0</asrwt>
<pdfrwt beam="1">  1        1 0.18251314E+00 0.41764133E+02</pdfrwt>
<pdfrwt beam="2">  1       -1 0.10391448E+00 0.16978335E+03</pdfrwt>
<totfact> 0.12986715E+01</totfact>
</mgrwt>
</event>
<event>
 5    1  0.9399923E-003  0.1368872E+03  0.7546771E-02  0.1391278E+00
         -2   -1    0    0    0  501 -0.00000000000E+00  0.00000000000E+00  0.66840336377E+03  0.66840336377E+03  0.00000000000E+00 0.  1.
          2   -1    0    0  502    0  0.00000000000E+00 -0.00000000000E+00 -0.44497827229E+03  0.44497827229E+03  0.00000000000E+00 0. -1.
         25    1    1    2    0    0 -0.56785707230E+02 -0.98318614485E+02  0.42394875896E+02  0.17410770231E+03  0.12500000000E+03 0.  0.
          1    1    1    2  502    0  0.60905284011E+02  0.12572201717E+03 -0.36589027730E+03  0.39165185337E+03  0.00000000000E+00 0. -1.
         -1    1    1    2    0  501 -0.41195767811E+01 -0.27403402689E+02  0.54692049288E+03  0.54762208039E+03  0.00000000000E+00 0.  1.
<mgrwt>
<rscale>  0 0.61589971E+02</rscale>
<asrwt>0</asrwt>
<pdfrwt beam="2">  1        2 0.68458196E-01 0.13688717E+03</pdfrwt>
<pdfrwt beam="1">  1       -2 0.10283129E+00 0.27711322E+02</pdfrwt>
<totfact> 0.61748188E+01</totfact>
</mgrwt>
</event>
<event>
 5    1  0.9399923E-003  0.1366292E+03  0.7546771E-02  0.1303925E+00
         -1   -1    0    0    0  502 -0.00000000000E+00  0.00000000000E+00  0.13633089314E+03  0.13633089314E+03  0.00000000000E+00 0.  1.
         -2   -1    0    0    0  501  0.00000000000E+00 -0.00000000000E+00 -0.14692681706E+04  0.14692681706E+04  0.00000000000E+00 0.  1.
         25    1    1    2    0    0  0.14749478263E+03  0.12982697289E+02 -0.23885651539E+03  0.30757226188E+03  0.12500000000E+03 0.  0.
         -2    1    1    2    0  502 -0.27354111593E+02  0.51941321400E+02  0.89259106861E+02  0.10683321790E+03  0.00000000000E+00 0.  1.
         -1    1    1    2    0  501 -0.12014067104E+03 -0.64924018690E+02 -0.11833398690E+04  0.11911935840E+04  0.00000000000E+00 0.  1.
<mgrwt>
<rscale>  0 0.89558185E+02</rscale>
<asrwt>0</asrwt>
<pdfrwt beam="2">  1       -2 0.22604126E+00 0.13662922E+03</pdfrwt>
<pdfrwt beam="1">  1       -1 0.20973983E-01 0.58703904E+02</pdfrwt>
<totfact> 0.13884385E+01</totfact>
</mgrwt>
</event>
<event>
 5    1  0.9399923E-003  0.3140336E+02  0.7546771E-02  0.1590309E+00
         -1   -1    0    0    0  501 -0.00000000000E+00  0.00000000000E+00  0.11445712090E+04  0.11445712090E+04  0.00000000000E+00 0.  1.
          1   -1    0    0  502    0  0.00000000000E+00 -0.00000000000E+00 -0.34525684005E+03  0.34525684005E+03  0.00000000000E+00 0. -1.
         25    1    1    2    0    0  0.34745480208E+02  0.10175961957E+02  0.10523813033E+04  0.10603971927E+04  0.12500000000E+03 0.  0.
          2    1    1    2  502    0 -0.96072035440E+01 -0.29897699238E+02 -0.33760183310E+03  0.33905924039E+03  0.00000000000E+00 0. -1.
         -2    1    1    2    0  501 -0.25138276664E+02  0.19721737281E+02  0.84534898681E+02  0.90371615953E+02  0.00000000000E+00 0.  1.
<mgrwt>
<rscale>  0 0.30715751E+02</rscale>
<asrwt>0</asrwt>
<pdfrwt beam="2">  1        1 0.53116438E-01 0.31403356E+02</pdfrwt>
<pdfrwt beam="1">  1       -1 0.17608788E+00 0.30043201E+02</pdfrwt>
<totfact> 0.21664411E+01</totfact>
</mgrwt>
</event>
<event>
 5    1  0.9399923E-003  0.6019393E+02  0.7546771E-02  0.1427944E+00
          1   -1    0    0  501    0 -0.00000000000E+00  0.00000000000E+00  0.30281954669E+02  0.30281954669E+02  0.00000000000E+00 0. -1.
          2   -1    0    0  502    0  0.00000000000E+00 -0.00000000000E+00 -0.75867642920E+03  0.75867642920E+03  0.00000000000E+00 0. -1.
         25    1    1    2    0    0  0.20839406048E+02 -0.15986261887E+01 -0.24925096211E+03  0.27962095516E+03  0.12500000000E+03 0.  0.
          2    1    1    2  501    0  0.40888951913E+02 -0.23834371519E+02 -0.31753743952E+02  0.56993718155E+02  0.00000000000E+00 0. -1.
          1    1    1    2  502    0 -0.61728357961E+02  0.25432997707E+02 -0.44738976847E+03  0.45234371055E+03  0.00000000000E+00 0. -1.
<mgrwt>
<rscale>  0 0.53374959E+02</rscale>
<asrwt>0</asrwt>
<pdfrwt beam="2">  1        2 0.11671944E+00 0.60193927E+02</pdfrwt>
<pdfrwt beam="1">  1        1 0.46587626E-02 0.47328466E+02</pdfrwt>
<totfact> 0.84359833E+03</totfact>
</mgrwt>
</event>
<event>
 5    1  0.9399923E-003  0.1002034E+03  0.7546771E-02  0.1296042E+00
          1   -1    0    0  501    0 -0.00000000000E+00  0.00000000000E+00  0.93131417254E+02  0.93131417254E+02  0.00000000000E+00 0. -1.
          2   -1    0    0  502    0  0.00000000000E+00 -0.00000000000E+00 -0.66815102069E+03  0.66815102069E+03  0.00000000000E+00 0. -1.
         25    1    1    2    0    0 -0.82954707574E+02  0.37684657491E+02 -0.19026592413E+03  0.24520958139E+03  0.12500000000E+03 0.  0.
          2    1    1    2  501    0 -0.16223395672E+02 -0.84534412830E+02  0.26800344701E+02  0.90152781409E+02  0.00000000000E+00 0. -1.
          1    1    1    2  502    0  0.99178103246E+02  0.46849755339E+02 -0.41155402401E+03  0.42592007515E+03  0.00000000000E+00 0. -1.
<mgrwt>
<rscale>  0 0.92872065E+02</rscale>
<asrwt>0</asrwt>
<pdfrwt beam="2">  1        2 0.10279246E+00 0.10020344E+03</pdfrwt>
<pdfrwt beam="1">  1        1 0.14327910E-01 0.86077091E+02</pdfrwt>
<totfact> 0.23283982E+03</totfact>
</mgrwt>
</event>
<event>
 5    1  0.9399923E-003  0.7667534E+02  0.7546771E-02  0.1414272E+00
         -2   -1    0    0    0  501 -0.00000000000E+00  0.00000000000E+00  0.23739001533E+02  0.23739001533E+02  0.00000000000E+00 0.  1.
          2   -1    0    0  502    0  0.00000000000E+00 -0.00000000000E+00 -0.16007218143E+04  0.16007218143E+04  0.00000000000E+00 0. -1.
         25    1    1    2    0    0 -0.25894394712E+02 -0.10617077469E+03 -0.69272065738E+03  0.71234097329E+03  0.12500000000E+03 0.  0.
          1    1    1    2  502    0  0.30531339173E+02  0.65164246594E+02 -0.86244080226E+03  0.86543785398E+03  0.00000000000E+00 0. -1.
         -1    1    1    2    0  501 -0.46369444618E+01  0.41006528101E+02 -0.21821353087E+02  0.46681988511E+02  0.00000000000E+00 0.  1.
<mgrwt>
<rscale>  0 0.56251466E+02</rscale>
<asrwt>0</asrwt>
<pdfrwt beam="2">  1        2 0.24626503E+00 0.76675337E+02</pdfrwt>
<pdfrwt beam="1">  1       -2 0.36521521E-02 0.41267864E+02</pdfrwt>
<totfact> 0.34517309E+03</totfact>
</mgrwt>
</event>
<event>
 5    1  0.9399923E-003  0.1883937E+03  0.7546771E-02  0.1161643E+00
          2   -1    0    0  502    0  0.00000000000E+00  0.00000000000E+00  0.20492263769E+03  0.20492263769E+03  0.00000000000E+00 0. -1.
          1   -1    0    0  501    0 -0.00000000000E+00 -0.00000000000E+00 -0.60574369433E+03  0.60574369433E+03  0.00000000000E+00 0. -1.
         25    1    1    2    0    0 -0.63332137098E+02  0.19582784516E+03 -0.91025987633E+02  0.25743005837E+03  0.12500000000E+03 0.  0.
          2    1    1    2  501    0 -0.11912799006E+03 -0.16744798982E+03 -0.30592929154E+03  0.36854177339E+03  0.00000000000E+00 0. -1.
          1    1    1    2  502    0  0.18246012716E+03 -0.28379855335E+02 -0.38657774726E+01  0.18469450027E+03  0.00000000000E+00 0. -1.
<mgrwt>
<rscale>  0 0.18651451E+03</rscale>
<asrwt>0</asrwt>
<pdfrwt beam="1">  1        2 0.31526560E-01 0.18465404E+03</pdfrwt>
<pdfrwt beam="2">  1        1 0.93191336E-01 0.18839373E+03</pdfrwt>
<totfact> 0.78806905E+02</totfact>
</mgrwt>
</event>
<event>
 5    1  0.9399923E-003  0.3700867E+02  0.7546771E-02  0.1616241E+00
          2   -1    0    0  502    0  0.00000000000E+00  0.00000000000E+00  0.25428724776E+03  0.25428724776E+03  0.00000000000E+00 0. -1.
         -2   -1    0    0    0  501 -0.00000000000E+00 -0.00000000000E+00 -0.35747106360E+03  0.35747106360E+03  0.00000000000E+00 0.  1.
         25    1    1    2    0    0  0.17254901216E+01  0.17188517969E+02 -0.56364239234E+02  0.13820401561E+03  0.12500000000E+03 0.  0.
          1    1    1    2  502    0 -0.15843550488E+02 -0.33831317476E+02  0.21126808770E+03  0.21454552201E+03  0.00000000000E+00 0. -1.
         -1    1    1    2    0  501  0.14118060366E+02  0.16642799507E+02 -0.25808766431E+03  0.25900877374E+03  0.00000000000E+00 0.  1.
<mgrwt>
<rscale>  0 0.28419892E+02</rscale>
<asrwt>0</asrwt>
<pdfrwt beam="1">  1        2 0.39121115E-01 0.37008669E+02</pdfrwt>
<pdfrwt beam="2">  1       -2 0.54995548E-01 0.21824353E+02</pdfrwt>
<totfact> 0.40507541E+02</totfact>
</mgrwt>
</event>
<event>
 5    1  0.9399923E-003  0.8002157E+02  0.7546771E-02  0.1424960E+00
         -2   -1    0    0    0  501 -0.00000000000E+00  0.00000000000E+00  0.24731615174E+02  0.24731615174E+02  0.00000000000E+00 0.  1.
          2   -1    0    0  502    0  0.00000000000E+00 -0.00000000000E+00 -0.15742042901E+04  0.15742042901E+04  0.00000000000E+00 0. -1.
         25    1    1    2    0    0 -0.11602815662E+02 -0.56435551659E+02 -0.48300910127E+03  0.50223738285E+03  0.12500000000E+03 0.  0.
          1    1    1    2  502    0  0.21499651966E+02 -0.29397225722E+02 -0.95487895857E+03  0.95557326116E+03  0.00000000000E+00 0. -1.
         -1    1    1    2    0  501 -0.98968363037E+01  0.85832777381E+02 -0.11158461504E+03  0.14112526123E+03  0.00000000000E+00 0.  1.
<mgrwt>
<rscale>  0 0.53985208E+02</rscale>
<asrwt>0</asrwt>
<pdfrwt beam="2">  1        2 0.24218527E+00 0.36420213E+02</pdfrwt>
<pdfrwt beam="1">  1       -2 0.38048640E-02 0.80021571E+02</pdfrwt>
<totfact> 0.38958572E+03</totfact>
</mgrwt>
</event>
<event>
 5    1  0.9399923E-003  0.3911324E+02  0.7546771E-02  0.1588342E+00
          2   -1    0    0  502    0  0.00000000000E+00  0.00000000000E+00  0.49893096228E+03  0.49893096228E+03  0.00000000000E+00 0. -1.
          1   -1    0    0  501    0 -0.00000000000E+00 -0.00000000000E+00 -0.30704679434E+03  0.30704679434E+03  0.00000000000E+00 0. -1.
         25    1    1    2    0    0  0.35739716323E+02 -0.20825412400E+02 -0.28276754912E+03  0.31191907919E+03  0.12500000000E+03 0.  0.
          2    1    1    2  501    0 -0.38255060889E+02 -0.34569795124E+01  0.30001982099E+02  0.48739299552E+02  0.00000000000E+00 0. -1.
          1    1    1    2  502    0  0.25153445658E+01  0.24282391912E+02  0.44464973496E+03  0.44531937788E+03  0.00000000000E+00 0. -1.
<mgrwt>
<rscale>  0 0.30900568E+02</rscale>
<asrwt>0</asrwt>
<pdfrwt beam="1">  1        2 0.76758609E-01 0.24412323E+02</pdfrwt>
<pdfrwt beam="2">  1        1 0.47237969E-01 0.39113242E+02</pdfrwt>
<totfact> 0.74580587E+02</totfact>
</mgrwt>
</event>
<event>
 5    1  0.9399923E-003  0.7595108E+02  0.7546771E-02  0.1515551E+00
          1   -1    0    0  502    0  0.00000000000E+00  0.00000000000E+00  0.18409755381E+04  0.18409755381E+04  0.00000000000E+00 0. -1.
         -1   -1    0    0    0  501 -0.00000000000E+00 -0.00000000000E+00 -0.48912703235E+03  0.48912703235E+03  0.00000000000E+00 0.  1.
         25    1    1    2    0    0 -0.16844655610E+02  0.79920833139E+02 -0.79283006430E+02  0.16906175529E+03  0.12500000000E+03 0.  0.
          2    1    1    2  502    0  0.33177394391E+02 -0.68297685965E+02  0.17950076728E+04  0.17966128851E+04  0.00000000000E+00 0. -1.
         -2    1    1    2    0  501 -0.16332738781E+02 -0.11623147174E+02 -0.36387616066E+03  0.36442793005E+03  0.00000000000E+00 0.  1.
<mgrwt>
<rscale>  0 0.39019757E+02</rscale>
<asrwt>0</asrwt>
<pdfrwt beam="1">  1        1 0.28322700E+00 0.75951078E+02</pdfrwt>
<pdfrwt beam="2">  1       -1 0.75250314E-01 0.20046344E+02</pdfrwt>
<totfact> 0.99005007E+00</totfact>
</mgrwt>
</event>
<event>
 5    1  0.9399923E-003  0.6627486E+02  0.7546771E-02  0.1402922E+00
         -1   -1    0    0    0  501 -0.00000000000E+00  0.00000000000E+00  0.21585800301E+04  0.21585800301E+04  0.00000000000E+00 0.  1.
          1   -1    0    0  502    0  0.00000000000E+00 -0.00000000000E+00 -0.43802172731E+02  0.43802172731E+02  0.00000000000E+00 0. -1.
         25    1    1    2    0    0 -0.78669310679E+02 -0.42751568970E+02  0.25237457782E+03  0.29552408467E+03  0.12500000000E+03 0.  0.
          2    1    1    2  502    0  0.49487264755E+02 -0.16528845363E+02  0.98123828666E+01  0.53089311160E+02  0.00000000000E+00 0. -1.
         -2    1    1    2    0  501  0.29182045924E+02  0.59280414333E+02  0.18525908967E+04  0.18537688070E+04  0.00000000000E+00 0.  1.
<mgrwt>
<rscale>  0 0.58803626E+02</rscale>
<asrwt>0</asrwt>
<pdfrwt beam="2">  1        1 0.67387975E-02 0.52174631E+02</pdfrwt>
<pdfrwt beam="1">  1       -1 0.33208915E+00 0.66274862E+02</pdfrwt>
<totfact> 0.28583155E+01</totfact>
</mgrwt>
</event>
<event>
 5    1  0.9399923E-003  0.2186089E+03  0.7546771E-02  0.1268666E+00
          1   -1    0    0  501    0 -0.00000000000E+00  0.00000000000E+00  0.15037166695E+04  0.15037166695E+04  0.00000000000E+00 0. -1.
          2   -1    0    0  502    0  0.00000000000E+00 -0.00000000000E+00 -0.13243535479E+04  0.13243535479E+04  0.00000000000E+00 0. -1.
         25    1    1    2    0    0 -0.83351589932E+01  0.23144479409E+03 -0.47055057433E+03  0.53914655762E+03  0.12500000000E+03 0.  0.
          2    1    1    2  501    0  0.55371835899E+02 -0.21135552562E+03  0.14604863933E+04  0.14767388745E+04  0.00000000000E+00 0. -1.
          3    1    1    2  502    0 -0.47036676905E+02 -0.20089268470E+02 -0.81057269743E+03  0.81218478532E+03  0.00000000000E+00 0. -1.
<mgrwt>
<rscale>  0 0.10574127E+03</rscale>
<asrwt>0</asrwt>
<pdfrwt beam="2">  1        2 0.20374670E+00 0.51147118E+02</pdfrwt>
<pdfrwt beam="1">  1        1 0.23134102E+00 0.21860892E+03</pdfrwt>
<totfact> 0.19142532E+01</totfact>
</mgrwt>
</event>
<event>
 5    1  0.9399923E-003  0.5574199E+02  0.7546771E-02  0.1477171E+00
          1   -1    0    0  501    0 -0.00000000000E+00  0.00000000000E+00  0.94213829687E+03  0.94213829687E+03  0.00000000000E+00 0. -1.
          2   -1    0    0  502    0  0.00000000000E+00 -0.00000000000E+00 -0.37431219490E+03  0.37431219490E+03  0.00000000000E+00 0. -1.
         25    1    1    2    0    0 -0.54452487201E+02 -0.30377767323E+02  0.26232536741E+03  0.29719939518E+03  0.12500000000E+03 0.  0.
          2    1    1    2  501    0  0.55746749435E+02 -0.52036843118E+01  0.66030014102E+03  0.66266964216E+03  0.00000000000E+00 0. -1.
          1    1    1    2  502    0 -0.12942622345E+01  0.35581451635E+02 -0.35479940646E+03  0.35658145443E+03  0.00000000000E+00 0. -1.
<mgrwt>
<rscale>  0 0.44549888E+02</rscale>
<asrwt>0</asrwt>
<pdfrwt beam="2">  1        2 0.57586492E-01 0.35604983E+02</pdfrwt>
<pdfrwt beam="1">  1        1 0.14494435E+00 0.55741989E+02</pdfrwt>
<totfact> 0.22903755E+02</totfact>
</mgrwt>
</event>
<event>
 5    1  0.9399923E-003  0.2351440E+03  0.7546771E-02  0.1321414E+00
          1   -1    0    0  501    0 -0.00000000000E+00  0.00000000000E+00  0.85148364328E+03  0.85148364328E+03  0.00000000000E+00 0. -1.
          2   -1    0    0  502    0  0.00000000000E+00 -0.00000000000E+00 -0.68226883776E+03  0.68226883776E+03  0.00000000000E+00 0. -1.
         25    1    1    2    0    0 -0.17334922748E+03  0.17434502296E+03 -0.29008332376E+02  0.27733125508E+03  0.12500000000E+03 0.  0.
          2    1    1    2  501    0 -0.81512360423E+01 -0.27959159535E+02  0.70131480160E+03  0.70191923196E+03  0.00000000000E+00 0. -1.
          1    1    1    2  502    0  0.18150046352E+03 -0.14638586342E+03 -0.50309166370E+03  0.55450199400E+03  0.00000000000E+00 0. -1.
<mgrwt>
<rscale>  0 0.82753432E+02</rscale>
<asrwt>0</asrwt>
<pdfrwt beam="2">  1        2 0.10496444E+00 0.23514396E+03</pdfrwt>
<pdfrwt beam="1">  1        1 0.13099748E+00 0.29123139E+02</pdfrwt>
<totfact> 0.14052179E+02</totfact>
</mgrwt>
</event>
<event>
 5    1  0.9399923E-003  0.8654914E+02  0.7546771E-02  0.1407848E+00
         -2   -1    0    0    0  501 -0.00000000000E+00  0.00000000000E+00  0.40716785919E+02  0.40716785919E+02  0.00000000000E+00 0.  1.
          2   -1    0    0  502    0  0.00000000000E+00 -0.00000000000E+00 -0.11632272771E+04  0.11632272771E+04  0.00000000000E+00 0. -1.
         25    1    1    2    0    0  0.64404759076E+02  0.76455338587E+02 -0.24863837072E+03  0.29570159144E+03  0.12500000000E+03 0.  0.
          1    1    1    2  502    0 -0.38341611844E+02  0.26936494172E+01 -0.78673780991E+03  0.78767614950E+03  0.00000000000E+00 0. -1.
         -1    1    1    2    0  501 -0.26063147232E+02 -0.79148988004E+02 -0.87134310586E+02  0.12056632211E+03  0.00000000000E+00 0.  1.
<mgrwt>
<rscale>  0 0.57676794E+02</rscale>
<asrwt>0</asrwt>
<pdfrwt beam="2">  1        2 0.17895805E+00 0.38436115E+02</pdfrwt>
<pdfrwt beam="1">  1       -2 0.62641208E-02 0.86549136E+02</pdfrwt>
<totfact> 0.29958686E+03</totfact>
</mgrwt>
</event>
<event>
 5    1  0.9399923E-003  0.3081340E+02  0.7546771E-02  0.1654298E+00
          1   -1    0    0  501    0 -0.00000000000E+00  0.00000000000E+00  0.11493538169E+04  0.11493538169E+04  0.00000000000E+00 0. -1.
          2   -1    0    0  502    0  0.00000000000E+00 -0.00000000000E+00 -0.10745528768E+02  0.10745528768E+02  0.00000000000E+00 0. -1.
         25    1    1    2    0    0  0.46484783332E+02  0.14863911235E+02  0.78318555486E+03  0.79459825338E+03  0.12500000000E+03 0.  0.
          2    1    1    2  501    0 -0.16750888803E+02 -0.12761637423E+02  0.31269494695E+03  0.31340322512E+03  0.00000000000E+00 0. -1.
          1    1    1    2  502    0 -0.29733894529E+02 -0.21022738122E+01  0.42727786301E+02  0.52097867146E+02  0.00000000000E+00 0. -1.
<mgrwt>
<rscale>  0 0.25473076E+02</rscale>
<asrwt>0</asrwt>
<pdfrwt beam="2">  1        2 0.16531592E-02 0.30813400E+02</pdfrwt>
<pdfrwt beam="1">  1        1 0.17682357E+00 0.21058292E+02</pdfrwt>
<totfact> 0.10806067E+04</totfact>
</mgrwt>
</event>
<event>
 5    1  0.9399923E-003  0.5315589E+02  0.7546771E-02  0.1465931E+00
          2   -1    0    0  502    0  0.00000000000E+00  0.00000000000E+00  0.71735276656E+03  0.71735276656E+03  0.00000000000E+00 0. -1.
          1   -1    0    0  501    0 -0.00000000000E+00 -0.00000000000E+00 -0.89119996768E+03  0.89119996768E+03  0.00000000000E+00 0. -1.
         25    1    1    2    0    0 -0.84383990805E+02 -0.21136974861E+02 -0.11486629355E+03  0.19075296853E+03  0.12500000000E+03 0.  0.
          2    1    1    2  501    0  0.52306536369E+02 -0.35223435880E+01 -0.73685583997E+03  0.73871842372E+03  0.00000000000E+00 0. -1.
          1    1    1    2  502    0  0.32077454435E+02  0.24659318449E+02  0.67787493239E+03  0.67908134199E+03  0.00000000000E+00 0. -1.
<mgrwt>
<rscale>  0 0.46375743E+02</rscale>
<asrwt>0</asrwt>
<pdfrwt beam="1">  1        2 0.11036196E+00 0.40460414E+02</pdfrwt>
<pdfrwt beam="2">  1        1 0.13710769E+00 0.53155895E+02</pdfrwt>
<totfact> 0.12607130E+02</totfact>
</mgrwt>
</event>
<event>
 5    1  0.9399923E-003  0.2550372E+03  0.7546771E-02  0.1294788E+00
          1   -1    0    0  501    0 -0.00000000000E+00  0.00000000000E+00  0.12914760942E+04  0.12914760942E+04  0.00000000000E+00 0. -1.
          2   -1    0    0  502    0  0.00000000000E+00 -0.00000000000E+00 -0.81358493624E+03  0.81358493624E+03  0.00000000000E+00 0. -1.
         25    1    1    2    0    0  0.19177437561E+03  0.12826898614E+03  0.10992276970E+03  0.28449667703E+03  0.12500000000E+03 0.  0.
          2    1    1    2  501    0 -0.22597928573E+03 -0.12741485057E+03  0.10784730269E+04  0.11092363371E+04  0.00000000000E+00 0. -1.
          1    1    1    2  502    0  0.34204910120E+02 -0.85413557555E+00 -0.71050463860E+03  0.71132801638E+03  0.00000000000E+00 0. -1.
<mgrwt>
<rscale>  0 0.93414374E+02</rscale>
<asrwt>0</asrwt>
<pdfrwt beam="2">  1        2 0.12516691E+00 0.34215573E+02</pdfrwt>
<pdfrwt beam="1">  1        1 0.19868863E+00 0.25503724E+03</pdfrwt>
<totfact> 0.51432460E+01</totfact>
</mgrwt>
</event>
<event>
 5    1  0.9399923E-003  0.7595587E+02  0.7546771E-02  0.1391774E+00
          1   -1    0    0  501    0 -0.00000000000E+00  0.00000000000E+00  0.13158091615E+04  0.13158091615E+04  0.00000000000E+00 0. -1.
          2   -1    0    0  502    0  0.00000000000E+00 -0.00000000000E+00 -0.87625765467E+03  0.87625765467E+03  0.00000000000E+00 0. -1.
         25    1    1    2    0    0 -0.77799619807E+02  0.54084686200E+02  0.26212054888E+03  0.30546704612E+03  0.12500000000E+03 0.  0.
          2    1    1    2  501    0  0.30408071576E+02 -0.69197009469E+02  0.10299054600E+04  0.10326752313E+04  0.00000000000E+00 0. -1.
          1    1    1    2  502    0  0.47391548231E+02  0.15112323269E+02 -0.85247450204E+03  0.85392453869E+03  0.00000000000E+00 0. -1.
<mgrwt>
<rscale>  0 0.61467500E+02</rscale>
<asrwt>0</asrwt>
<pdfrwt beam="2">  1        2 0.13480887E+00 0.49742750E+02</pdfrwt>
<pdfrwt beam="1">  1        1 0.20243218E+00 0.75955865E+02</pdfrwt>
<totfact> 0.49223240E+01</totfact>
</mgrwt>
</event>
<event>
 5    1  0.9399923E-003  0.1087174E+03  0.7546771E-02  0.1367769E+00
          1   -1    0    0  501    0 -0.00000000000E+00  0.00000000000E+00  0.28791295636E+04  0.28791295636E+04  0.00000000000E+00 0. -1.
          2   -1    0    0  502    0  0.00000000000E+00 -0.00000000000E+00 -0.47040594741E+02  0.47040594741E+02  0.00000000000E+00 0. -1.
         25    1    1    2    0    0 -0.83775728125E+02 -0.10057961807E+03  0.37502330453E+03  0.41641579117E+03  0.12500000000E+03 0.  0.
          2    1    1    2  501    0  0.90300230493E+02  0.58814388723E+02  0.24644819475E+04  0.24668369491E+04  0.00000000000E+00 0. -1.
          1    1    1    2  502    0 -0.65245023680E+01  0.41765229348E+02 -0.74162832040E+01  0.42917418028E+02  0.00000000000E+00 0. -1.
<mgrwt>
<rscale>  0 0.67791434E+02</rscale>
<asrwt>0</asrwt>
<pdfrwt beam="2">  1        2 0.72370168E-02 0.42271782E+02</pdfrwt>
<pdfrwt beam="1">  1        1 0.44294287E+00 0.10871741E+03</pdfrwt>
<totfact> 0.11561656E+02</totfact>
</mgrwt>
</event>
<event>
 5    1  0.9399923E-003  0.1381600E+03  0.7546771E-02  0.1284672E+00
          1   -1    0    0  501    0 -0.00000000000E+00  0.00000000000E+00  0.99500696935E+03  0.99500696935E+03  0.00000000000E+00 0. -1.
          2   -1    0    0  502    0  0.00000000000E+00 -0.00000000000E+00 -0.50517668754E+03  0.50517668754E+03  0.00000000000E+00 0. -1.
         25    1    1    2    0    0  0.96500668179E+02 -0.44483458056E+02 -0.71723659540E+02  0.17905429438E+03  0.12500000000E+03 0.  0.
          2    1    1    2  501    0  0.52700812469E+02  0.45215923929E+02  0.92533639495E+03  0.92793819795E+03  0.00000000000E+00 0. -1.
          1    1    1    2  502    0 -0.14920148065E+03 -0.73246587288E+00 -0.36378245360E+03  0.39319116455E+03  0.00000000000E+00 0. -1.
<mgrwt>
<rscale>  0 0.97947801E+02</rscale>
<asrwt>0</asrwt>
<pdfrwt beam="2">  1        2 0.77719490E-01 0.13815999E+03</pdfrwt>
<pdfrwt beam="1">  1        1 0.15307800E+00 0.69439581E+02</pdfrwt>
<totfact> 0.14971932E+02</totfact>
</mgrwt>
</event>
<event>
 5    1  0.9399923E-003  0.2144964E+03  0.7546771E-02  0.1301713E+00
          2   -1    0    0  502    0  0.00000000000E+00  0.00000000000E+00  0.14724383418E+04  0.14724383418E+04  0.00000000000E+00 0. -1.
          1   -1    0    0  501    0 -0.00000000000E+00 -0.00000000000E+00 -0.18774190283E+03  0.18774190283E+03  0.00000000000E+00 0. -1.
         25    1    1    2    0    0 -0.23189627602E+03 -0.26503210631E+02  0.85418578058E+03  0.89427996217E+03  0.12500000000E+03 0.  0.
          2    1    1    2  501    0  0.21309555946E+03 -0.67039313878E+01 -0.98965565351E+02  0.23505072492E+03  0.00000000000E+00 0. -1.
          1    1    1    2  502    0  0.18800716559E+02  0.33207142019E+02  0.52947622376E+03  0.53084955755E+03  0.00000000000E+00 0. -1.
<mgrwt>
<rscale>  0 0.90471932E+02</rscale>
<asrwt>0</asrwt>
<pdfrwt beam="1">  1        2 0.22652897E+00 0.38159943E+02</pdfrwt>
<pdfrwt beam="2">  1        1 0.28883371E-01 0.21449640E+03</pdfrwt>
<totfact> 0.35682017E+02</totfact>
</mgrwt>
</event>
<event>
 5    1  0.9399923E-003  0.1444080E+03  0.7546771E-02  0.1296747E+00
          1   -1    0    0  501    0 -0.00000000000E+00  0.00000000000E+00  0.59641533480E+03  0.59641533480E+03  0.00000000000E+00 0. -1.
          2   -1    0    0  502    0  0.00000000000E+00 -0.00000000000E+00 -0.46359686873E+03  0.46359686873E+03  0.00000000000E+00 0. -1.
         25    1    1    2    0    0  0.11161146103E+03 -0.45862830829E+02  0.12028661874E+03  0.21131584922E+03  0.12500000000E+03 0.  0.
          2    1    1    2  501    0 -0.15348657151E+03  0.38200240408E+01  0.41468188206E+03  0.44219202110E+03  0.00000000000E+00 0. -1.
          1    1    1    2  502    0  0.41875110472E+02  0.42042806788E+02 -0.40215003473E+03  0.40650433320E+03  0.00000000000E+00 0. -1.
<mgrwt>
<rscale>  0 0.92569084E+02</rscale>
<asrwt>0</asrwt>
<pdfrwt beam="2">  1        2 0.71322595E-01 0.59339047E+02</pdfrwt>
<pdfrwt beam="1">  1        1 0.91756206E-01 0.14440804E+03</pdfrwt>
<totfact> 0.34101463E+02</totfact>
</mgrwt>
</event>
<event>
 5    1  0.9399923E-003  0.9877076E+02  0.7546771E-02  0.1374836E+00
          1   -1    0    0  501    0 -0.00000000000E+00  0.00000000000E+00  0.48858774286E+03  0.48858774286E+03  0.00000000000E+00 0. -1.
          2   -1    0    0  502    0  0.00000000000E+00 -0.00000000000E+00 -0.14760067131E+04  0.14760067131E+04  0.00000000000E+00 0. -1.
         25    1    1    2    0    0  0.27655405769E+00  0.86488495288E+02  0.12214904858E+03  0.19500186248E+03  0.12500000000E+03 0.  0.
          2    1    1    2  501    0 -0.43636566379E+02 -0.93286226053E+02  0.32163277908E+03  0.33771898743E+03  0.00000000000E+00 0. -1.
          1    1    1    2  502    0  0.43360012321E+02  0.67977307648E+01 -0.14312007979E+04  0.14318736060E+04  0.00000000000E+00 0. -1.
<mgrwt>
<rscale>  0 0.65840810E+02</rscale>
<asrwt>0</asrwt>
<pdfrwt beam="2">  1        2 0.22707795E+00 0.43889632E+02</pdfrwt>
<pdfrwt beam="1">  1        1 0.75167346E-01 0.98770758E+02</pdfrwt>
<totfact> 0.10630470E+02</totfact>
</mgrwt>
</event>
<event>
 5    1  0.9399923E-003  0.5951522E+02  0.7546771E-02  0.1476569E+00
          2   -1    0    0  502    0  0.00000000000E+00  0.00000000000E+00  0.57376135225E+03  0.57376135225E+03  0.00000000000E+00 0. -1.
          1   -1    0    0  501    0 -0.00000000000E+00 -0.00000000000E+00 -0.61610873742E+02  0.61610873742E+02  0.00000000000E+00 0. -1.
         25    1    1    2    0    0 -0.44130951278E+02 -0.72922880138E+02  0.16295285192E+03  0.22235988680E+03  0.12500000000E+03 0.  0.
          2    1    1    2  501    0  0.28718813254E+02  0.17228899935E+02 -0.20207547352E+02  0.39114577816E+02  0.00000000000E+00 0. -1.
          1    1    1    2  502    0  0.15412138024E+02  0.55693980203E+02  0.36940517394E+03  0.37389776138E+03  0.00000000000E+00 0. -1.
<mgrwt>
<rscale>  0 0.44645123E+02</rscale>
<asrwt>0</asrwt>
<pdfrwt beam="1">  1        2 0.88270974E-01 0.59515220E+02</pdfrwt>
<pdfrwt beam="2">  1        1 0.94785963E-02 0.33490375E+02</pdfrwt>
<totfact> 0.44416069E+03</totfact>
</mgrwt>
</event>
<event>
 5    1  0.9399923E-003  0.1065714E+03  0.7546771E-02  0.1405919E+00
          2   -1    0    0  502    0  0.00000000000E+00  0.00000000000E+00  0.11751364067E+04  0.11751364067E+04  0.00000000000E+00 0. -1.
         -2   -1    0    0    0  501 -0.00000000000E+00 -0.00000000000E+00 -0.95258999380E+02  0.95258999380E+02  0.00000000000E+00 0.  1.
         25    1    1    2    0    0 -0.32579905179E+02  0.12816750358E+03  0.58558235783E+03  0.61320474313E+03  0.12500000000E+03 0.  0.
          1    1    1    2  502    0  0.21133516567E+02 -0.23614732571E+02  0.54112972368E+03  0.54205687798E+03  0.00000000000E+00 0. -1.
         -1    1    1    2    0  501  0.11446388613E+02 -0.10455277101E+03 -0.46834674180E+02  0.11513378498E+03  0.00000000000E+00 0.  1.
<mgrwt>
<rscale>  0 0.58114458E+02</rscale>
<asrwt>0</asrwt>
<pdfrwt beam="1">  1        2 0.18079021E+00 0.31690395E+02</pdfrwt>
<pdfrwt beam="2">  1       -2 0.14655232E-01 0.10657142E+03</pdfrwt>
<totfact> 0.80950921E+02</totfact>
</mgrwt>
</event>
<event>
 5    1  0.9399923E-003  0.7708762E+02  0.7546771E-02  0.1485198E+00
          2   -1    0    0  502    0  0.00000000000E+00  0.00000000000E+00  0.19267560971E+03  0.19267560971E+03  0.00000000000E+00 0. -1.
          1   -1    0    0  501    0 -0.00000000000E+00 -0.00000000000E+00 -0.24371638001E+04  0.24371638001E+04  0.00000000000E+00 0. -1.
         25    1    1    2    0    0 -0.46649038534E+02 -0.83009800909E+02 -0.60041982363E+03  0.62064138152E+03  0.12500000000E+03 0.  0.
          2    1    1    2  501    0  0.25241562833E+02  0.71450104232E+02 -0.18250328914E+04  0.18266054058E+04  0.00000000000E+00 0. -1.
          1    1    1    2  502    0  0.21407475701E+02  0.11559696677E+02  0.18096452464E+03  0.18259262247E+03  0.00000000000E+00 0. -1.
<mgrwt>
<rscale>  0 0.43306753E+02</rscale>
<asrwt>0</asrwt>
<pdfrwt beam="1">  1        2 0.29642401E-01 0.24329131E+02</pdfrwt>
<pdfrwt beam="2">  1        1 0.37494829E+00 0.77087622E+02</pdfrwt>
<totfact> 0.47369784E+01</totfact>
</mgrwt>
</event>
<event>
 5    1  0.9399923E-003  0.1386574E+03  0.7546771E-02  0.1316650E+00
          1   -1    0    0  501    0 -0.00000000000E+00  0.00000000000E+00  0.90830504971E+03  0.90830504971E+03  0.00000000000E+00 0. -1.
          2   -1    0    0  502    0  0.00000000000E+00 -0.00000000000E+00 -0.80873460302E+03  0.80873460302E+03  0.00000000000E+00 0. -1.
         25    1    1    2    0    0 -0.88257206543E+02 -0.19396376474E+02 -0.24408235541E+03  0.28873300842E+03  0.12500000000E+03 0.  0.
          2    1    1    2  501    0  0.13120935213E+03  0.47882144227E+02  0.87923013972E+03  0.89025515018E+03  0.00000000000E+00 0. -1.
          1    1    1    2  502    0 -0.42952145592E+02 -0.28485767753E+02 -0.53557733761E+03  0.53805149413E+03  0.00000000000E+00 0. -1.
<mgrwt>
<rscale>  0 0.84536042E+02</rscale>
<asrwt>0</asrwt>
<pdfrwt beam="2">  1        2 0.12442071E+00 0.51539555E+02</pdfrwt>
<pdfrwt beam="1">  1        1 0.13973924E+00 0.13865743E+03</pdfrwt>
<totfact> 0.99942039E+01</totfact>
</mgrwt>
</event>
<event>
 5    1  0.9399923E-003  0.3015103E+02  0.7546771E-02  0.1644805E+00
          2   -1    0    0  502    0  0.00000000000E+00  0.00000000000E+00  0.18060988387E+04  0.18060988387E+04  0.00000000000E+00 0. -1.
          1   -1    0    0  501    0 -0.00000000000E+00 -0.00000000000E+00 -0.58963020943E+03  0.58963020943E+03  0.00000000000E+00 0. -1.
         25    1    1    2    0    0  0.10296231021E+02  0.48377486844E+02  0.70987324245E+02  0.15202168862E+03  0.12500000000E+03 0.  0.
          2    1    1    2  501    0 -0.13264952208E+02 -0.18429263207E+02 -0.54874459345E+03  0.54921418913E+03  0.00000000000E+00 0. -1.
          1    1    1    2  502    0  0.29687211877E+01 -0.29948223637E+02  0.16942258985E+04  0.16944931704E+04  0.00000000000E+00 0. -1.
<mgrwt>
<rscale>  0 0.26165476E+02</rscale>
<asrwt>0</asrwt>
<pdfrwt beam="1">  1        2 0.27786136E+00 0.30151034E+02</pdfrwt>
<pdfrwt beam="2">  1        1 0.90712340E-01 0.22706754E+02</pdfrwt>
<totfact> 0.62716878E+01</totfact>
</mgrwt>
</event>
<event>
 5    1  0.9399923E-003  0.2032481E+03  0.7546771E-02  0.1232214E+00
         -2   -1    0    0    0  501 -0.00000000000E+00  0.00000000000E+00  0.78487621523E+03  0.78487621523E+03  0.00000000000E+00 0.  1.
          2   -1    0    0  502    0  0.00000000000E+00 -0.00000000000E+00 -0.26939895064E+03  0.26939895064E+03  0.00000000000E+00 0. -1.
         25    1    1    2    0    0 -0.11920643322E+03  0.80660473087E+02  0.29695143773E+03  0.35287595839E+03  0.12500000000E+03 0.  0.
          1    1    1    2  502    0  0.19824615569E+03 -0.76258237486E+02 -0.19017499654E+03  0.28510241377E+03  0.00000000000E+00 0. -1.
         -1    1    1    2    0  501 -0.79039722468E+02 -0.44022356009E+01  0.40870082340E+03  0.41629679372E+03  0.00000000000E+00 0.  1.
<mgrwt>
<rscale>  0 0.12684467E+03</rscale>
<asrwt>0</asrwt>
<pdfrwt beam="2">  1        2 0.41445993E-01 0.20324808E+03</pdfrwt>
<pdfrwt beam="1">  1       -2 0.12075019E+00 0.79162222E+02</pdfrwt>
<totfact> 0.70843656E+01</totfact>
</mgrwt>
</event>
<event>
 5    1  0.9399923E-003  0.3184607E+03  0.7546771E-02  0.1076360E+00
          2   -1    0    0  502    0  0.00000000000E+00  0.00000000000E+00  0.36493258480E+04  0.36493258480E+04  0.00000000000E+00 0. -1.
         -2   -1    0    0    0  501 -0.00000000000E+00 -0.00000000000E+00 -0.69476697424E+01  0.69476697424E+01  0.00000000000E+00 0.  1.
         25    1    1    2    0    0  0.21580823478E+02 -0.12280120957E+03  0.16469300301E+04  0.16563663221E+04  0.12500000000E+03 0.  0.
          1    1    1    2  502    0 -0.20414587724E+02  0.15663645352E+02  0.46690498376E+03  0.46761348253E+03  0.00000000000E+00 0. -1.
         -1    1    1    2    0  501 -0.11662357546E+01  0.10713756421E+03  0.15285431644E+04  0.15322937131E+04  0.00000000000E+00 0.  1.
<mgrwt>
<rscale>  0 0.31846074E+03</rscale>
<asrwt>0</asrwt>
<pdfrwt beam="1">  1        2 0.56143322E+00 0.31846074E+03</pdfrwt>
<pdfrwt beam="2">  1       -2 0.10688752E-02 0.31846074E+03</pdfrwt>
<totfact> 0.15440566E+03</totfact>
</mgrwt>
</event>
<event>
 5    1  0.9399923E-003  0.1091211E+03  0.7546771E-02  0.1425775E+00
         -2   -1    0    0    0  501 -0.00000000000E+00  0.00000000000E+00  0.10765425736E+03  0.10765425736E+03  0.00000000000E+00 0.  1.
          2   -1    0    0  502    0  0.00000000000E+00 -0.00000000000E+00 -0.93603674077E+03  0.93603674077E+03  0.00000000000E+00 0. -1.
         25    1    1    2    0    0  0.12644531645E+03 -0.18625649239E+01 -0.53940621191E+02  0.18581301842E+03  0.12500000000E+03 0.  0.
          1    1    1    2  502    0 -0.10703527123E+03 -0.16241263044E+02 -0.80792761220E+03  0.81514867016E+03  0.00000000000E+00 0. -1.
         -1    1    1    2    0  501 -0.19410045222E+02  0.18103827968E+02  0.33485749985E+02  0.42729309550E+02  0.00000000000E+00 0.  1.
<mgrwt>
<rscale>  0 0.53817603E+02</rscale>
<asrwt>0</asrwt>
<pdfrwt beam="2">  1        2 0.14400566E+00 0.10912108E+03</pdfrwt>
<pdfrwt beam="1">  1       -2 0.16562193E-01 0.26542390E+02</pdfrwt>
<totfact> 0.77656253E+02</totfact>
</mgrwt>
</event>
<event>
 5    1  0.9399923E-003  0.1572533E+03  0.7546771E-02  0.1294943E+00
          2   -1    0    0  502    0  0.00000000000E+00  0.00000000000E+00  0.48991012505E+02  0.48991012505E+02  0.00000000000E+00 0. -1.
          1   -1    0    0  501    0 -0.00000000000E+00 -0.00000000000E+00 -0.25913524043E+04  0.25913524043E+04  0.00000000000E+00 0. -1.
         25    1    1    2    0    0  0.12569060106E+03 -0.11591759306E+03 -0.10946960204E+04  0.11149974855E+04  0.12500000000E+03 0.  0.
          2    1    1    2  501    0  0.17344370045E+02  0.52627181070E+02 -0.13260759619E+04  0.13272331763E+04  0.00000000000E+00 0. -1.
          1    1    1    2  502    0 -0.14303497111E+03  0.63290411995E+02 -0.12158940940E+03  0.19811275498E+03  0.00000000000E+00 0. -1.
<mgrwt>
<rscale>  0 0.93346974E+02</rscale>
<asrwt>0</asrwt>
<pdfrwt beam="1">  1        2 0.75370757E-02 0.15725326E+03</pdfrwt>
<pdfrwt beam="2">  1        1 0.39866977E+00 0.55411618E+02</pdfrwt>
<totfact> 0.21013396E+02</totfact>
</mgrwt>
</event>
<event>
 5    1  0.9399923E-003  0.1082446E+03  0.7546771E-02  0.1354502E+00
          1   -1    0    0  501    0 -0.00000000000E+00  0.00000000000E+00  0.20280105223E+04  0.20280105223E+04  0.00000000000E+00 0. -1.
          2   -1    0    0  502    0  0.00000000000E+00 -0.00000000000E+00 -0.37881466449E+02  0.37881466449E+02  0.00000000000E+00 0. -1.
         25    1    1    2    0    0 -0.28024936707E+02 -0.14167700906E+03  0.80376295141E+03  0.82614626673E+03  0.12500000000E+03 0.  0.
          2    1    1    2  501    0  0.28822514668E+02  0.37698636122E+02  0.11093105649E+04  0.11103251118E+04  0.00000000000E+00 0. -1.
          1    1    1    2  502    0 -0.79757796100E+00  0.10397837294E+03  0.77055539509E+02  0.12942061018E+03  0.00000000000E+00 0. -1.
<mgrwt>
<rscale>  0 0.71670701E+02</rscale>
<asrwt>0</asrwt>
<pdfrwt beam="2">  1        2 0.58279195E-02 0.10824464E+03</pdfrwt>
<pdfrwt beam="1">  1        1 0.31200153E+00 0.47454447E+02</pdfrwt>
<totfact> 0.65195410E+02</totfact>
</mgrwt>
</event>
<event>
 5    1  0.9399923E-003  0.1020826E+03  0.7546771E-02  0.1339373E+00
          2   -1    0    0  502    0  0.00000000000E+00  0.00000000000E+00  0.10344185515E+04  0.10344185515E+04  0.00000000000E+00 0. -1.
         -2   -1    0    0    0  501 -0.00000000000E+00 -0.00000000000E+00 -0.22994173481E+03  0.22994173481E+03  0.00000000000E+00 0.  1.
         25    1    1    2    0    0  0.58285267733E+02  0.12975245705E+03  0.86851739632E+02  0.20832929996E+03  0.12500000000E+03 0.  0.
          1    1    1    2  502    0  0.81582650566E+01 -0.56702575208E+02  0.87139970770E+03  0.87328070510E+03  0.00000000000E+00 0. -1.
         -1    1    1    2    0  501 -0.66443532789E+02 -0.73049881841E+02 -0.15377463061E+03  0.18275028127E+03  0.00000000000E+00 0.  1.
<mgrwt>
<rscale>  0 0.76471890E+02</rscale>
<asrwt>0</asrwt>
<pdfrwt beam="1">  1        2 0.15914131E+00 0.57286467E+02</pdfrwt>
<pdfrwt beam="2">  1       -2 0.35375652E-01 0.10208257E+03</pdfrwt>
<totfact> 0.20425300E+02</totfact>
</mgrwt>
</event>
<event>
 5    1  0.9399923E-003  0.1470807E+03  0.7546771E-02  0.1336995E+00
         -2   -1    0    0    0  501 -0.00000000000E+00  0.00000000000E+00  0.15369808787E+03  0.15369808787E+03  0.00000000000E+00 0.  1.
          2   -1    0    0  502    0  0.00000000000E+00 -0.00000000000E+00 -0.15038199425E+04  0.15038199425E+04  0.00000000000E+00 0. -1.
         25    1    1    2    0    0  0.90272909542E+02  0.10438999283E+03 -0.10362034290E+04  0.10528005581E+04  0.12500000000E+03 0.  0.
          1    1    1    2  502    0  0.33138637788E+02 -0.23438840125E+02 -0.42063309367E+03  0.42258697096E+03  0.00000000000E+00 0. -1.
         -1    1    1    2    0  501 -0.12341154733E+03 -0.80951152708E+02  0.10671466804E+03  0.18213050133E+03  0.00000000000E+00 0.  1.
<mgrwt>
<rscale>  0 0.77265811E+02</rscale>
<asrwt>0</asrwt>
<pdfrwt beam="2">  1        2 0.23135690E+00 0.40590005E+02</pdfrwt>
<pdfrwt beam="1">  1       -2 0.23645861E-01 0.14708068E+03</pdfrwt>
<totfact> 0.24711067E+02</totfact>
</mgrwt>
</event>
<event>
 5    1  0.9399923E-003  0.6157435E+02  0.7546771E-02  0.1423810E+00
          1   -1    0    0  501    0 -0.00000000000E+00  0.00000000000E+00  0.77405325593E+02  0.77405325593E+02  0.00000000000E+00 0. -1.
          2   -1    0    0  502    0  0.00000000000E+00 -0.00000000000E+00 -0.20284673977E+04  0.20284673977E+04  0.00000000000E+00 0. -1.
         25    1    1    2    0    0  0.27972193410E+02 -0.17828323133E+02 -0.16691343852E+04  0.16741370579E+04  0.12500000000E+03 0.  0.
          2    1    1    2  501    0 -0.82866877872E+01  0.61330817957E+02  0.60172976212E+02  0.86318743572E+02  0.00000000000E+00 0. -1.
          1    1    1    2  502    0 -0.19685505623E+02 -0.43502494823E+02 -0.34210066311E+03  0.34541692184E+03  0.00000000000E+00 0. -1.
<mgrwt>
<rscale>  0 0.54222929E+02</rscale>
<asrwt>0</asrwt>
<pdfrwt beam="2">  1        2 0.31207189E+00 0.47749201E+02</pdfrwt>
<pdfrwt beam="1">  1        1 0.11908512E-01 0.61574352E+02</pdfrwt>
<totfact> 0.55283250E+02</totfact>
</mgrwt>
</event>
<event>
 5    1  0.9399923E-003  0.4871949E+02  0.7546771E-02  0.1575867E+00
          2   -1    0    0  502    0  0.00000000000E+00  0.00000000000E+00  0.77110406576E+03  0.77110406576E+03  0.00000000000E+00 0. -1.
          1   -1    0    0  501    0 -0.00000000000E+00 -0.00000000000E+00 -0.26241354021E+03  0.26241354021E+03  0.00000000000E+00 0. -1.
         25    1    1    2    0    0  0.31437650586E+02 -0.73828151898E+01  0.47794207434E+03  0.49507217480E+03  0.12500000000E+03 0.  0.
          2    1    1    2  501    0 -0.41206541513E+02  0.26157014699E+02 -0.25110203600E+03  0.25580148742E+03  0.00000000000E+00 0. -1.
          1    1    1    2  502    0  0.97688909267E+01 -0.18774199509E+02  0.28185048722E+03  0.28264394375E+03  0.00000000000E+00 0. -1.
<mgrwt>
<rscale>  0 0.32110499E+02</rscale>
<asrwt>0</asrwt>
<pdfrwt beam="1">  1        2 0.11863139E+00 0.21163691E+02</pdfrwt>
<pdfrwt beam="2">  1        1 0.40371314E-01 0.48719486E+02</pdfrwt>
<totfact> 0.57056139E+02</totfact>
</mgrwt>
</event>
<event>
 5    1  0.9399923E-003  0.9771473E+02  0.7546771E-02  0.1303458E+00
         -1   -1    0    0    0  501 -0.00000000000E+00  0.00000000000E+00  0.75789527212E+02  0.75789527212E+02  0.00000000000E+00 0.  1.
          1   -1    0    0  502    0  0.00000000000E+00 -0.00000000000E+00 -0.55839615788E+03  0.55839615788E+03  0.00000000000E+00 0. -1.
         25    1    1    2    0    0  0.97580800050E+02  0.68724463481E+02 -0.19646804446E+03  0.26166726374E+03  0.12500000000E+03 0.  0.
          2    1    1    2  502    0 -0.77608274102E+02  0.27793345477E+02 -0.25676272109E+03  0.26967129844E+03  0.00000000000E+00 0. -1.
         -2    1    1    2    0  501 -0.19972525948E+02 -0.96517808959E+02 -0.29375865116E+02  0.10284712291E+03  0.00000000000E+00 0.  1.
<mgrwt>
<rscale>  0 0.89750238E+02</rscale>
<asrwt>0</asrwt>
<pdfrwt beam="2">  1        1 0.85907098E-01 0.82434909E+02</pdfrwt>
<pdfrwt beam="1">  1       -1 0.11659928E-01 0.97714735E+02</pdfrwt>
<totfact> 0.18279061E+03</totfact>
</mgrwt>
</event>
<event>
 5    1  0.9399923E-003  0.1307647E+03  0.7546771E-02  0.1412365E+00
         -2   -1    0    0    0  501 -0.00000000000E+00  0.00000000000E+00  0.18972656606E+02  0.18972656606E+02  0.00000000000E+00 0.  1.
          2   -1    0    0  502    0  0.00000000000E+00 -0.00000000000E+00 -0.15160987736E+04  0.15160987736E+04  0.00000000000E+00 0. -1.
         25    1    1    2    0    0  0.12996709875E+03 -0.26831804934E+01 -0.86602699224E+03  0.88460522128E+03  0.12500000000E+03 0.  0.
          1    1    1    2  502    0 -0.13072845345E+03 -0.21863725621E+02 -0.51351642402E+03  0.53034617824E+03  0.00000000000E+00 0. -1.
         -1    1    1    2    0  501  0.76135470299E+00  0.24546906114E+02 -0.11758270071E+03  0.12012003066E+03  0.00000000000E+00 0.  1.
<mgrwt>
<rscale>  0 0.56669327E+02</rscale>
<asrwt>0</asrwt>
<pdfrwt beam="2">  1        2 0.23324601E+00 0.13076471E+03</pdfrwt>
<pdfrwt beam="1">  1       -2 0.29188697E-02 0.24558710E+02</pdfrwt>
<totfact> 0.46204418E+03</totfact>
</mgrwt>
</event>
<event>
 5    1  0.9399923E-003  0.4593802E+02  0.7546771E-02  0.1499380E+00
          1   -1    0    0  501    0 -0.00000000000E+00  0.00000000000E+00  0.38112408140E+03  0.38112408140E+03  0.00000000000E+00 0. -1.
          2   -1    0    0  502    0  0.00000000000E+00 -0.00000000000E+00 -0.22652006948E+04  0.22652006948E+04  0.00000000000E+00 0. -1.
         25    1    1    2    0    0  0.47751177731E+01  0.12867742156E+01 -0.16357039576E+04  0.16404806900E+04  0.12500000000E+03 0.  0.
          2    1    1    2  501    0  0.43754567744E+02  0.13994255213E+02  0.37630463138E+03  0.37909824185E+03  0.00000000000E+00 0. -1.
          3    1    1    2  502    0 -0.48529685517E+02 -0.15281029429E+02 -0.62467728724E+03  0.62674584437E+03  0.00000000000E+00 0. -1.
<mgrwt>
<rscale>  0 0.41225830E+02</rscale>
<asrwt>0</asrwt>
<pdfrwt beam="2">  1        2 0.34849242E+00 0.36997006E+02</pdfrwt>
<pdfrwt beam="1">  1        1 0.58634474E-01 0.45938017E+02</pdfrwt>
<totfact> 0.61942790E+01</totfact>
</mgrwt>
</event>
<event>
 5    1  0.9399923E-003  0.5111616E+02  0.7546771E-02  0.1550380E+00
          1   -1    0    0  502    0  0.00000000000E+00  0.00000000000E+00  0.74059845795E+03  0.74059845795E+03  0.00000000000E+00 0. -1.
         -1   -1    0    0    0  501 -0.00000000000E+00 -0.00000000000E+00 -0.21585649389E+02  0.21585649389E+02  0.00000000000E+00 0.  1.
         25    1    1    2    0    0 -0.22517860308E+02 -0.34520114094E+02  0.25571956803E+03  0.28760422421E+03  0.12500000000E+03 0.  0.
          2    1    1    2  502    0  0.44992734598E+02  0.27022259474E+02  0.43276803104E+03  0.43593889177E+03  0.00000000000E+00 0. -1.
         -2    1    1    2    0  501 -0.22474874289E+02  0.74978546200E+01  0.30525209494E+02  0.38640991354E+02  0.00000000000E+00 0.  1.
<mgrwt>
<rscale>  0 0.34800477E+02</rscale>
<asrwt>0</asrwt>
<pdfrwt beam="1">  1        1 0.11393821E+00 0.51116162E+02</pdfrwt>
<pdfrwt beam="2">  1       -1 0.33208697E-02 0.23692568E+02</pdfrwt>
<totfact> 0.67471521E+03</totfact>
</mgrwt>
</event>
<event>
 5    1  0.9399923E-003  0.5250010E+02  0.7546771E-02  0.1555191E+00
          2   -1    0    0  502    0  0.00000000000E+00  0.00000000000E+00  0.86274903398E+03  0.86274903398E+03  0.00000000000E+00 0. -1.
         -2   -1    0    0    0  501 -0.00000000000E+00 -0.00000000000E+00 -0.42491674418E+02  0.42491674418E+02  0.00000000000E+00 0.  1.
         25    1    1    2    0    0 -0.13059140084E+02 -0.36488591989E+02  0.37547669440E+03  0.39763011270E+03  0.12500000000E+03 0.  0.
          1    1    1    2  502    0  0.34625255266E+02  0.42426034680E+02  0.47041341779E+03  0.47359018187E+03  0.00000000000E+00 0. -1.
         -1    1    1    2    0  501 -0.21566115181E+02 -0.59374426916E+01 -0.25632752633E+02  0.34020413832E+02  0.00000000000E+00 0.  1.
<mgrwt>
<rscale>  0 0.34268782E+02</rscale>
<asrwt>0</asrwt>
<pdfrwt beam="1">  1        2 0.13273061E+00 0.52500103E+02</pdfrwt>
<pdfrwt beam="2">  1       -2 0.65371813E-02 0.22368517E+02</pdfrwt>
<totfact> 0.35330758E+03</totfact>
</mgrwt>
</event>
<event>
 5    1  0.9399923E-003  0.9733835E+02  0.7546771E-02  0.1305946E+00
          2   -1    0    0  502    0  0.00000000000E+00  0.00000000000E+00  0.11088853999E+04  0.11088853999E+04  0.00000000000E+00 0. -1.
         -2   -1    0    0    0  501 -0.00000000000E+00 -0.00000000000E+00 -0.18272278496E+03  0.18272278496E+03  0.00000000000E+00 0.  1.
         25    1    1    2    0    0  0.47783376168E+02  0.12267360812E+03  0.40185328051E+03  0.44095705485E+03  0.12500000000E+03 0.  0.
          1    1    1    2  502    0  0.26841662856E+02 -0.91458000534E+02  0.67389093876E+03  0.68059829420E+03  0.00000000000E+00 0. -1.
         -1    1    1    2    0  501 -0.74625039024E+02 -0.31215607583E+02 -0.14958160434E+03  0.17005283579E+03  0.00000000000E+00 0.  1.
<mgrwt>
<rscale>  0 0.88734270E+02</rscale>
<asrwt>0</asrwt>
<pdfrwt beam="1">  1        2 0.17059775E+00 0.97338352E+02</pdfrwt>
<pdfrwt beam="2">  1       -2 0.28111198E-01 0.80890733E+02</pdfrwt>
<totfact> 0.27079765E+02</totfact>
</mgrwt>
</event>
<event>
 5    1  0.9399923E-003  0.9872709E+02  0.7546771E-02  0.1372132E+00
         -1   -1    0    0    0  502 -0.00000000000E+00  0.00000000000E+00  0.15180856092E+03  0.15180856092E+03  0.00000000000E+00 0.  1.
         -2   -1    0    0    0  501  0.00000000000E+00 -0.00000000000E+00 -0.34484050949E+03  0.34484050949E+03  0.00000000000E+00 0.  1.
         25    1    1    2    0    0  0.44275855362E+02  0.45064523927E+02 -0.87411873637E+02  0.16509693618E+03  0.12500000000E+03 0.  0.
         -2    1    1    2    0  502 -0.61072319619E+02 -0.86702290119E+02  0.84877209025E+02  0.13583540020E+03  0.00000000000E+00 0.  1.
         -1    1    1    2    0  501  0.16796464257E+02  0.41637766191E+02 -0.19049728396E+03  0.19571673403E+03  0.00000000000E+00 0.  1.
<mgrwt>
<rscale>  0 0.66578095E+02</rscale>
<asrwt>0</asrwt>
<pdfrwt beam="2">  1       -2 0.53052385E-01 0.44897937E+02</pdfrwt>
<pdfrwt beam="1">  1       -1 0.23355164E-01 0.98727091E+02</pdfrwt>
<totfact> 0.38611349E+02</totfact>
</mgrwt>
</event>
<event>
 5    1  0.9399923E-003  0.1135667E+03  0.7546771E-02  0.1438787E+00
          1   -1    0    0  502    0  0.00000000000E+00  0.00000000000E+00  0.17846009147E+04  0.17846009147E+04  0.00000000000E+00 0. -1.
         -1   -1    0    0    0  501 -0.00000000000E+00 -0.00000000000E+00 -0.99043853522E+02  0.99043853522E+02  0.00000000000E+00 0.  1.
         25    1    1    2    0    0  0.91157272710E+02 -0.12763144524E+02 -0.59396860467E+01  0.15534743672E+03  0.12500000000E+03 0.  0.
          2    1    1    2  502    0 -0.11379482552E+03  0.80883440716E+01  0.16998837885E+04  0.17037075975E+04  0.00000000000E+00 0. -1.
         -2    1    1    2    0  501  0.22637552813E+02  0.46748004527E+01 -0.83870412223E+01  0.24589733978E+02  0.00000000000E+00 0.  1.
<mgrwt>
<rscale>  0 0.51235907E+02</rscale>
<asrwt>0</asrwt>
<pdfrwt beam="1">  1        1 0.27455396E+00 0.11356674E+03</pdfrwt>
<pdfrwt beam="2">  1       -1 0.15237517E-01 0.23115202E+02</pdfrwt>
<totfact> 0.14097177E+02</totfact>
</mgrwt>
</event>
<event>
 5    1  0.9399923E-003  0.5252236E+02  0.7546771E-02  0.1452337E+00
          2   -1    0    0  502    0  0.00000000000E+00  0.00000000000E+00  0.22819353263E+04  0.22819353263E+04  0.00000000000E+00 0. -1.
          1   -1    0    0  501    0 -0.00000000000E+00 -0.00000000000E+00 -0.17658671312E+03  0.17658671312E+03  0.00000000000E+00 0. -1.
         25    1    1    2    0    0 -0.35442900200E+02  0.44300514310E+02  0.75738685500E+03  0.76972630387E+03  0.12500000000E+03 0.  0.
          2    1    1    2  501    0 -0.91339969157E+01 -0.51802937069E+02 -0.16601246870E+03  0.17414681723E+03  0.00000000000E+00 0. -1.
          1    1    1    2  502    0  0.44576897116E+02  0.75024227584E+01  0.15139742269E+04  0.15146489184E+04  0.00000000000E+00 0. -1.
<mgrwt>
<rscale>  0 0.48725885E+02</rscale>
<asrwt>0</asrwt>
<pdfrwt beam="1">  1        2 0.35106695E+00 0.45203828E+02</pdfrwt>
<pdfrwt beam="2">  1        1 0.27167188E-01 0.52522362E+02</pdfrwt>
<totfact> 0.14871969E+02</totfact>
</mgrwt>
</event>
<event>
 5    1  0.9399923E-003  0.1108263E+03  0.7546771E-02  0.1361208E+00
         -2   -1    0    0    0  501 -0.00000000000E+00  0.00000000000E+00  0.55459206024E+03  0.55459206024E+03  0.00000000000E+00 0.  1.
          2   -1    0    0  502    0  0.00000000000E+00 -0.00000000000E+00 -0.10556361233E+04  0.10556361233E+04  0.00000000000E+00 0. -1.
         25    1    1    2    0    0 -0.13686482433E+03 -0.12695008677E+02 -0.48042876968E+02  0.19190169726E+03  0.12500000000E+03 0.  0.
          1    1    1    2  502    0  0.29026154647E+02  0.32803169330E+02 -0.92890822024E+03  0.92994034605E+03  0.00000000000E+00 0. -1.
         -1    1    1    2    0  501  0.10783866969E+03 -0.20108160654E+02  0.47590703416E+03  0.48838614023E+03  0.00000000000E+00 0.  1.
<mgrwt>
<rscale>  0 0.69673184E+02</rscale>
<asrwt>0</asrwt>
<pdfrwt beam="2">  1        2 0.16240556E+00 0.43801433E+02</pdfrwt>
<pdfrwt beam="1">  1       -2 0.85321855E-01 0.11082634E+03</pdfrwt>
<totfact> 0.34290404E+01</totfact>
</mgrwt>
</event>
<event>
 5    1  0.9399923E-003  0.5626556E+02  0.7546771E-02  0.1485683E+00
          2   -1    0    0  502    0  0.00000000000E+00  0.00000000000E+00  0.32876717305E+03  0.32876717305E+03  0.00000000000E+00 0. -1.
          1   -1    0    0  501    0 -0.00000000000E+00 -0.00000000000E+00 -0.86580295821E+03  0.86580295821E+03  0.00000000000E+00 0. -1.
         25    1    1    2    0    0  0.72526865128E+02 -0.47046745129E+02  0.93939913708E+01  0.15227209024E+03  0.12500000000E+03 0.  0.
          2    1    1    2  501    0 -0.51781357946E+02  0.21101716608E+02 -0.79226137538E+03  0.79423213130E+03  0.00000000000E+00 0. -1.
          1    1    1    2  502    0 -0.20745507182E+02  0.25945028520E+02  0.24583159885E+03  0.24806590972E+03  0.00000000000E+00 0. -1.
<mgrwt>
<rscale>  0 0.43233107E+02</rscale>
<asrwt>0</asrwt>
<pdfrwt beam="1">  1        2 0.50579566E-01 0.33219280E+02</pdfrwt>
<pdfrwt beam="2">  1        1 0.13320045E+00 0.56265564E+02</pdfrwt>
<totfact> 0.29677135E+02</totfact>
</mgrwt>
</event>
<event>
 5    1  0.9399923E-003  0.1039832E+03  0.7546771E-02  0.1362818E+00
          1   -1    0    0  501    0 -0.00000000000E+00  0.00000000000E+00  0.80515389793E+03  0.80515389793E+03  0.00000000000E+00 0. -1.
          2   -1    0    0  502    0  0.00000000000E+00 -0.00000000000E+00 -0.52537027966E+03  0.52537027966E+03  0.00000000000E+00 0. -1.
         25    1    1    2    0    0 -0.62767527803E+02  0.41282783911E+02 -0.10949715320E+03  0.18236956257E+03  0.12500000000E+03 0.  0.
          2    1    1    2  501    0  0.58304898056E+02 -0.87124449884E+02  0.76372591666E+03  0.77088741505E+03  0.00000000000E+00 0. -1.
          1    1    1    2  502    0  0.44626297469E+01  0.45841665973E+02 -0.37444514520E+03  0.37726719996E+03  0.00000000000E+00 0. -1.
<mgrwt>
<rscale>  0 0.69204747E+02</rscale>
<asrwt>0</asrwt>
<pdfrwt beam="2">  1        2 0.80826197E-01 0.46058370E+02</pdfrwt>
<pdfrwt beam="1">  1        1 0.12386983E+00 0.10398321E+03</pdfrwt>
<totfact> 0.19828565E+02</totfact>
</mgrwt>
</event>
<event>
 5    1  0.1007373E-002  0.1135502E+03  0.7546771E-02  0.1342342E+00
          2   -1    0    0  502    0  0.00000000000E+00  0.00000000000E+00  0.53189040067E+03  0.53189040067E+03  0.00000000000E+00 0. -1.
         -2   -1    0    0    0  501 -0.00000000000E+00 -0.00000000000E+00 -0.60331291754E+02  0.60331291754E+02  0.00000000000E+00 0.  1.
         25    1    1    2    0    0 -0.32921684855E+02 -0.13527296193E+03  0.17516056558E+03  0.25629833261E+03  0.12500000000E+03 0.  0.
          3    1    1    2  502    0 -0.75330846414E+01  0.10555857246E+03  0.17432291109E+03  0.20393096115E+03  0.00000000000E+00 0. -1.
         -3    1    1    2    0  501  0.40454769497E+02  0.29714389473E+02  0.12207563225E+03  0.13199239867E+03  0.00000000000E+00 0.  1.
<mgrwt>
<rscale>  0 0.75496011E+02</rscale>
<asrwt>0</asrwt>
<pdfrwt beam="1">  1        2 0.81829289E-01 0.11355021E+03</pdfrwt>
<pdfrwt beam="2">  1       -2 0.92817376E-02 0.50194953E+02</pdfrwt>
<totfact> 0.39139073E+03</totfact>
</mgrwt>
</event>
<event>
 5    1  0.9399923E-003  0.1207278E+03  0.7546771E-02  0.1254955E+00
          2   -1    0    0  502    0  0.00000000000E+00  0.00000000000E+00  0.68070397337E+03  0.68070397337E+03  0.00000000000E+00 0. -1.
          1   -1    0    0  501    0 -0.00000000000E+00 -0.00000000000E+00 -0.98895843853E+03  0.98895843853E+03  0.00000000000E+00 0. -1.
         25    1    1    2    0    0  0.77471898487E+02  0.70378972309E+02 -0.85354084688E+02  0.18402558130E+03  0.12500000000E+03 0.  0.
          2    1    1    2  501    0 -0.12354749157E+03  0.25008693808E+02 -0.84511752824E+03  0.85446653180E+03  0.00000000000E+00 0. -1.
          1    1    1    2  502    0  0.46075593086E+02 -0.95387666117E+02  0.62221714776E+03  0.63117029880E+03  0.00000000000E+00 0. -1.
<mgrwt>
<rscale>  0 0.11308861E+03</rscale>
<asrwt>0</asrwt>
<pdfrwt beam="1">  1        2 0.10472369E+00 0.10593284E+03</pdfrwt>
<pdfrwt beam="2">  1        1 0.15214745E+00 0.12072776E+03</pdfrwt>
<totfact> 0.10486987E+02</totfact>
</mgrwt>
</event>
<event>
 5    1  0.9399923E-003  0.6279279E+02  0.7546771E-02  0.1399767E+00
          1   -1    0    0  501    0 -0.00000000000E+00  0.00000000000E+00  0.42927341077E+04  0.42927341077E+04  0.00000000000E+00 0. -1.
          2   -1    0    0  502    0  0.00000000000E+00 -0.00000000000E+00 -0.95493166882E+02  0.95493166882E+02  0.00000000000E+00 0. -1.
         25    1    1    2    0    0  0.46785565878E+02 -0.43085552209E+01  0.58618994826E+03  0.60120804075E+03  0.12500000000E+03 0.  0.
          2    1    1    2  501    0 -0.38319451611E+02 -0.51511022171E+02  0.36896699860E+04  0.36902284985E+04  0.00000000000E+00 0. -1.
          1    1    1    2  502    0 -0.84661142677E+01  0.55819577392E+02 -0.78618993440E+02  0.96790735303E+02  0.00000000000E+00 0. -1.
<mgrwt>
<rscale>  0 0.59541179E+02</rscale>
<asrwt>0</asrwt>
<pdfrwt beam="2">  1        2 0.14691260E-01 0.56457952E+02</pdfrwt>
<pdfrwt beam="1">  1        1 0.66042048E+00 0.62792785E+02</pdfrwt>
<totfact> 0.49114972E+00</totfact>
</mgrwt>
</event>
<event>
 5    1  0.9399923E-003  0.1462268E+03  0.7546771E-02  0.1251758E+00
          2   -1    0    0  502    0  0.00000000000E+00  0.00000000000E+00  0.63835192248E+03  0.63835192248E+03  0.00000000000E+00 0. -1.
         -2   -1    0    0    0  501 -0.00000000000E+00 -0.00000000000E+00 -0.91279288258E+02  0.91279288258E+02  0.00000000000E+00 0.  1.
         25    1    1    2    0    0 -0.88577668147E+02  0.92982658520E+02  0.19372452385E+03  0.26390522772E+03  0.12500000000E+03 0.  0.
          1    1    1    2  502    0  0.29517613446E+02 -0.16126767940E+03  0.33589775806E+03  0.37377246794E+03  0.00000000000E+00 0. -1.
         -1    1    1    2    0  501  0.59060054701E+02  0.68285020879E+02  0.17450352311E+02  0.91953515069E+02  0.00000000000E+00 0.  1.
<mgrwt>
<rscale>  0 0.11489876E+03</rscale>
<asrwt>0</asrwt>
<pdfrwt beam="1">  1        2 0.98207985E-01 0.14622680E+03</pdfrwt>
<pdfrwt beam="2">  1       -2 0.14042968E-01 0.90282524E+02</pdfrwt>
<totfact> 0.17287654E+03</totfact>
</mgrwt>
</event>
<event>
 5    1  0.9399923E-003  0.6894960E+02  0.7546771E-02  0.1447106E+00
          1   -1    0    0  502    0  0.00000000000E+00  0.00000000000E+00  0.30660508552E+02  0.30660508552E+02  0.00000000000E+00 0. -1.
         -1   -1    0    0    0  501 -0.00000000000E+00 -0.00000000000E+00 -0.59169683411E+03  0.59169683411E+03  0.00000000000E+00 0.  1.
         25    1    1    2    0    0 -0.27522879333E+02  0.31305903347E+02 -0.17443155755E+03  0.21860680854E+03  0.12500000000E+03 0.  0.
          2    1    1    2  502    0 -0.60388377712E+01  0.35274321866E+02 -0.71648449644E+02  0.80088986016E+02  0.00000000000E+00 0. -1.
         -2    1    1    2    0  501  0.33561717105E+02 -0.66580225213E+02 -0.31495631836E+03  0.32366154811E+03  0.00000000000E+00 0.  1.
<mgrwt>
<rscale>  0 0.49674278E+02</rscale>
<asrwt>0</asrwt>
<pdfrwt beam="1">  1        1 0.47170012E-02 0.35787503E+02</pdfrwt>
<pdfrwt beam="2">  1       -1 0.91030284E-01 0.68949597E+02</pdfrwt>
<totfact> 0.19403662E+03</totfact>
</mgrwt>
</event>
<event>
 5    1  0.9399923E-003  0.7334073E+02  0.7546771E-02  0.1447254E+00
          1   -1    0    0  501    0 -0.00000000000E+00  0.00000000000E+00  0.54114713295E+03  0.54114713295E+03  0.00000000000E+00 0. -1.
          2   -1    0    0  502    0  0.00000000000E+00 -0.00000000000E+00 -0.23327958881E+03  0.23327958881E+03  0.00000000000E+00 0. -1.
         25    1    1    2    0    0 -0.21874685952E+02  0.39159038308E+02 -0.12792005141E+02  0.13341876765E+03  0.12500000000E+03 0.  0.
          2    1    1    2  501    0 -0.86267284734E+01  0.32481967690E+02  0.47073635514E+03  0.47193454495E+03  0.00000000000E+00 0. -1.
          1    1    1    2  502    0  0.30501414425E+02 -0.71641005998E+02 -0.15007680587E+03  0.16907340915E+03  0.00000000000E+00 0. -1.
<mgrwt>
<rscale>  0 0.49647117E+02</rscale>
<asrwt>0</asrwt>
<pdfrwt beam="2">  1        2 0.35889168E-01 0.73340728E+02</pdfrwt>
<pdfrwt beam="1">  1        1 0.83253405E-01 0.33608015E+02</pdfrwt>
<totfact> 0.82512262E+02</totfact>
</mgrwt>
</event>
<event>
 5    1  0.9399923E-003  0.9445241E+02  0.7546771E-02  0.1457024E+00
          2   -1    0    0  502    0  0.00000000000E+00  0.00000000000E+00  0.12589526791E+04  0.12589526791E+04  0.00000000000E+00 0. -1.
          1   -1    0    0  501    0 -0.00000000000E+00 -0.00000000000E+00 -0.34319818543E+03  0.34319818543E+03  0.00000000000E+00 0. -1.
         25    1    1    2    0    0 -0.39323162889E+02 -0.81910964178E+02 -0.68025359610E+00  0.15453536792E+03  0.12500000000E+03 0.  0.
          2    1    1    2  501    0  0.61691155632E+02  0.72443704970E+02 -0.25693823831E+03  0.27399114471E+03  0.00000000000E+00 0. -1.
          1    1    1    2  502    0 -0.22367992743E+02  0.94672592085E+01  0.11733729856E+04  0.11736243519E+04  0.00000000000E+00 0. -1.
<mgrwt>
<rscale>  0 0.47897345E+02</rscale>
<asrwt>0</asrwt>
<pdfrwt beam="1">  1        2 0.19368502E+00 0.24289012E+02</pdfrwt>
<pdfrwt beam="2">  1        1 0.52799722E-01 0.94452409E+02</pdfrwt>
<totfact> 0.22223906E+02</totfact>
</mgrwt>
</event>
<event>
 5    1  0.9399923E-003  0.6635329E+02  0.7546771E-02  0.1410306E+00
          2   -1    0    0  502    0  0.00000000000E+00  0.00000000000E+00  0.27855057945E+03  0.27855057945E+03  0.00000000000E+00 0. -1.
         -2   -1    0    0    0  501 -0.00000000000E+00 -0.00000000000E+00 -0.79475216073E+02  0.79475216073E+02  0.00000000000E+00 0.  1.
         25    1    1    2    0    0  0.74813645449E+02  0.70427858792E+02  0.93884253354E+02  0.18707329544E+03  0.12500000000E+03 0.  0.
          1    1    1    2  502    0 -0.55212461828E+02 -0.25321485439E+02  0.10553840599E+03  0.12177006489E+03  0.00000000000E+00 0. -1.
         -1    1    1    2    0  501 -0.19601183621E+02 -0.45106373353E+02 -0.34729596608E+00  0.49182435186E+02  0.00000000000E+00 0.  1.
<mgrwt>
<rscale>  0 0.57125609E+02</rscale>
<asrwt>0</asrwt>
<pdfrwt beam="1">  1        2 0.42853935E-01 0.66353294E+02</pdfrwt>
<pdfrwt beam="2">  1       -2 0.12226956E-01 0.49181209E+02</pdfrwt>
<totfact> 0.50690884E+03</totfact>
</mgrwt>
</event>
<event>
 5    1  0.9399923E-003  0.5497343E+02  0.7546771E-02  0.1503600E+00
          2   -1    0    0  502    0  0.00000000000E+00  0.00000000000E+00  0.68935459809E+03  0.68935459809E+03  0.00000000000E+00 0. -1.
          1   -1    0    0  501    0 -0.00000000000E+00 -0.00000000000E+00 -0.53764812577E+03  0.53764812577E+03  0.00000000000E+00 0. -1.
         25    1    1    2    0    0  0.87416670363E+01  0.84241681190E+02  0.28793714990E+03  0.32512440678E+03  0.12500000000E+03 0.  0.
          2    1    1    2  501    0 -0.82335269924E+01 -0.54211624801E+02 -0.51701336383E+03  0.51991298273E+03  0.00000000000E+00 0. -1.
          1    1    1    2  502    0 -0.50814004397E+00 -0.30030056389E+02  0.38078268626E+03  0.38196533435E+03  0.00000000000E+00 0. -1.
<mgrwt>
<rscale>  0 0.40633625E+02</rscale>
<asrwt>0</asrwt>
<pdfrwt beam="1">  1        2 0.10605455E+00 0.30034355E+02</pdfrwt>
<pdfrwt beam="2">  1        1 0.82715096E-01 0.54973429E+02</pdfrwt>
<totfact> 0.26654041E+02</totfact>
</mgrwt>
</event>
<event>
 5    1  0.9399923E-003  0.1555175E+03  0.7546771E-02  0.1262971E+00
          2   -1    0    0  502    0  0.00000000000E+00  0.00000000000E+00  0.56879257581E+03  0.56879257581E+03  0.00000000000E+00 0. -1.
          1   -1    0    0  501    0 -0.00000000000E+00 -0.00000000000E+00 -0.21160168485E+03  0.21160168485E+03  0.00000000000E+00 0. -1.
         25    1    1    2    0    0  0.11138693489E+03 -0.18320851341E+03  0.10509892267E+03  0.26952401043E+03  0.12500000000E+03 0.  0.
          2    1    1    2  501    0 -0.55288581966E+02  0.13194126714E+03 -0.84268448166E+02  0.16603161334E+03  0.00000000000E+00 0. -1.
          1    1    1    2  502    0 -0.56098352924E+02  0.51267246265E+02  0.33636041646E+03  0.34483863690E+03  0.00000000000E+00 0. -1.
<mgrwt>
<rscale>  0 0.10871372E+03</rscale>
<asrwt>0</asrwt>
<pdfrwt beam="1">  1        2 0.87506550E-01 0.75995761E+02</pdfrwt>
<pdfrwt beam="2">  1        1 0.32554106E-01 0.15551752E+03</pdfrwt>
<totfact> 0.10159874E+03</totfact>
</mgrwt>
</event>
<event>
 5    1  0.9399923E-003  0.4729538E+03  0.7546771E-02  0.1213520E+00
          1   -1    0    0  501    0 -0.00000000000E+00  0.00000000000E+00  0.11467317329E+04  0.11467317329E+04  0.00000000000E+00 0. -1.
          2   -1    0    0  502    0  0.00000000000E+00 -0.00000000000E+00 -0.16939825304E+04  0.16939825304E+04  0.00000000000E+00 0. -1.
         25    1    1    2    0    0 -0.18904507223E+03 -0.39885198728E+03 -0.75399571243E+02  0.46489895938E+03  0.12500000000E+03 0.  0.
          2    1    1    2  501    0  0.19172664511E+03  0.44012287052E+03  0.89112542058E+03  0.10122113232E+04  0.00000000000E+00 0. -1.
          3    1    1    2  502    0 -0.26815728842E+01 -0.41270883234E+02 -0.13629766468E+04  0.13636039808E+04  0.00000000000E+00 0. -1.
<mgrwt>
<rscale>  0 0.13985843E+03</rscale>
<asrwt>0</asrwt>
<pdfrwt beam="2">  1        2 0.26061270E+00 0.41357909E+02</pdfrwt>
<pdfrwt beam="1">  1        1 0.17642027E+00 0.47295383E+03</pdfrwt>
<totfact> 0.21267557E+01</totfact>
</mgrwt>
</event>
<event>
 5    1  0.9399923E-003  0.5790810E+02  0.7546771E-02  0.1445262E+00
         -2   -1    0    0    0  501 -0.00000000000E+00  0.00000000000E+00  0.69141112976E+02  0.69141112976E+02  0.00000000000E+00 0.  1.
          2   -1    0    0  502    0  0.00000000000E+00 -0.00000000000E+00 -0.36193558534E+04  0.36193558534E+04  0.00000000000E+00 0. -1.
         25    1    1    2    0    0 -0.63400484455E+02 -0.47930227009E+02 -0.32456853501E+04  0.32490637605E+04  0.12500000000E+03 0.  0.
          1    1    1    2  502    0  0.21394433638E+02  0.37855238906E+02 -0.36363452176E+03  0.36622507603E+03  0.00000000000E+00 0. -1.
         -1    1    1    2    0  501  0.42006050817E+02  0.10074988102E+02  0.59105131505E+02  0.73208129745E+02  0.00000000000E+00 0.  1.
<mgrwt>
<rscale>  0 0.50014779E+02</rscale>
<asrwt>0</asrwt>
<pdfrwt beam="2">  1        2 0.55682418E+00 0.57908096E+02</pdfrwt>
<pdfrwt beam="1">  1       -2 0.10637090E-01 0.43197381E+02</pdfrwt>
<totfact> 0.60625006E+01</totfact>
</mgrwt>
</event>
<event>
 5    1  0.9399923E-003  0.4823659E+02  0.7546771E-02  0.1461443E+00
          2   -1    0    0  502    0  0.00000000000E+00  0.00000000000E+00  0.18534510845E+04  0.18534510845E+04  0.00000000000E+00 0. -1.
          1   -1    0    0  501    0 -0.00000000000E+00 -0.00000000000E+00 -0.31589689431E+03  0.31589689431E+03  0.00000000000E+00 0. -1.
         25    1    1    2    0    0 -0.41444408054E+02 -0.41349761434E+02 -0.40105738442E+02  0.14373904127E+03  0.12500000000E+03 0.  0.
          2    1    1    2  501    0 -0.40454196212E+01  0.48552705544E+02 -0.22102667932E+03  0.22633277183E+03  0.00000000000E+00 0. -1.
          1    1    1    2  502    0  0.45489827675E+02 -0.72029441108E+01  0.17986866079E+04  0.17992761657E+04  0.00000000000E+00 0. -1.
<mgrwt>
<rscale>  0 0.47133973E+02</rscale>
<asrwt>0</asrwt>
<pdfrwt beam="1">  1        2 0.28514631E+00 0.46056561E+02</pdfrwt>
<pdfrwt beam="2">  1        1 0.48599524E-01 0.48236589E+02</pdfrwt>
<totfact> 0.11950435E+02</totfact>
</mgrwt>
</event>
<event>
 5    1  0.9399923E-003  0.9129434E+02  0.7546771E-02  0.1378181E+00
          1   -1    0    0  501    0 -0.00000000000E+00  0.00000000000E+00  0.45970990681E+03  0.45970990681E+03  0.00000000000E+00 0. -1.
          2   -1    0    0  502    0  0.00000000000E+00 -0.00000000000E+00 -0.14546290489E+04  0.14546290489E+04  0.00000000000E+00 0. -1.
         25    1    1    2    0    0  0.11938209141E+03  0.15812598053E+02 -0.28449688498E+03  0.33326505903E+03  0.12500000000E+03 0.  0.
          2    1    1    2  501    0 -0.31560078041E+02 -0.33739708991E+02  0.43234019892E+03  0.43480162613E+03  0.00000000000E+00 0. -1.
          1    1    1    2  502    0 -0.87822013372E+02  0.17927110937E+02 -0.11427624561E+04  0.11462722706E+04  0.00000000000E+00 0. -1.
<mgrwt>
<rscale>  0 0.64944327E+02</rscale>
<asrwt>0</asrwt>
<pdfrwt beam="2">  1        2 0.22378909E+00 0.91294343E+02</pdfrwt>
<pdfrwt beam="1">  1        1 0.70724601E-01 0.46199637E+02</pdfrwt>
<totfact> 0.11239948E+02</totfact>
</mgrwt>
</event>
<event>
 5    1  0.9399923E-003  0.1074523E+03  0.7546771E-02  0.1289162E+00
          1   -1    0    0  501    0 -0.00000000000E+00  0.00000000000E+00  0.13675128392E+04  0.13675128392E+04  0.00000000000E+00 0. -1.
          2   -1    0    0  502    0  0.00000000000E+00 -0.00000000000E+00 -0.13751649979E+04  0.13751649979E+04  0.00000000000E+00 0. -1.
         25    1    1    2    0    0  0.45678697732E+02  0.11929314196E+01 -0.59038020489E+03  0.60519563187E+03  0.12500000000E+03 0.  0.
          2    1    1    2  501    0 -0.67514653281E+02 -0.83950365972E+02  0.13556057773E+04  0.13598797431E+04  0.00000000000E+00 0. -1.
          1    1    1    2  502    0  0.21835955549E+02  0.82757434552E+02 -0.77287773104E+03  0.77760246210E+03  0.00000000000E+00 0. -1.
<mgrwt>
<rscale>  0 0.95899998E+02</rscale>
<asrwt>0</asrwt>
<pdfrwt beam="2">  1        2 0.21156385E+00 0.85589730E+02</pdfrwt>
<pdfrwt beam="1">  1        1 0.21038659E+00 0.10745226E+03</pdfrwt>
<totfact> 0.22668505E+01</totfact>
</mgrwt>
</event>
<event>
 5    1  0.9399923E-003  0.1193832E+03  0.7546771E-02  0.1339127E+00
          1   -1    0    0  502    0  0.00000000000E+00  0.00000000000E+00  0.63056633704E+03  0.63056633704E+03  0.00000000000E+00 0. -1.
         -1   -1    0    0    0  501 -0.00000000000E+00 -0.00000000000E+00 -0.34440994880E+03  0.34440994880E+03  0.00000000000E+00 0.  1.
         25    1    1    2    0    0 -0.68288548142E+01 -0.74117526142E+02 -0.35641743026E+01  0.14552575125E+03  0.12500000000E+03 0.  0.
          2    1    1    2  502    0  0.12642221516E+02  0.12286137711E+03  0.55045188607E+03  0.56413830097E+03  0.00000000000E+00 0. -1.
         -2    1    1    2    0  501 -0.58133667018E+01 -0.48743850963E+02 -0.26073132353E+03  0.26531223362E+03  0.00000000000E+00 0.  1.
<mgrwt>
<rscale>  0 0.76553478E+02</rscale>
<asrwt>0</asrwt>
<pdfrwt beam="1">  1        1 0.97010206E-01 0.11938317E+03</pdfrwt>
<pdfrwt beam="2">  1       -1 0.52986146E-01 0.49089288E+02</pdfrwt>
<totfact> 0.12788854E+02</totfact>
</mgrwt>
</event>
<event>
 5    1  0.9399923E-003  0.1074613E+03  0.7546771E-02  0.1294042E+00
          2   -1    0    0  502    0  0.00000000000E+00  0.00000000000E+00  0.10752437728E+04  0.10752437728E+04  0.00000000000E+00 0. -1.
         -2   -1    0    0    0  501 -0.00000000000E+00 -0.00000000000E+00 -0.17357842528E+04  0.17357842528E+04  0.00000000000E+00 0.  1.
         25    1    1    2    0    0 -0.42359962648E+02 -0.88967153763E+02  0.52841257466E+03  0.55186444888E+03  0.12500000000E+03 0.  0.
          1    1    1    2  502    0  0.80962963083E+02 -0.11453030320E+02  0.53029022671E+03  0.53655745064E+03  0.00000000000E+00 0. -1.
         -1    1    1    2    0  501 -0.38603000434E+02  0.10042018408E+03 -0.17192432813E+04  0.17226061260E+04  0.00000000000E+00 0.  1.
<mgrwt>
<rscale>  0 0.93739033E+02</rscale>
<asrwt>0</asrwt>
<pdfrwt beam="1">  1        2 0.16542212E+00 0.81769024E+02</pdfrwt>
<pdfrwt beam="2">  1       -2 0.26704373E+00 0.10746131E+03</pdfrwt>
<totfact> 0.15963732E+00</totfact>
</mgrwt>
</event>
<event>
 5    1  0.9399923E-003  0.2135590E+03  0.7546771E-02  0.1334962E+00
          1   -1    0    0  501    0 -0.00000000000E+00  0.00000000000E+00  0.90153932710E+03  0.90153932710E+03  0.00000000000E+00 0. -1.
          2   -1    0    0  502    0  0.00000000000E+00 -0.00000000000E+00 -0.26142727913E+04  0.26142727913E+04  0.00000000000E+00 0. -1.
         25    1    1    2    0    0  0.21965361615E+03  0.36574663659E+02  0.53287515583E+03  0.59090299442E+03  0.12500000000E+03 0.  0.
          2    1    1    2  501    0 -0.63357697390E+01 -0.27740285324E+02  0.33463750028E+03  0.33584508631E+03  0.00000000000E+00 0. -1.
          1    1    1    2  502    0 -0.21331784641E+03 -0.88343783344E+01 -0.25802461203E+04  0.25890640377E+04  0.00000000000E+00 0. -1.
<mgrwt>
<rscale>  0 0.77953455E+02</rscale>
<asrwt>0</asrwt>
<pdfrwt beam="2">  1        2 0.40219582E+00 0.21355903E+03</pdfrwt>
<pdfrwt beam="1">  1        1 0.13869836E+00 0.28454620E+02</pdfrwt>
<totfact> 0.10701234E+01</totfact>
</mgrwt>
</event>
<event>
 5    1  0.9399923E-003  0.1338035E+03  0.7546771E-02  0.1346644E+00
          1   -1    0    0  501    0 -0.00000000000E+00  0.00000000000E+00  0.95823033191E+02  0.95823033191E+02  0.00000000000E+00 0. -1.
          2   -1    0    0  502    0  0.00000000000E+00 -0.00000000000E+00 -0.13979103667E+04  0.13979103667E+04  0.00000000000E+00 0. -1.
         25    1    1    2    0    0 -0.41374836115E+02 -0.12942863968E+03 -0.22721859963E+03  0.29277455807E+03  0.12500000000E+03 0.  0.
          2    1    1    2  501    0 -0.35992687709E+02  0.19737464256E+02  0.51928985904E+02  0.66194113339E+02  0.00000000000E+00 0. -1.
          1    1    1    2  502    0  0.77367523823E+02  0.10969117542E+03 -0.11267977198E+04  0.11347647285E+04  0.00000000000E+00 0. -1.
<mgrwt>
<rscale>  0 0.74111637E+02</rscale>
<asrwt>0</asrwt>
<pdfrwt beam="2">  1        2 0.21506312E+00 0.13380353E+03</pdfrwt>
<pdfrwt beam="1">  1        1 0.14742006E-01 0.41049252E+02</pdfrwt>
<totfact> 0.77315431E+02</totfact>
</mgrwt>
</event>
<event>
 5    1  0.9399923E-003  0.1449947E+03  0.7546771E-02  0.1403665E+00
          1   -1    0    0  501    0 -0.00000000000E+00  0.00000000000E+00  0.27638563595E+03  0.27638563595E+03  0.00000000000E+00 0. -1.
          2   -1    0    0  502    0  0.00000000000E+00 -0.00000000000E+00 -0.31990200439E+03  0.31990200439E+03  0.00000000000E+00 0. -1.
         25    1    1    2    0    0  0.15070960964E+03  0.67660924620E+02 -0.75526373350E+02  0.22050083952E+03  0.12500000000E+03 0.  0.
          2    1    1    2  501    0 -0.12823439227E+03 -0.60112411050E+02  0.17823529833E+03  0.22765188972E+03  0.00000000000E+00 0. -1.
          1    1    1    2  502    0 -0.22475217372E+02 -0.75485135707E+01 -0.14622529341E+03  0.14813491110E+03  0.00000000000E+00 0. -1.
<mgrwt>
<rscale>  0 0.58631699E+02</rscale>
<asrwt>0</asrwt>
<pdfrwt beam="2">  1        2 0.49215692E-01 0.23708974E+02</pdfrwt>
<pdfrwt beam="1">  1        1 0.42520867E-01 0.14499472E+03</pdfrwt>
<totfact> 0.13230052E+03</totfact>
</mgrwt>
</event>
<event>
 5    1  0.9399923E-003  0.1115741E+03  0.7546771E-02  0.1280332E+00
          1   -1    0    0  501    0 -0.00000000000E+00  0.00000000000E+00  0.25528433524E+03  0.25528433524E+03  0.00000000000E+00 0. -1.
          2   -1    0    0  502    0  0.00000000000E+00 -0.00000000000E+00 -0.22231573010E+04  0.22231573010E+04  0.00000000000E+00 0. -1.
         25    1    1    2    0    0 -0.16315690695E+03 -0.99633375269E+02 -0.60114857986E+03  0.64307977796E+03  0.12500000000E+03 0.  0.
          2    1    1    2  501    0  0.10559539094E+03  0.30974062188E+02  0.22006475612E+03  0.24604527226E+03  0.00000000000E+00 0. -1.
          1    1    1    2  502    0  0.57561516015E+02  0.68659313080E+02 -0.15867891421E+04  0.15893165861E+04  0.00000000000E+00 0. -1.
<mgrwt>
<rscale>  0 0.99982919E+02</rscale>
<asrwt>0</asrwt>
<pdfrwt beam="2">  1        2 0.34202420E+00 0.89595923E+02</pdfrwt>
<pdfrwt beam="1">  1        1 0.39274513E-01 0.11157409E+03</pdfrwt>
<totfact> 0.94184473E+01</totfact>
</mgrwt>
</event>
<event>
 5    1  0.9399923E-003  0.7702801E+02  0.7546771E-02  0.1496787E+00
          1   -1    0    0  501    0 -0.00000000000E+00  0.00000000000E+00  0.34130195508E+03  0.34130195508E+03  0.00000000000E+00 0. -1.
          2   -1    0    0  502    0  0.00000000000E+00 -0.00000000000E+00 -0.14495439569E+04  0.14495439569E+04  0.00000000000E+00 0. -1.
         25    1    1    2    0    0  0.10671368037E+02 -0.73460337276E+02  0.10435454567E+03  0.17895577792E+03  0.12500000000E+03 0.  0.
          2    1    1    2  501    0 -0.22295307551E+02 -0.27306045897E+01  0.19795963686E+03  0.19922990429E+03  0.00000000000E+00 0. -1.
          1    1    1    2  502    0  0.11623939514E+02  0.76190941866E+02 -0.14105561843E+04  0.14126602298E+04  0.00000000000E+00 0. -1.
<mgrwt>
<rscale>  0 0.41595619E+02</rscale>
<asrwt>0</asrwt>
<pdfrwt beam="2">  1        2 0.22300676E+00 0.77028012E+02</pdfrwt>
<pdfrwt beam="1">  1        1 0.52507994E-01 0.22461900E+02</pdfrwt>
<totfact> 0.16414000E+02</totfact>
</mgrwt>
</event>
<event>
 5    1  0.9399923E-003  0.3385849E+03  0.7546771E-02  0.1273491E+00
         -1   -1    0    0    0  501 -0.00000000000E+00  0.00000000000E+00  0.62975347199E+03  0.62975347199E+03  0.00000000000E+00 0.  1.
          1   -1    0    0  502    0  0.00000000000E+00 -0.00000000000E+00 -0.92427002957E+03  0.92427002957E+03  0.00000000000E+00 0. -1.
         25    1    1    2    0    0 -0.29151370073E+03 -0.14258310898E+03 -0.15968018954E+03  0.38266557673E+03  0.12500000000E+03 0.  0.
          2    1    1    2  502    0  0.29771821804E+03  0.17348697083E+03 -0.60708486603E+03  0.69805866584E+03  0.00000000000E+00 0. -1.
         -2    1    1    2    0  501 -0.62045173090E+01 -0.30903861853E+02  0.47224849799E+03  0.47329925899E+03  0.00000000000E+00 0.  1.
<mgrwt>
<rscale>  0 0.10330721E+03</rscale>
<asrwt>0</asrwt>
<pdfrwt beam="2">  1        1 0.14219539E+00 0.33858486E+03</pdfrwt>
<pdfrwt beam="1">  1       -1 0.96885150E-01 0.31520544E+02</pdfrwt>
<totfact> 0.21664500E+01</totfact>
</mgrwt>
</event>
<event>
 5    1  0.9399923E-003  0.8704506E+02  0.7546771E-02  0.1376580E+00
         -1   -1    0    0    0  501 -0.00000000000E+00  0.00000000000E+00  0.39432210054E+03  0.39432210054E+03  0.00000000000E+00 0.  1.
          1   -1    0    0  502    0  0.00000000000E+00 -0.00000000000E+00 -0.90685731900E+03  0.90685731900E+03  0.00000000000E+00 0. -1.
         25    1    1    2    0    0  0.49241893982E+02  0.41530922117E+02  0.62546422315E+02  0.15390463463E+03  0.12500000000E+03 0.  0.
          2    1    1    2  502    0 -0.18837554901E+02  0.45336424195E+02 -0.85305247218E+03  0.85446402214E+03  0.00000000000E+00 0. -1.
         -2    1    1    2    0  501 -0.30404339081E+02 -0.86867346312E+02  0.27797083141E+03  0.29281076279E+03  0.00000000000E+00 0.  1.
<mgrwt>
<rscale>  0 0.65371337E+02</rscale>
<asrwt>0</asrwt>
<pdfrwt beam="2">  1        1 0.13951651E+00 0.49094244E+02</pdfrwt>
<pdfrwt beam="1">  1       -1 0.60664938E-01 0.87045065E+02</pdfrwt>
<totfact> 0.61226927E+01</totfact>
</mgrwt>
</event>
<event>
 5    1  0.9399923E-003  0.6547995E+02  0.7546771E-02  0.1402952E+00
          1   -1    0    0  501    0 -0.00000000000E+00  0.00000000000E+00  0.10579570625E+04  0.10579570625E+04  0.00000000000E+00 0. -1.
          2   -1    0    0  502    0  0.00000000000E+00 -0.00000000000E+00 -0.40205798985E+03  0.40205798985E+03  0.00000000000E+00 0. -1.
         25    1    1    2    0    0 -0.10496150119E+02 -0.84037280993E+02  0.41061014478E+01  0.15104401290E+03  0.12500000000E+03 0.  0.
          2    1    1    2  501    0  0.44615466043E+02  0.28228085084E+02  0.97640633620E+03  0.97783265336E+03  0.00000000000E+00 0. -1.
          3    1    1    2  502    0 -0.34119315924E+02  0.55809195910E+02 -0.32461336496E+03  0.33113838614E+03  0.00000000000E+00 0. -1.
<mgrwt>
<rscale>  0 0.58796653E+02</rscale>
<asrwt>0</asrwt>
<pdfrwt beam="2">  1        2 0.61855076E-01 0.65479946E+02</pdfrwt>
<pdfrwt beam="1">  1        1 0.16276262E+00 0.52795498E+02</pdfrwt>
<totfact> 0.17715260E+02</totfact>
</mgrwt>
</event>
<event>
 5    1  0.9399923E-003  0.6048367E+02  0.7546771E-02  0.1437304E+00
         -1   -1    0    0    0  501 -0.00000000000E+00  0.00000000000E+00  0.61060647512E+03  0.61060647512E+03  0.00000000000E+00 0.  1.
          1   -1    0    0  502    0  0.00000000000E+00 -0.00000000000E+00 -0.36906806959E+03  0.36906806959E+03  0.00000000000E+00 0. -1.
         25    1    1    2    0    0  0.41256096501E+01  0.43180267752E+02 -0.85201553971E+02  0.15737172865E+03  0.12500000000E+03 0.  0.
          2    1    1    2  502    0 -0.43783077624E+02  0.30218990369E+01 -0.24420656582E+03  0.24811879524E+03  0.00000000000E+00 0. -1.
         -2    1    1    2    0  501  0.39657467974E+02 -0.46202166789E+02  0.57094652533E+03  0.57418402082E+03  0.00000000000E+00 0.  1.
<mgrwt>
<rscale>  0 0.51521464E+02</rscale>
<asrwt>0</asrwt>
<pdfrwt beam="2">  1        1 0.56779703E-01 0.43887239E+02</pdfrwt>
<pdfrwt beam="1">  1       -1 0.93939458E-01 0.60483669E+02</pdfrwt>
<totfact> 0.84768917E+01</totfact>
</mgrwt>
</event>
<event>
 5    1  0.9399923E-003  0.1192542E+03  0.7546771E-02  0.1281213E+00
          1   -1    0    0  501    0 -0.00000000000E+00  0.00000000000E+00  0.25025946339E+04  0.25025946339E+04  0.00000000000E+00 0. -1.
          2   -1    0    0  502    0  0.00000000000E+00 -0.00000000000E+00 -0.56174064762E+02  0.56174064762E+02  0.00000000000E+00 0. -1.
         25    1    1    2    0    0 -0.76722094219E+02  0.34896128742E+02  0.41584071276E+03  0.44232625734E+03  0.12500000000E+03 0.  0.
          2    1    1    2  501    0 -0.50990985370E+02 -0.65650872866E+02  0.19700512852E+04  0.19718042966E+04  0.00000000000E+00 0. -1.
          1    1    1    2  502    0  0.12771307959E+03  0.30754744125E+02  0.60528571170E+02  0.14463814473E+03  0.00000000000E+00 0. -1.
<mgrwt>
<rscale>  0 0.99565353E+02</rscale>
<asrwt>0</asrwt>
<pdfrwt beam="2">  1        2 0.86421657E-02 0.11925422E+03</pdfrwt>
<pdfrwt beam="1">  1        1 0.38501447E+00 0.83127118E+02</pdfrwt>
<totfact> 0.18581518E+02</totfact>
</mgrwt>
</event>
<event>
 5    1  0.9399923E-003  0.4971920E+02  0.7546771E-02  0.1554129E+00
          2   -1    0    0  502    0  0.00000000000E+00  0.00000000000E+00  0.19620577068E+03  0.19620577068E+03  0.00000000000E+00 0. -1.
          1   -1    0    0  501    0 -0.00000000000E+00 -0.00000000000E+00 -0.11739833087E+04  0.11739833087E+04  0.00000000000E+00 0. -1.
         25    1    1    2    0    0  0.58577852902E+02 -0.41113047768E+02  0.82118005917E+02  0.16580112920E+03  0.12500000000E+03 0.  0.
          2    1    1    2  501    0 -0.35762455866E+02  0.34407492807E+02 -0.11296252131E+04  0.11307147965E+04  0.00000000000E+00 0. -1.
          1    1    1    2  502    0 -0.22815397037E+02  0.67055549609E+01  0.69729669207E+02  0.73673153706E+02  0.00000000000E+00 0. -1.
<mgrwt>
<rscale>  0 0.34385199E+02</rscale>
<asrwt>0</asrwt>
<pdfrwt beam="1">  1        2 0.30185503E-01 0.23780387E+02</pdfrwt>
<pdfrwt beam="2">  1        1 0.18061282E+00 0.49719205E+02</pdfrwt>
<totfact> 0.30309606E+02</totfact>
</mgrwt>
</event>
<event>
 5    1  0.9399923E-003  0.1090433E+03  0.7546771E-02  0.1328877E+00
          2   -1    0    0  502    0  0.00000000000E+00  0.00000000000E+00  0.54403213290E+03  0.54403213290E+03  0.00000000000E+00 0. -1.
          1   -1    0    0  501    0 -0.00000000000E+00 -0.00000000000E+00 -0.16915269994E+04  0.16915269994E+04  0.00000000000E+00 0. -1.
         25    1    1    2    0    0 -0.48055284398E+02 -0.23630084017E+02 -0.95423625497E+02  0.16612753996E+03  0.12500000000E+03 0.  0.
          2    1    1    2  501    0  0.98219482245E+02  0.54272061724E+02 -0.15570271744E+04  0.15610657082E+04  0.00000000000E+00 0. -1.
          1    1    1    2  502    0 -0.50164197846E+02 -0.30641977707E+02  0.50495593339E+03  0.50836588419E+03  0.00000000000E+00 0. -1.
<mgrwt>
<rscale>  0 0.80061449E+02</rscale>
<asrwt>0</asrwt>
<pdfrwt beam="1">  1        2 0.83697253E-01 0.58782459E+02</pdfrwt>
<pdfrwt beam="2">  1        1 0.26023492E+00 0.10904334E+03</pdfrwt>
<totfact> 0.46831674E+01</totfact>
</mgrwt>
</event>
<event>
 5    1  0.9399923E-003  0.2911327E+03  0.7546771E-02  0.1187500E+00
          1   -1    0    0  501    0 -0.00000000000E+00  0.00000000000E+00  0.10061710031E+04  0.10061710031E+04  0.00000000000E+00 0. -1.
          2   -1    0    0  502    0  0.00000000000E+00 -0.00000000000E+00 -0.74345428393E+03  0.74345428393E+03  0.00000000000E+00 0. -1.
         25    1    1    2    0    0 -0.76471879726E+02  0.29403264312E+03  0.92014532100E+02  0.34116684735E+03  0.12500000000E+03 0.  0.
          2    1    1    2  501    0 -0.76123344116E+02 -0.46316432532E+02  0.75261179653E+03  0.75786838681E+03  0.00000000000E+00 0. -1.
          1    1    1    2  502    0  0.15259522384E+03 -0.24771621059E+03 -0.58190960946E+03  0.65059005288E+03  0.00000000000E+00 0. -1.
<mgrwt>
<rscale>  0 0.16106467E+03</rscale>
<asrwt>0</asrwt>
<pdfrwt beam="2">  1        2 0.11437758E+00 0.29113272E+03</pdfrwt>
<pdfrwt beam="1">  1        1 0.15479554E+00 0.89106540E+02</pdfrwt>
<totfact> 0.90542888E+01</totfact>
</mgrwt>
</event>
<event>
 5    1  0.9399923E-003  0.7638653E+02  0.7546771E-02  0.1464595E+00
          2   -1    0    0  502    0  0.00000000000E+00  0.00000000000E+00  0.22463771694E+03  0.22463771694E+03  0.00000000000E+00 0. -1.
         -2   -1    0    0    0  501 -0.00000000000E+00 -0.00000000000E+00 -0.79626343411E+03  0.79626343411E+03  0.00000000000E+00 0.  1.
         25    1    1    2    0    0  0.27077432250E+02  0.95960531198E+02 -0.21599660082E+03  0.26873991600E+03  0.12500000000E+03 0.  0.
          1    1    1    2  502    0 -0.17643984181E+02 -0.22290280468E+02  0.19473961004E+03  0.19680366486E+03  0.00000000000E+00 0. -1.
         -3    1    1    2    0  501 -0.94334480694E+01 -0.73670250730E+02 -0.55036872639E+03  0.55535757019E+03  0.00000000000E+00 0.  1.
<mgrwt>
<rscale>  0 0.46599755E+02</rscale>
<asrwt>0</asrwt>
<pdfrwt beam="1">  1        2 0.34559649E-01 0.28428274E+02</pdfrwt>
<pdfrwt beam="2">  1       -2 0.12250207E+00 0.76386527E+02</pdfrwt>
<totfact> 0.80161085E+01</totfact>
</mgrwt>
</event>
<event>
 5    1  0.9399923E-003  0.6786834E+02  0.7546771E-02  0.1481970E+00
          1   -1    0    0  502    0  0.00000000000E+00  0.00000000000E+00  0.69471358968E+02  0.69471358968E+02  0.00000000000E+00 0. -1.
         -1   -1    0    0    0  501 -0.00000000000E+00 -0.00000000000E+00 -0.15157099225E+04  0.15157099225E+04  0.00000000000E+00 0.  1.
         25    1    1    2    0    0 -0.14575148443E+02  0.74574363439E+02 -0.48042020537E+03  0.50219751529E+03  0.12500000000E+03 0.  0.
          2    1    1    2  502    0 -0.21972019957E+02 -0.17785370352E+02  0.53989539650E+02  0.60942263259E+02  0.00000000000E+00 0. -1.
         -2    1    1    2    0  501  0.36547168400E+02 -0.56788993087E+02 -0.10198078978E+04  0.10220415029E+04  0.00000000000E+00 0.  1.
<mgrwt>
<rscale>  0 0.43800838E+02</rscale>
<asrwt>0</asrwt>
<pdfrwt beam="1">  1        1 0.10687902E-01 0.28268163E+02</pdfrwt>
<pdfrwt beam="2">  1       -1 0.23318613E+00 0.67868344E+02</pdfrwt>
<totfact> 0.59206552E+01</totfact>
</mgrwt>
</event>
<event>
 5    1  0.9399923E-003  0.7818988E+02  0.7546771E-02  0.1425697E+00
          2   -1    0    0  502    0  0.00000000000E+00  0.00000000000E+00  0.42223978877E+02  0.42223978877E+02  0.00000000000E+00 0. -1.
          1   -1    0    0  501    0 -0.00000000000E+00 -0.00000000000E+00 -0.14159888532E+04  0.14159888532E+04  0.00000000000E+00 0. -1.
         25    1    1    2    0    0  0.75446262576E+02 -0.92449531573E+01 -0.91575137017E+03  0.92736356391E+03  0.12500000000E+03 0.  0.
          2    1    1    2  501    0 -0.10710730891E+02 -0.35483086360E+02 -0.45026055433E+03  0.45178350563E+03  0.00000000000E+00 0. -1.
          1    1    1    2  502    0 -0.64735531685E+02  0.44728039517E+02 -0.77529498696E+01  0.79065762586E+02  0.00000000000E+00 0. -1.
<mgrwt>
<rscale>  0 0.53833637E+02</rscale>
<asrwt>0</asrwt>
<pdfrwt beam="1">  1        2 0.64959973E-02 0.78189882E+02</pdfrwt>
<pdfrwt beam="2">  1        1 0.21784442E+00 0.37064392E+02</pdfrwt>
<totfact> 0.13464770E+03</totfact>
</mgrwt>
</event>
<event>
 5    1  0.9399923E-003  0.9159031E+02  0.7546771E-02  0.1341947E+00
          2   -1    0    0  502    0  0.00000000000E+00  0.00000000000E+00  0.15685869982E+04  0.15685869982E+04  0.00000000000E+00 0. -1.
          1   -1    0    0  501    0 -0.00000000000E+00 -0.00000000000E+00 -0.61238752706E+02  0.61238752706E+02  0.00000000000E+00 0. -1.
         25    1    1    2    0    0  0.56839276116E+02  0.10841384721E+03  0.34777953627E+03  0.38930691161E+03  0.12500000000E+03 0.  0.
          2    1    1    2  501    0  0.25637865356E+01 -0.89169610376E+02  0.10576623204E+02  0.89831271696E+02  0.00000000000E+00 0. -1.
          1    1    1    2  502    0 -0.59403062652E+02 -0.19244236832E+02  0.11489920861E+04  0.11506875677E+04  0.00000000000E+00 0. -1.
<mgrwt>
<rscale>  0 0.75624909E+02</rscale>
<asrwt>0</asrwt>
<pdfrwt beam="1">  1        2 0.24132105E+00 0.62442490E+02</pdfrwt>
<pdfrwt beam="2">  1        1 0.94213478E-02 0.91590308E+02</pdfrwt>
<totfact> 0.12551183E+03</totfact>
</mgrwt>
</event>
<event>
 5    1  0.9399923E-003  0.5470072E+02  0.7546771E-02  0.1557169E+00
          2   -1    0    0  502    0  0.00000000000E+00  0.00000000000E+00  0.21250851643E+04  0.21250851643E+04  0.00000000000E+00 0. -1.
         -2   -1    0    0    0  501 -0.00000000000E+00 -0.00000000000E+00 -0.28790450426E+02  0.28790450426E+02  0.00000000000E+00 0.  1.
         25    1    1    2    0    0 -0.29201484703E+02  0.19181719414E+02  0.12825181321E+04  0.12890688206E+04  0.12500000000E+03 0.  0.
          1    1    1    2  502    0 -0.20788053217E+02  0.41586074918E+01  0.80916692082E+03  0.80944458917E+03  0.00000000000E+00 0. -1.
         -1    1    1    2    0  501  0.49989537920E+02 -0.23340326906E+02  0.46096609223E+01  0.55362204936E+02  0.00000000000E+00 0.  1.
<mgrwt>
<rscale>  0 0.34053659E+02</rscale>
<asrwt>0</asrwt>
<pdfrwt beam="1">  1        2 0.32693606E+00 0.21199933E+02</pdfrwt>
<pdfrwt beam="2">  1       -2 0.44293017E-02 0.54700724E+02</pdfrwt>
<totfact> 0.17525584E+03</totfact>
</mgrwt>
</event>
<event>
 5    1  0.9399923E-003  0.2654432E+03  0.7546771E-02  0.1286280E+00
          2   -1    0    0  502    0  0.00000000000E+00  0.00000000000E+00  0.33612233938E+03  0.33612233938E+03  0.00000000000E+00 0. -1.
          1   -1    0    0  501    0 -0.00000000000E+00 -0.00000000000E+00 -0.78255985767E+03  0.78255985767E+03  0.00000000000E+00 0. -1.
         25    1    1    2    0    0 -0.24219282526E+03 -0.13836272165E+03 -0.47947700294E+03  0.56861657002E+03  0.12500000000E+03 0.  0.
          2    1    1    2  501    0  0.22261833764E+03  0.10862918875E+03 -0.19749304880E+03  0.31680077214E+03  0.00000000000E+00 0. -1.
          1    1    1    2  502    0  0.19574487623E+02  0.29733532899E+02  0.23053253346E+03  0.23326485489E+03  0.00000000000E+00 0. -1.
<mgrwt>
<rscale>  0 0.97207730E+02</rscale>
<asrwt>0</asrwt>
<pdfrwt beam="1">  1        2 0.51711130E-01 0.35598364E+02</pdfrwt>
<pdfrwt beam="2">  1        1 0.12039382E+00 0.26544317E+03</pdfrwt>
<totfact> 0.31313112E+02</totfact>
</mgrwt>
</event>
<event>
 5    1  0.9399923E-003  0.1148527E+03  0.7546771E-02  0.1271967E+00
          1   -1    0    0  501    0 -0.00000000000E+00  0.00000000000E+00  0.43376282054E+03  0.43376282054E+03  0.00000000000E+00 0. -1.
          2   -1    0    0  502    0  0.00000000000E+00 -0.00000000000E+00 -0.15381895028E+04  0.15381895028E+04  0.00000000000E+00 0. -1.
         25    1    1    2    0    0  0.46378413143E+02 -0.68298571873E+02 -0.14357735827E+03  0.20749725283E+03  0.12500000000E+03 0.  0.
          2    1    1    2  501    0 -0.11781971497E+03  0.67532864224E+01  0.39146014195E+03  0.40886199976E+03  0.00000000000E+00 0. -1.
          1    1    1    2  502    0  0.71441301824E+02  0.61545285450E+02 -0.13523094660E+04  0.13555930708E+04  0.00000000000E+00 0. -1.
<mgrwt>
<rscale>  0 0.10406787E+03</rscale>
<asrwt>0</asrwt>
<pdfrwt beam="2">  1        2 0.23664454E+00 0.94295714E+02</pdfrwt>
<pdfrwt beam="1">  1        1 0.66732741E-01 0.11485274E+03</pdfrwt>
<totfact> 0.10756398E+02</totfact>
</mgrwt>
</event>
<event>
 5    1  0.9399923E-003  0.1689415E+03  0.7546771E-02  0.1236673E+00
          1   -1    0    0  501    0 -0.00000000000E+00  0.00000000000E+00  0.48761570439E+03  0.48761570439E+03  0.00000000000E+00 0. -1.
          2   -1    0    0  502    0  0.00000000000E+00 -0.00000000000E+00 -0.93985046871E+03  0.93985046871E+03  0.00000000000E+00 0. -1.
         25    1    1    2    0    0  0.47936744652E+02 -0.13547800908E+03 -0.11160616248E+03  0.22075587860E+03  0.12500000000E+03 0.  0.
          2    1    1    2  501    0  0.36309690010E+02  0.16983636957E+03  0.41277983596E+03  0.44782806856E+03  0.00000000000E+00 0. -1.
          1    1    1    2  502    0 -0.84246434662E+02 -0.34358360489E+02 -0.75340843780E+03  0.75888222593E+03  0.00000000000E+00 0. -1.
<mgrwt>
<rscale>  0 0.12397923E+03</rscale>
<asrwt>0</asrwt>
<pdfrwt beam="2">  1        2 0.14459238E+00 0.90983288E+02</pdfrwt>
<pdfrwt beam="1">  1        1 0.75017801E-01 0.16894147E+03</pdfrwt>
<totfact> 0.19473864E+02</totfact>
</mgrwt>
</event>
<event>
 5    1  0.9399923E-003  0.1847335E+03  0.7546771E-02  0.1201427E+00
          2   -1    0    0  502    0  0.00000000000E+00  0.00000000000E+00  0.20363753145E+04  0.20363753145E+04  0.00000000000E+00 0. -1.
          1   -1    0    0  501    0 -0.00000000000E+00 -0.00000000000E+00 -0.74250608364E+03  0.74250608364E+03  0.00000000000E+00 0. -1.
         25    1    1    2    0    0 -0.18453298785E+03  0.17023212821E+03  0.33654650968E+03  0.43808669719E+03  0.12500000000E+03 0.  0.
          2    1    1    2  501    0  0.12053600595E+03 -0.14097098332E+01 -0.68148886508E+03  0.69206790797E+03  0.00000000000E+00 0. -1.
          1    1    1    2  502    0  0.63996981900E+02 -0.16882241837E+03  0.16388115863E+04  0.16487267930E+04  0.00000000000E+00 0. -1.
<mgrwt>
<rscale>  0 0.14922652E+03</rscale>
<asrwt>0</asrwt>
<pdfrwt beam="1">  1        2 0.31328851E+00 0.18473345E+03</pdfrwt>
<pdfrwt beam="2">  1        1 0.11423171E+00 0.12054425E+03</pdfrwt>
<totfact> 0.27244130E+01</totfact>
</mgrwt>
</event>
<event>
 5    1  0.9399923E-003  0.5088268E+02  0.7546771E-02  0.1526958E+00
          1   -1    0    0  501    0 -0.00000000000E+00  0.00000000000E+00  0.12109878320E+04  0.12109878320E+04  0.00000000000E+00 0. -1.
          2   -1    0    0  502    0  0.00000000000E+00 -0.00000000000E+00 -0.37840041239E+02  0.37840041239E+02  0.00000000000E+00 0. -1.
         25    1    1    2    0    0  0.26219993418E+02 -0.26567604304E+02  0.50501776954E+03  0.52159493212E+03  0.12500000000E+03 0.  0.
          2    1    1    2  501    0  0.23946003568E+02  0.13981139773E+02  0.67454597568E+03  0.67511566169E+03  0.00000000000E+00 0. -1.
          1    1    1    2  502    0 -0.50165996986E+02  0.12586464531E+02 -0.64159544694E+01  0.52117279426E+02  0.00000000000E+00 0. -1.
<mgrwt>
<rscale>  0 0.37562122E+02</rscale>
<asrwt>0</asrwt>
<pdfrwt beam="2">  1        2 0.58215457E-02 0.50882684E+02</pdfrwt>
<pdfrwt beam="1">  1        1 0.18630579E+00 0.27728746E+02</pdfrwt>
<totfact> 0.20521423E+03</totfact>
</mgrwt>
</event>
<event>
 5    1  0.9399923E-003  0.9840705E+02  0.7546771E-02  0.1352221E+00
          1   -1    0    0  501    0 -0.00000000000E+00  0.00000000000E+00  0.14141174522E+04  0.14141174522E+04  0.00000000000E+00 0. -1.
          2   -1    0    0  502    0  0.00000000000E+00 -0.00000000000E+00 -0.22693824284E+04  0.22693824284E+04  0.00000000000E+00 0. -1.
         25    1    1    2    0    0 -0.44501484092E+02  0.13008794695E+03 -0.72041879166E+02  0.19929447655E+03  0.12500000000E+03 0.  0.
          2    1    1    2  501    0  0.42308820451E+02 -0.32283637989E+02  0.13488447966E+04  0.13498942754E+04  0.00000000000E+00 0. -1.
          1    1    1    2  502    0  0.21926636409E+01 -0.97804308963E+02 -0.21320678937E+04  0.21343111286E+04  0.00000000000E+00 0. -1.
<mgrwt>
<rscale>  0 0.72368031E+02</rscale>
<asrwt>0</asrwt>
<pdfrwt beam="2">  1        2 0.34913576E+00 0.98407050E+02</pdfrwt>
<pdfrwt beam="1">  1        1 0.21755653E+00 0.53219071E+02</pdfrwt>
<totfact> 0.78480627E+00</totfact>
</mgrwt>
</event>
<event>
 5    1  0.9399923E-003  0.1106245E+03  0.7546771E-02  0.1357186E+00
         -2   -1    0    0    0  501 -0.00000000000E+00  0.00000000000E+00  0.72243911607E+03  0.72243911607E+03  0.00000000000E+00 0.  1.
          2   -1    0    0  502    0  0.00000000000E+00 -0.00000000000E+00 -0.13331052855E+04  0.13331052855E+04  0.00000000000E+00 0. -1.
         25    1    1    2    0    0  0.24248208331E+02  0.12506029585E+03  0.36909551124E+03  0.40998115764E+03  0.12500000000E+03 0.  0.
          1    1    1    2  502    0 -0.57667463178E+02 -0.94343134996E+02 -0.13087729773E+04  0.13134355216E+04  0.00000000000E+00 0. -1.
         -1    1    1    2    0  501  0.33419254848E+02 -0.30717160855E+02  0.32901129666E+03  0.33212772226E+03  0.00000000000E+00 0.  1.
<mgrwt>
<rscale>  0 0.70861951E+02</rscale>
<asrwt>0</asrwt>
<pdfrwt beam="2">  1        2 0.20509312E+00 0.11062453E+03</pdfrwt>
<pdfrwt beam="1">  1       -2 0.11114448E+00 0.45391525E+02</pdfrwt>
<totfact> 0.12877070E+01</totfact>
</mgrwt>
</event>
<event>
 5    1  0.9399923E-003  0.8434718E+02  0.7546771E-02  0.1467683E+00
          2   -1    0    0  502    0  0.00000000000E+00  0.00000000000E+00  0.27176855809E+03  0.27176855809E+03  0.00000000000E+00 0. -1.
          3   -1    0    0  501    0 -0.00000000000E+00 -0.00000000000E+00 -0.22573934137E+03  0.22573934137E+03  0.00000000000E+00 0. -1.
         25    1    1    2    0    0  0.78413131458E+02 -0.62265156974E+02 -0.53237769683E+02  0.16877449179E+03  0.12500000000E+03 0.  0.
          2    1    1    2  501    0 -0.53285160914E+02  0.60663964825E+02 -0.99634956917E+02  0.12824410178E+03  0.00000000000E+00 0. -1.
          1    1    1    2  502    0 -0.25127970544E+02  0.16011921489E+01  0.19890194332E+03  0.20048930589E+03  0.00000000000E+00 0. -1.
<mgrwt>
<rscale>  0 0.46084403E+02</rscale>
<asrwt>0</asrwt>
<pdfrwt beam="1">  1        2 0.41810547E-01 0.25178934E+02</pdfrwt>
<pdfrwt beam="2">  1        3 0.34729129E-01 0.84347184E+02</pdfrwt>
<totfact> 0.56097183E+02</totfact>
</mgrwt>
</event>
<event>
 5    1  0.9399923E-003  0.5487011E+02  0.7546771E-02  0.1516718E+00
          2   -1    0    0  502    0  0.00000000000E+00  0.00000000000E+00  0.40777114653E+03  0.40777114653E+03  0.00000000000E+00 0. -1.
          1   -1    0    0  501    0 -0.00000000000E+00 -0.00000000000E+00 -0.11736952350E+04  0.11736952350E+04  0.00000000000E+00 0. -1.
         25    1    1    2    0    0  0.21039287890E+02  0.27483111005E+02 -0.24063212128E+03  0.27336201421E+03  0.12500000000E+03 0.  0.
          2    1    1    2  501    0 -0.86263884752E+01  0.26145010065E+02 -0.91455462616E+03  0.91496892863E+03  0.00000000000E+00 0. -1.
          1    1    1    2  502    0 -0.12412899415E+02 -0.53628121070E+02  0.38926265900E+03  0.39313543866E+03  0.00000000000E+00 0. -1.
<mgrwt>
<rscale>  0 0.38867068E+02</rscale>
<asrwt>0</asrwt>
<pdfrwt beam="1">  1        2 0.62734022E-01 0.54870106E+02</pdfrwt>
<pdfrwt beam="2">  1        1 0.18056850E+00 0.27531366E+02</pdfrwt>
<totfact> 0.15414747E+02</totfact>
</mgrwt>
</event>
<event>
 5    1  0.9399923E-003  0.3062491E+02  0.7546771E-02  0.1620326E+00
          2   -1    0    0  502    0  0.00000000000E+00  0.00000000000E+00  0.23964338137E+04  0.23964338137E+04  0.00000000000E+00 0. -1.
         -2   -1    0    0    0  501 -0.00000000000E+00 -0.00000000000E+00 -0.50217633051E+02  0.50217633051E+02  0.00000000000E+00 0.  1.
         25    1    1    2    0    0 -0.44588181895E+02  0.28991082160E+02  0.14794744391E+04  0.14856978847E+04  0.12500000000E+03 0.  0.
          1    1    1    2  502    0  0.25177375290E+02 -0.53906837308E+01  0.90869040323E+03  0.90905511858E+03  0.00000000000E+00 0. -1.
         -1    1    1    2    0  501  0.19410806605E+02 -0.23600398430E+02 -0.41948661644E+02  0.51898443453E+02  0.00000000000E+00 0.  1.
<mgrwt>
<rscale>  0 0.28080784E+02</rscale>
<asrwt>0</asrwt>
<pdfrwt beam="1">  1        2 0.36868204E+00 0.25748004E+02</pdfrwt>
<pdfrwt beam="2">  1       -2 0.77257916E-02 0.30624915E+02</pdfrwt>
<totfact> 0.52470321E+02</totfact>
</mgrwt>
</event>
<event>
 5    1  0.9399923E-003  0.4510875E+02  0.7546771E-02  0.1528597E+00
          1   -1    0    0  501    0 -0.00000000000E+00  0.00000000000E+00  0.41336991620E+02  0.41336991620E+02  0.00000000000E+00 0. -1.
          2   -1    0    0  502    0  0.00000000000E+00 -0.00000000000E+00 -0.11464517559E+04  0.11464517559E+04  0.00000000000E+00 0. -1.
         25    1    1    2    0    0  0.47343785362E+02 -0.44148412731E+01 -0.32376891597E+03  0.35030306277E+03  0.12500000000E+03 0.  0.
          2    1    1    2  501    0 -0.32701724452E+02  0.31671728233E+02  0.91076778265E+01  0.46426834340E+02  0.00000000000E+00 0. -1.
          3    1    1    2  502    0 -0.14642060910E+02 -0.27256886960E+02 -0.79045352616E+03  0.79105885044E+03  0.00000000000E+00 0. -1.
<mgrwt>
<rscale>  0 0.37359029E+02</rscale>
<asrwt>0</asrwt>
<pdfrwt beam="2">  1        2 0.17637717E+00 0.30940715E+02</pdfrwt>
<pdfrwt beam="1">  1        1 0.63595381E-02 0.45108751E+02</pdfrwt>
<totfact> 0.34216786E+03</totfact>
</mgrwt>
</event>
<event>
 5    1  0.9399923E-003  0.1238056E+03  0.7546771E-02  0.1443401E+00
          2   -1    0    0  502    0  0.00000000000E+00  0.00000000000E+00  0.10626581724E+04  0.10626581724E+04  0.00000000000E+00 0. -1.
          1   -1    0    0  501    0 -0.00000000000E+00 -0.00000000000E+00 -0.93014128728E+02  0.93014128728E+02  0.00000000000E+00 0. -1.
         25    1    1    2    0    0  0.89749625327E+02  0.69265190760E+02  0.10057401563E+03  0.19645048872E+03  0.12500000000E+03 0.  0.
          2    1    1    2  501    0 -0.27910136512E+01  0.20294978125E+02 -0.38230891865E+02  0.43373690033E+02  0.00000000000E+00 0. -1.
          1    1    1    2  502    0 -0.86958611676E+02 -0.89560168885E+02  0.90730091991E+03  0.91584812238E+03  0.00000000000E+00 0. -1.
<mgrwt>
<rscale>  0 0.50361492E+02</rscale>
<asrwt>0</asrwt>
<pdfrwt beam="1">  1        2 0.16348586E+00 0.12380556E+03</pdfrwt>
<pdfrwt beam="2">  1        1 0.14309867E-01 0.20485993E+02</pdfrwt>
<totfact> 0.11728416E+03</totfact>
</mgrwt>
</event>
<event>
 5    1  0.9399923E-003  0.1209693E+03  0.7546771E-02  0.1296905E+00
          1   -1    0    0  502    0  0.00000000000E+00  0.00000000000E+00  0.30497573507E+03  0.30497573507E+03  0.00000000000E+00 0. -1.
         -1   -1    0    0    0  501 -0.00000000000E+00 -0.00000000000E+00 -0.93281139453E+03  0.93281139453E+03  0.00000000000E+00 0.  1.
         25    1    1    2    0    0  0.50153066165E+02  0.78567377644E+02  0.89008158898E+02  0.17954279497E+03  0.12500000000E+03 0.  0.
          2    1    1    2  502    0 -0.12088090573E+03 -0.77738479182E+02  0.13872888708E+03  0.19975276876E+03  0.00000000000E+00 0. -1.
         -2    1    1    2    0  501  0.70727839569E+02 -0.82889846221E+00 -0.85557270545E+03  0.85849156587E+03  0.00000000000E+00 0.  1.
<mgrwt>
<rscale>  0 0.92501259E+02</rscale>
<asrwt>0</asrwt>
<pdfrwt beam="1">  1        1 0.46919343E-01 0.12096927E+03</pdfrwt>
<pdfrwt beam="2">  1       -1 0.14350945E+00 0.70732697E+02</pdfrwt>
<totfact> 0.40136331E+01</totfact>
</mgrwt>
</event>
<event>
 5    1  0.9399923E-003  0.6311151E+02  0.7546771E-02  0.1509602E+00
         -2   -1    0    0    0  501 -0.00000000000E+00  0.00000000000E+00  0.85421819768E+02  0.85421819768E+02  0.00000000000E+00 0.  1.
          2   -1    0    0  502    0  0.00000000000E+00 -0.00000000000E+00 -0.88042179811E+03  0.88042179811E+03  0.00000000000E+00 0. -1.
         25    1    1    2    0    0 -0.56923749993E+02  0.13230543923E+02 -0.63992160468E+02  0.15210311373E+03  0.12500000000E+03 0.  0.
          3    1    1    2  502    0  0.40588150565E+01  0.24783698522E+02 -0.74640809648E+03  0.74683047085E+03  0.00000000000E+00 0. -1.
         -1    1    1    2    0  501  0.52864934936E+02 -0.38014242445E+02  0.15400278609E+02  0.66910033296E+02  0.00000000000E+00 0.  1.
<mgrwt>
<rscale>  0 0.39811722E+02</rscale>
<asrwt>0</asrwt>
<pdfrwt beam="2">  1        2 0.13544952E+00 0.25113855E+02</pdfrwt>
<pdfrwt beam="1">  1       -2 0.13141818E-01 0.63111507E+02</pdfrwt>
<totfact> 0.13719718E+03</totfact>
</mgrwt>
</event>
<event>
 5    1  0.9399923E-003  0.6793305E+02  0.7546771E-02  0.1380783E+00
         -2   -1    0    0    0  501 -0.00000000000E+00  0.00000000000E+00  0.85402851173E+03  0.85402851173E+03  0.00000000000E+00 0.  1.
          2   -1    0    0  502    0  0.00000000000E+00 -0.00000000000E+00 -0.82253282591E+03  0.82253282591E+03  0.00000000000E+00 0. -1.
         25    1    1    2    0    0  0.65471272977E+02 -0.78676419018E+02 -0.10012000928E+03  0.19006704804E+03  0.12500000000E+03 0.  0.
          1    1    1    2  502    0 -0.10217168461E+00  0.60782460888E+02 -0.67465127078E+03  0.67738383149E+03  0.00000000000E+00 0. -1.
         -1    1    1    2    0  501 -0.65369101292E+02  0.17893958129E+02  0.80626696588E+03  0.80911045811E+03  0.00000000000E+00 0.  1.
<mgrwt>
<rscale>  0 0.64258413E+02</rscale>
<asrwt>0</asrwt>
<pdfrwt beam="2">  1        2 0.12654351E+00 0.60782547E+02</pdfrwt>
<pdfrwt beam="1">  1       -2 0.13138900E+00 0.67933048E+02</pdfrwt>
<totfact> 0.17305928E+01</totfact>
</mgrwt>
</event>
<event>
 5    1  0.9399923E-003  0.9802544E+02  0.7546771E-02  0.1305159E+00
          1   -1    0    0  501    0 -0.00000000000E+00  0.00000000000E+00  0.52621128568E+02  0.52621128568E+02  0.00000000000E+00 0. -1.
          2   -1    0    0  502    0  0.00000000000E+00 -0.00000000000E+00 -0.14582969169E+04  0.14582969169E+04  0.00000000000E+00 0. -1.
         25    1    1    2    0    0 -0.49551258033E+02 -0.29073813921E+02 -0.21210333138E+03  0.25281106979E+03  0.12500000000E+03 0.  0.
          2    1    1    2  501    0  0.31836693923E+02 -0.74375972113E+02 -0.24782447709E+02  0.84614006064E+02  0.00000000000E+00 0. -1.
          1    1    1    2  502    0  0.17714564110E+02  0.10344978603E+03 -0.11687900093E+04  0.11734929697E+04  0.00000000000E+00 0. -1.
<mgrwt>
<rscale>  0 0.89053871E+02</rscale>
<asrwt>0</asrwt>
<pdfrwt beam="2">  1        2 0.22435332E+00 0.98025445E+02</pdfrwt>
<pdfrwt beam="1">  1        1 0.80955600E-02 0.80903401E+02</pdfrwt>
<totfact> 0.16637392E+03</totfact>
</mgrwt>
</event>
<event>
 5    1  0.9399923E-003  0.3281754E+03  0.7546771E-02  0.1270756E+00
          2   -1    0    0  502    0  0.00000000000E+00  0.00000000000E+00  0.48697348471E+03  0.48697348471E+03  0.00000000000E+00 0. -1.
          1   -1    0    0  501    0 -0.00000000000E+00 -0.00000000000E+00 -0.19562377188E+04  0.19562377188E+04  0.00000000000E+00 0. -1.
         25    1    1    2    0    0 -0.30495011840E+03 -0.10846470999E+03  0.36894000560E+01  0.34698383204E+03  0.12500000000E+03 0.  0.
          2    1    1    2  501    0  0.29697239378E+03  0.14088655320E+03 -0.17685071704E+04  0.17987938279E+04  0.00000000000E+00 0. -1.
          1    1    1    2  502    0  0.79777246164E+01 -0.32421843209E+02  0.29555353628E+03  0.29743354353E+03  0.00000000000E+00 0. -1.
<mgrwt>
<rscale>  0 0.10467770E+03</rscale>
<asrwt>0</asrwt>
<pdfrwt beam="1">  1        2 0.74918999E-01 0.33388920E+02</pdfrwt>
<pdfrwt beam="2">  1        1 0.30095965E+00 0.32817538E+03</pdfrwt>
<totfact> 0.31880288E+01</totfact>
</mgrwt>
</event>
<event>
 5    1  0.9399923E-003  0.6572755E+02  0.7546771E-02  0.1390928E+00
         -1   -1    0    0    0  501 -0.00000000000E+00  0.00000000000E+00  0.11030006693E+03  0.11030006693E+03  0.00000000000E+00 0.  1.
          1   -1    0    0  502    0  0.00000000000E+00 -0.00000000000E+00 -0.11765380658E+04  0.11765380658E+04  0.00000000000E+00 0. -1.
         25    1    1    2    0    0  0.50061468001E+02 -0.96938128137E+01 -0.39264230429E+03  0.41520248037E+03  0.12500000000E+03 0.  0.
          2    1    1    2  502    0 -0.51709153010E+02 -0.48157626756E+02 -0.76238336812E+03  0.76565096062E+03  0.00000000000E+00 0. -1.
         -2    1    1    2    0  501  0.16476850089E+01  0.57851439570E+02  0.88787673501E+02  0.10598469178E+03  0.00000000000E+00 0.  1.
<mgrwt>
<rscale>  0 0.61676374E+02</rscale>
<asrwt>0</asrwt>
<pdfrwt beam="2">  1        1 0.18100586E+00 0.65727547E+02</pdfrwt>
<pdfrwt beam="1">  1       -1 0.16969241E-01 0.57874899E+02</pdfrwt>
<totfact> 0.32906970E+02</totfact>
</mgrwt>
</event>
<event>
 5    1  0.9399923E-003  0.1377222E+03  0.7546771E-02  0.1336692E+00
          2   -1    0    0  502    0  0.00000000000E+00  0.00000000000E+00  0.12594651952E+04  0.12594651952E+04  0.00000000000E+00 0. -1.
          1   -1    0    0  501    0 -0.00000000000E+00 -0.00000000000E+00 -0.79343376086E+02  0.79343376086E+02  0.00000000000E+00 0. -1.
         25    1    1    2    0    0 -0.10841766670E+03 -0.13722648119E+03  0.49295795336E+03  0.53778996027E+03  0.12500000000E+03 0.  0.
          2    1    1    2  501    0  0.76415742716E+02  0.10781791533E+03  0.21442475420E+02  0.13387997742E+03  0.00000000000E+00 0. -1.
          1    1    1    2  502    0  0.32001923988E+02  0.29408565859E+02  0.66572139029E+03  0.66713863355E+03  0.00000000000E+00 0. -1.
<mgrwt>
<rscale>  0 0.77367625E+02</rscale>
<asrwt>0</asrwt>
<pdfrwt beam="1">  1        2 0.19376386E+00 0.43462477E+02</pdfrwt>
<pdfrwt beam="2">  1        1 0.12206674E-01 0.13772223E+03</pdfrwt>
<totfact> 0.13471130E+03</totfact>
</mgrwt>
</event>
<event>
 5    1  0.9399923E-003  0.1231225E+03  0.7546771E-02  0.1302296E+00
         -1   -1    0    0    0  501 -0.00000000000E+00  0.00000000000E+00  0.10735468655E+04  0.10735468655E+04  0.00000000000E+00 0.  1.
          1   -1    0    0  502    0  0.00000000000E+00 -0.00000000000E+00 -0.23670667305E+04  0.23670667305E+04  0.00000000000E+00 0. -1.
         25    1    1    2    0    0 -0.40263147248E+02 -0.62273101053E+02 -0.82878524905E+01  0.14557729438E+03  0.12500000000E+03 0.  0.
          2    1    1    2  502    0  0.21982478850E+02 -0.62364061697E+02 -0.22857063348E+04  0.22866626236E+04  0.00000000000E+00 0. -1.
         -2    1    1    2    0  501  0.18280668398E+02  0.12463716275E+03  0.10004743222E+04  0.10083736780E+04  0.00000000000E+00 0.  1.
<mgrwt>
<rscale>  0 0.90230060E+02</rscale>
<asrwt>0</asrwt>
<pdfrwt beam="2">  1        1 0.36416411E+00 0.66124924E+02</pdfrwt>
<pdfrwt beam="1">  1       -1 0.16516106E+00 0.12312247E+03</pdfrwt>
<totfact> 0.74125878E-01</totfact>
</mgrwt>
</event>
<event>
 5    1  0.9399923E-003  0.1109534E+03  0.7546771E-02  0.1298539E+00
          1   -1    0    0  501    0 -0.00000000000E+00  0.00000000000E+00  0.19170831789E+03  0.19170831789E+03  0.00000000000E+00 0. -1.
          2   -1    0    0  502    0  0.00000000000E+00 -0.00000000000E+00 -0.19129462808E+04  0.19129462808E+04  0.00000000000E+00 0. -1.
         25    1    1    2    0    0  0.54548657500E+02 -0.10620511263E+03 -0.10925047807E+02  0.17320346028E+03  0.12500000000E+03 0.  0.
          2    1    1    2  501    0 -0.75900495872E+02 -0.30332485949E+01  0.95604005346E+02  0.12210737778E+03  0.00000000000E+00 0. -1.
          1    1    1    2  502    0  0.21351838373E+02  0.10923836122E+03 -0.18059169205E+04  0.18093437607E+04  0.00000000000E+00 0. -1.
<mgrwt>
<rscale>  0 0.91804897E+02</rscale>
<asrwt>0</asrwt>
<pdfrwt beam="2">  1        2 0.29429943E+00 0.11095339E+03</pdfrwt>
<pdfrwt beam="1">  1        1 0.29493587E-01 0.75961081E+02</pdfrwt>
<totfact> 0.18656952E+02</totfact>
</mgrwt>
</event>
<event>
 5    1  0.9399923E-003  0.6023736E+02  0.7546771E-02  0.1434150E+00
          1   -1    0    0  501    0 -0.00000000000E+00  0.00000000000E+00  0.24126271838E+03  0.24126271838E+03  0.00000000000E+00 0. -1.
          2   -1    0    0  502    0  0.00000000000E+00 -0.00000000000E+00 -0.16121743681E+03  0.16121743681E+03  0.00000000000E+00 0. -1.
         25    1    1    2    0    0  0.54206085083E+02  0.18819163811E+02  0.13308732653E+01  0.13754719848E+03  0.12500000000E+03 0.  0.
          2    1    1    2  501    0 -0.55902040008E+02  0.26273111301E+02  0.16025082589E+03  0.17174295226E+03  0.00000000000E+00 0. -1.
          1    1    1    2  502    0  0.16959549246E+01 -0.45092275112E+02 -0.81536417581E+02  0.93190004452E+02  0.00000000000E+00 0. -1.
<mgrwt>
<rscale>  0 0.52135976E+02</rscale>
<asrwt>0</asrwt>
<pdfrwt beam="2">  1        2 0.24802683E-01 0.45124157E+02</pdfrwt>
<pdfrwt beam="1">  1        1 0.37117341E-01 0.60237359E+02</pdfrwt>
<totfact> 0.31765943E+03</totfact>
</mgrwt>
</event>
<event>
 5    1  0.9399923E-003  0.1247043E+03  0.7546771E-02  0.1368424E+00
          2   -1    0    0  502    0  0.00000000000E+00  0.00000000000E+00  0.39859556805E+03  0.39859556805E+03  0.00000000000E+00 0. -1.
          1   -1    0    0  501    0 -0.00000000000E+00 -0.00000000000E+00 -0.29511483819E+03  0.29511483819E+03  0.00000000000E+00 0. -1.
         25    1    1    2    0    0  0.95238990550E+02  0.36675244281E+02 -0.15738134084E+03  0.22540946144E+03  0.12500000000E+03 0.  0.
          2    1    1    2  501    0  0.80789752463E+01  0.35751217087E+02 -0.89069795769E+02  0.96316394671E+02  0.00000000000E+00 0. -1.
          1    1    1    2  502    0 -0.10331796580E+03 -0.72426461368E+02  0.34993186647E+03  0.37198455013E+03  0.00000000000E+00 0. -1.
<mgrwt>
<rscale>  0 0.67607292E+02</rscale>
<asrwt>0</asrwt>
<pdfrwt beam="1">  1        2 0.61322395E-01 0.12470426E+03</pdfrwt>
<pdfrwt beam="2">  1        1 0.45402283E-01 0.36652686E+02</pdfrwt>
<totfact> 0.97626201E+02</totfact>
</mgrwt>
</event>
<event>
 5    1  0.9399923E-003  0.5730681E+02  0.7546771E-02  0.1447906E+00
         -1   -1    0    0    0  502 -0.00000000000E+00  0.00000000000E+00  0.54399652347E+03  0.54399652347E+03  0.00000000000E+00 0.  1.
         -2   -1    0    0    0  501  0.00000000000E+00 -0.00000000000E+00 -0.98291085367E+02  0.98291085367E+02  0.00000000000E+00 0.  1.
         25    1    1    2    0    0  0.18298515131E+02 -0.29882307927E+02 -0.20834387380E+02  0.13147950289E+03  0.12500000000E+03 0.  0.
         -2    1    1    2    0  502 -0.52987564451E+02 -0.21826322894E+02  0.43899761474E+03  0.44272223357E+03  0.00000000000E+00 0.  1.
         -1    1    1    2    0  501  0.34689049320E+02  0.51708630821E+02  0.27542210750E+02  0.68085872375E+02  0.00000000000E+00 0.  1.
<mgrwt>
<rscale>  0 0.49527639E+02</rscale>
<asrwt>0</asrwt>
<pdfrwt beam="2">  1       -2 0.15121706E-01 0.42804460E+02</pdfrwt>
<pdfrwt beam="1">  1       -1 0.83691771E-01 0.57306809E+02</pdfrwt>
<totfact> 0.35651781E+02</totfact>
</mgrwt>
</event>
<event>
 5    1  0.9399923E-003  0.7294551E+02  0.7546771E-02  0.1400185E+00
          2   -1    0    0  502    0  0.00000000000E+00  0.00000000000E+00  0.14523408638E+04  0.14523408638E+04  0.00000000000E+00 0. -1.
          1   -1    0    0  501    0 -0.00000000000E+00 -0.00000000000E+00 -0.17310201893E+03  0.17310201893E+03  0.00000000000E+00 0. -1.
         25    1    1    2    0    0  0.29558321187E+02 -0.11623887992E+03  0.14495979977E+03  0.22588385313E+03  0.12500000000E+03 0.  0.
          2    1    1    2  501    0 -0.15703415736E+02  0.45823623703E+02 -0.12716333777E+03  0.13607687617E+03  0.00000000000E+00 0. -1.
          1    1    1    2  502    0 -0.13854905452E+02  0.70415256222E+02  0.12614423828E+04  0.12634821534E+04  0.00000000000E+00 0. -1.
<mgrwt>
<rscale>  0 0.59442885E+02</rscale>
<asrwt>0</asrwt>
<pdfrwt beam="1">  1        2 0.22343705E+00 0.72945511E+02</pdfrwt>
<pdfrwt beam="2">  1        1 0.26631081E-01 0.48439671E+02</pdfrwt>
<totfact> 0.37049121E+02</totfact>
</mgrwt>
</event>
<event>
 5    1  0.9399923E-003  0.9139212E+02  0.7546771E-02  0.1326166E+00
          2   -1    0    0  502    0  0.00000000000E+00  0.00000000000E+00  0.11107109858E+04  0.11107109858E+04  0.00000000000E+00 0. -1.
         -2   -1    0    0    0  501 -0.00000000000E+00 -0.00000000000E+00 -0.32343855477E+02  0.32343855477E+02  0.00000000000E+00 0.  1.
         25    1    1    2    0    0  0.56273402656E+02  0.34032187511E+02  0.54395270278E+03  0.56199148436E+03  0.12500000000E+03 0.  0.
          3    1    1    2  502    0 -0.52238639401E+02 -0.10575364176E+03  0.47000998410E+03  0.48458445430E+03  0.00000000000E+00 0. -1.
         -1    1    1    2    0  501 -0.40347632547E+01  0.71721454246E+02  0.64404443418E+02  0.96478902594E+02  0.00000000000E+00 0.  1.
<mgrwt>
<rscale>  0 0.81025551E+02</rscale>
<asrwt>0</asrwt>
<pdfrwt beam="1">  1        2 0.17087858E+00 0.91392125E+02</pdfrwt>
<pdfrwt beam="2">  1       -2 0.49759786E-02 0.71834854E+02</pdfrwt>
<totfact> 0.41944666E+03</totfact>
</mgrwt>
</event>
<event>
 5    1  0.9399923E-003  0.4442541E+02  0.7546771E-02  0.1586606E+00
          1   -1    0    0  501    0 -0.00000000000E+00  0.00000000000E+00  0.48888863238E+03  0.48888863238E+03  0.00000000000E+00 0. -1.
          2   -1    0    0  502    0  0.00000000000E+00 -0.00000000000E+00 -0.12074224312E+04  0.12074224312E+04  0.00000000000E+00 0. -1.
         25    1    1    2    0    0  0.15628525842E+02 -0.24064579000E+02 -0.11732455717E+03  0.17382004055E+03  0.12500000000E+03 0.  0.
          2    1    1    2  501    0 -0.83277584070E+01 -0.20062974534E+02  0.45991341414E+03  0.46042613198E+03  0.00000000000E+00 0. -1.
          1    1    1    2  502    0 -0.73007674353E+01  0.44127553534E+02 -0.10611226558E+04  0.10620648910E+04  0.00000000000E+00 0. -1.
<mgrwt>
<rscale>  0 0.31065072E+02</rscale>
<asrwt>0</asrwt>
<pdfrwt beam="2">  1        2 0.18575729E+00 0.44425411E+02</pdfrwt>
<pdfrwt beam="1">  1        1 0.75213637E-01 0.21722673E+02</pdfrwt>
<totfact> 0.14956099E+02</totfact>
</mgrwt>
</event>
<event>
 5    1  0.9399923E-003  0.1630235E+04  0.7546771E-02  0.1055126E+00
          1   -1    0    0  501    0 -0.00000000000E+00  0.00000000000E+00  0.25802992362E+04  0.25802992362E+04  0.00000000000E+00 0. -1.
          2   -1    0    0  502    0  0.00000000000E+00 -0.00000000000E+00 -0.29236307224E+04  0.29236307224E+04  0.00000000000E+00 0. -1.
         25    1    1    2    0    0  0.12230556373E+04 -0.10974833839E+04 -0.69147843084E+03  0.17872051618E+04  0.12500000000E+03 0.  0.
          2    1    1    2  501    0  0.36018267806E+02  0.75291306673E+02  0.16407353188E+04  0.16428568054E+04  0.00000000000E+00 0. -1.
          1    1    1    2  502    0 -0.12590739051E+04  0.10221920773E+04 -0.12925883741E+04  0.20738679915E+04  0.00000000000E+00 0. -1.
<mgrwt>
<rscale>  0 0.36886931E+03</rscale>
<asrwt>0</asrwt>
<pdfrwt beam="2">  1        2 0.44978934E+00 0.16302353E+04</pdfrwt>
<pdfrwt beam="1">  1        1 0.39696911E+00 0.83463144E+02</pdfrwt>
<totfact> 0.42148359E-01</totfact>
</mgrwt>
</event>
<event>
 5    1  0.9399923E-003  0.5426726E+02  0.7546771E-02  0.1471580E+00
          2   -1    0    0  502    0  0.00000000000E+00  0.00000000000E+00  0.19284844234E+04  0.19284844234E+04  0.00000000000E+00 0. -1.
         -2   -1    0    0    0  501 -0.00000000000E+00 -0.00000000000E+00 -0.32018137440E+02  0.32018137440E+02  0.00000000000E+00 0.  1.
         25    1    1    2    0    0  0.64316238516E+02  0.60090163518E+02  0.74012440206E+03  0.75574899062E+03  0.12500000000E+03 0.  0.
          1    1    1    2  502    0 -0.31109776243E+02 -0.41496845562E+02  0.11646462745E+04  0.11658004765E+04  0.00000000000E+00 0. -1.
         -3    1    1    2    0  501 -0.33206462273E+02 -0.18593317956E+02 -0.83043905584E+01  0.38953093739E+02  0.00000000000E+00 0.  1.
<mgrwt>
<rscale>  0 0.45445369E+02</rscale>
<asrwt>0</asrwt>
<pdfrwt beam="1">  1        2 0.29668982E+00 0.54267264E+02</pdfrwt>
<pdfrwt beam="2">  1       -2 0.49258688E-02 0.38057596E+02</pdfrwt>
<totfact> 0.15849275E+03</totfact>
</mgrwt>
</event>
<event>
 5    1  0.9399923E-003  0.4736743E+02  0.7546771E-02  0.1486477E+00
          2   -1    0    0  502    0  0.00000000000E+00  0.00000000000E+00  0.13329156280E+04  0.13329156280E+04  0.00000000000E+00 0. -1.
          1   -1    0    0  501    0 -0.00000000000E+00 -0.00000000000E+00 -0.21609407125E+03  0.21609407125E+03  0.00000000000E+00 0. -1.
         25    1    1    2    0    0  0.21540820728E+01 -0.24497645763E+02  0.59464779026E+03  0.60814124114E+03  0.12500000000E+03 0.  0.
          2    1    1    2  501    0 -0.41378549855E+02  0.23361220043E+02 -0.20611593090E+03  0.21152235806E+03  0.00000000000E+00 0. -1.
          1    1    1    2  502    0  0.39224467782E+02  0.11364257196E+01  0.72828969738E+03  0.72934610004E+03  0.00000000000E+00 0. -1.
<mgrwt>
<rscale>  0 0.43113130E+02</rscale>
<asrwt>0</asrwt>
<pdfrwt beam="1">  1        2 0.20506394E+00 0.39240927E+02</pdfrwt>
<pdfrwt beam="2">  1        1 0.33245242E-01 0.47367434E+02</pdfrwt>
<totfact> 0.34241114E+02</totfact>
</mgrwt>
</event>
<event>
 5    1  0.9399923E-003  0.5978891E+02  0.7546771E-02  0.1424725E+00
          2   -1    0    0  502    0  0.00000000000E+00  0.00000000000E+00  0.11782936979E+04  0.11782936979E+04  0.00000000000E+00 0. -1.
          1   -1    0    0  501    0 -0.00000000000E+00 -0.00000000000E+00 -0.13345601080E+03  0.13345601080E+03  0.00000000000E+00 0. -1.
         25    1    1    2    0    0 -0.11442150099E+02  0.65413138843E+01  0.15993000570E+03  0.20341169659E+03  0.12500000000E+03 0.  0.
          2    1    1    2  501    0 -0.45875246531E+02  0.16735112839E+02 -0.10536708880E+03  0.11613279316E+03  0.00000000000E+00 0. -1.
          1    1    1    2  502    0  0.57317396629E+02 -0.23276426723E+02  0.99027477022E+03  0.99220521896E+03  0.00000000000E+00 0. -1.
<mgrwt>
<rscale>  0 0.54033651E+02</rscale>
<asrwt>0</asrwt>
<pdfrwt beam="1">  1        2 0.18127595E+00 0.59788912E+02</pdfrwt>
<pdfrwt beam="2">  1        1 0.20531695E-01 0.48832389E+02</pdfrwt>
<totfact> 0.71631276E+02</totfact>
</mgrwt>
</event>
<event>
 5    1  0.9399923E-003  0.1066618E+03  0.7546771E-02  0.1419972E+00
          2   -1    0    0  502    0  0.00000000000E+00  0.00000000000E+00  0.14233811051E+04  0.14233811051E+04  0.00000000000E+00 0. -1.
         -2   -1    0    0    0  501 -0.00000000000E+00 -0.00000000000E+00 -0.12800996290E+03  0.12800996290E+03  0.00000000000E+00 0.  1.
         25    1    1    2    0    0 -0.90569088430E+02  0.28393932393E+02  0.61755983709E+02  0.16866468717E+03  0.12500000000E+03 0.  0.
          1    1    1    2  502    0  0.10713427152E+03 -0.53396659424E+01  0.13031824909E+04  0.13075897173E+04  0.00000000000E+00 0. -1.
         -1    1    1    2    0  501 -0.16565183090E+02 -0.23054266450E+02 -0.69567332327E+02  0.75136663617E+02  0.00000000000E+00 0.  1.
<mgrwt>
<rscale>  0 0.55026947E+02</rscale>
<asrwt>0</asrwt>
<pdfrwt beam="1">  1        2 0.21898170E+00 0.10666184E+03</pdfrwt>
<pdfrwt beam="2">  1       -2 0.19693841E-01 0.28388457E+02</pdfrwt>
<totfact> 0.31749688E+02</totfact>
</mgrwt>
</event>
<event>
 5    1  0.9399923E-003  0.1184236E+03  0.7546771E-02  0.1315305E+00
          1   -1    0    0  501    0 -0.00000000000E+00  0.00000000000E+00  0.26926323279E+04  0.26926323279E+04  0.00000000000E+00 0. -1.
          2   -1    0    0  502    0  0.00000000000E+00 -0.00000000000E+00 -0.14099034758E+04  0.14099034758E+04  0.00000000000E+00 0. -1.
         25    1    1    2    0    0  0.19998939594E+02 -0.11360317150E+03  0.15052441404E+04  0.15148236070E+04  0.12500000000E+03 0.  0.
          2    1    1    2  501    0 -0.61029364655E+02  0.24815776015E+01  0.11793101984E+04  0.11808908864E+04  0.00000000000E+00 0. -1.
          1    1    1    2  502    0  0.41030425061E+02  0.11112159390E+03 -0.14018254866E+04  0.14068213104E+04  0.00000000000E+00 0. -1.
<mgrwt>
<rscale>  0 0.85048756E+02</rscale>
<asrwt>0</asrwt>
<pdfrwt beam="2">  1        2 0.21690823E+00 0.11842362E+03</pdfrwt>
<pdfrwt beam="1">  1        1 0.41425112E+00 0.61079797E+02</pdfrwt>
<totfact> 0.33089780E+00</totfact>
</mgrwt>
</event>
<event>
 5    1  0.9399923E-003  0.5420319E+02  0.7546771E-02  0.1554203E+00
          2   -1    0    0  502    0  0.00000000000E+00  0.00000000000E+00  0.26171379163E+02  0.26171379163E+02  0.00000000000E+00 0. -1.
          1   -1    0    0  501    0 -0.00000000000E+00 -0.00000000000E+00 -0.44477925190E+03  0.44477925190E+03  0.00000000000E+00 0. -1.
         25    1    1    2    0    0 -0.48647363648E+02  0.27094053721E+02 -0.29075595522E+03  0.32134822114E+03  0.12500000000E+03 0.  0.
          2    1    1    2  501    0  0.54546103090E+02 -0.61043785905E+01 -0.10159610087E+03  0.11547427641E+03  0.00000000000E+00 0. -1.
          1    1    1    2  502    0 -0.58987394419E+01 -0.20989675131E+02 -0.26255816652E+02  0.34128133514E+02  0.00000000000E+00 0. -1.
<mgrwt>
<rscale>  0 0.34377038E+02</rscale>
<asrwt>0</asrwt>
<pdfrwt beam="1">  1        2 0.40263662E-02 0.21802789E+02</pdfrwt>
<pdfrwt beam="2">  1        1 0.68427574E-01 0.54203191E+02</pdfrwt>
<totfact> 0.11718076E+04</totfact>
</mgrwt>
</event>
<event>
 5    1  0.9399923E-003  0.4462762E+02  0.7546771E-02  0.1573318E+00
          2   -1    0    0  502    0  0.00000000000E+00  0.00000000000E+00  0.91649878394E+03  0.91649878394E+03  0.00000000000E+00 0. -1.
          1   -1    0    0  501    0 -0.00000000000E+00 -0.00000000000E+00 -0.30072470923E+02  0.30072470923E+02  0.00000000000E+00 0. -1.
         25    1    1    2    0    0 -0.29584763016E+02  0.16919071261E+02  0.16589772241E+03  0.21049600346E+03  0.12500000000E+03 0.  0.
          2    1    1    2  501    0  0.50015566705E+02 -0.53614880440E+01  0.76118347932E+02  0.91237631265E+02  0.00000000000E+00 0. -1.
          1    1    1    2  502    0 -0.20430803689E+02 -0.11557583217E+02  0.64441024268E+03  0.64483762013E+03  0.00000000000E+00 0. -1.
<mgrwt>
<rscale>  0 0.32365987E+02</rscale>
<asrwt>0</asrwt>
<pdfrwt beam="1">  1        2 0.14099979E+00 0.23473293E+02</pdfrwt>
<pdfrwt beam="2">  1        1 0.46265347E-02 0.44627616E+02</pdfrwt>
<totfact> 0.70253959E+03</totfact>
</mgrwt>
</event>
<event>
 5    1  0.9399923E-003  0.1470980E+03  0.7546771E-02  0.1334886E+00
          2   -1    0    0  502    0  0.00000000000E+00  0.00000000000E+00  0.60257168404E+03  0.60257168404E+03  0.00000000000E+00 0. -1.
          1   -1    0    0  501    0 -0.00000000000E+00 -0.00000000000E+00 -0.91398923486E+03  0.91398923486E+03  0.00000000000E+00 0. -1.
         25    1    1    2    0    0 -0.17060187398E+03  0.21436599116E+02  0.10639365324E+03  0.23771650476E+03  0.12500000000E+03 0.  0.
          2    1    1    2  501    0  0.14584635340E+03  0.11669552876E+02 -0.84100452169E+03  0.85363689164E+03  0.00000000000E+00 0. -1.
          1    1    1    2  502    0  0.24755520582E+02 -0.33106151992E+02  0.42319331763E+03  0.42520752249E+03  0.00000000000E+00 0. -1.
<mgrwt>
<rscale>  0 0.77979339E+02</rscale>
<asrwt>0</asrwt>
<pdfrwt beam="1">  1        2 0.92703336E-01 0.41338276E+02</pdfrwt>
<pdfrwt beam="2">  1        1 0.14061373E+00 0.14709799E+03</pdfrwt>
<totfact> 0.13844395E+02</totfact>
</mgrwt>
</event>
<event>
 5    1  0.9399923E-003  0.3254971E+03  0.7546771E-02  0.1294240E+00
          2   -1    0    0  502    0  0.00000000000E+00  0.00000000000E+00  0.14248519229E+04  0.14248519229E+04  0.00000000000E+00 0. -1.
          1   -1    0    0  501    0 -0.00000000000E+00 -0.00000000000E+00 -0.52338835888E+03  0.52338835888E+03  0.00000000000E+00 0. -1.
         25    1    1    2    0    0  0.34176056792E+03 -0.51936157302E+01  0.50417045473E+02  0.36741548402E+03  0.12500000000E+03 0.  0.
          2    1    1    2  501    0 -0.31993877468E+03 -0.10614426175E+02 -0.29449156068E+03  0.43496984367E+03  0.00000000000E+00 0. -1.
          1    1    1    2  502    0 -0.21821793236E+02  0.15808041905E+02  0.11455380793E+04  0.11458549541E+04  0.00000000000E+00 0. -1.
<mgrwt>
<rscale>  0 0.93652721E+02</rscale>
<asrwt>0</asrwt>
<pdfrwt beam="1">  1        2 0.21920799E+00 0.26945962E+02</pdfrwt>
<pdfrwt beam="2">  1        1 0.80521287E-01 0.32549709E+03</pdfrwt>
<totfact> 0.10422600E+02</totfact>
</mgrwt>
</event>
<event>
 5    1  0.9399923E-003  0.4759042E+02  0.7546771E-02  0.1484418E+00
         -1   -1    0    0    0  501 -0.00000000000E+00  0.00000000000E+00  0.59206107147E+02  0.59206107147E+02  0.00000000000E+00 0.  1.
          1   -1    0    0  502    0  0.00000000000E+00 -0.00000000000E+00 -0.26252593491E+03  0.26252593491E+03  0.00000000000E+00 0. -1.
         25    1    1    2    0    0  0.58588809160E+02 -0.19849534278E+02 -0.11023794547E+03  0.17777529972E+03  0.12500000000E+03 0.  0.
          2    1    1    2  502    0 -0.33990855114E+02 -0.20365544547E+02 -0.88040312191E+02  0.96546518357E+02  0.00000000000E+00 0. -1.
         -2    1    1    2    0  501 -0.24597954046E+02  0.40215078826E+02 -0.50415700978E+01  0.47410223974E+02  0.00000000000E+00 0.  1.
<mgrwt>
<rscale>  0 0.43425408E+02</rscale>
<asrwt>0</asrwt>
<pdfrwt beam="2">  1        1 0.40388606E-01 0.39624912E+02</pdfrwt>
<pdfrwt beam="1">  1       -1 0.91086318E-02 0.47590417E+02</pdfrwt>
<totfact> 0.63763313E+03</totfact>
</mgrwt>
</event>
<event>
 5    1  0.9399923E-003  0.1408428E+03  0.7546771E-02  0.1398587E+00
          2   -1    0    0  502    0  0.00000000000E+00  0.00000000000E+00  0.34841407324E+03  0.34841407324E+03  0.00000000000E+00 0. -1.
         -2   -1    0    0    0  501 -0.00000000000E+00 -0.00000000000E+00 -0.21955915243E+03  0.21955915243E+03  0.00000000000E+00 0.  1.
         25    1    1    2    0    0  0.12824494822E+03 -0.40314414416E+02  0.25952975900E+03  0.31788789621E+03  0.12500000000E+03 0.  0.
          1    1    1    2  502    0 -0.27179917115E+01 -0.25261846021E+02  0.27724400140E+02  0.37605727043E+02  0.00000000000E+00 0. -1.
         -1    1    1    2    0  501 -0.12552695650E+03  0.65576260436E+02 -0.15839923832E+03  0.21247960242E+03  0.00000000000E+00 0.  1.
<mgrwt>
<rscale>  0 0.59820433E+02</rscale>
<asrwt>0</asrwt>
<pdfrwt beam="1">  1        2 0.53602165E-01 0.25407643E+02</pdfrwt>
<pdfrwt beam="2">  1       -2 0.33778331E-01 0.14084282E+03</pdfrwt>
<totfact> 0.75487298E+02</totfact>
</mgrwt>
</event>
<event>
 5    1  0.9399923E-003  0.5465027E+02  0.7546771E-02  0.1440802E+00
          1   -1    0    0  501    0 -0.00000000000E+00  0.00000000000E+00  0.32550772666E+03  0.32550772666E+03  0.00000000000E+00 0. -1.
          2   -1    0    0  502    0  0.00000000000E+00 -0.00000000000E+00 -0.59631429620E+03  0.59631429620E+03  0.00000000000E+00 0. -1.
         25    1    1    2    0    0  0.53670404476E+02  0.72715587067E+02  0.13221785187E+03  0.20316158415E+03  0.12500000000E+03 0.  0.
          2    1    1    2  501    0 -0.12384921261E+02 -0.49598424984E+02  0.15264611004E+03  0.16097895808E+03  0.00000000000E+00 0. -1.
          1    1    1    2  502    0 -0.41285483215E+02 -0.23117162083E+02 -0.55567053146E+03  0.55768148063E+03  0.00000000000E+00 0. -1.
<mgrwt>
<rscale>  0 0.50851591E+02</rscale>
<asrwt>0</asrwt>
<pdfrwt beam="2">  1        2 0.91740660E-01 0.47316956E+02</pdfrwt>
<pdfrwt beam="1">  1        1 0.50078112E-01 0.54650269E+02</pdfrwt>
<totfact> 0.57217034E+02</totfact>
</mgrwt>
</event>
<event>
 5    1  0.9399923E-003  0.5290551E+02  0.7546771E-02  0.1524080E+00
          1   -1    0    0  501    0 -0.00000000000E+00  0.00000000000E+00  0.37554123880E+03  0.37554123880E+03  0.00000000000E+00 0. -1.
          2   -1    0    0  502    0  0.00000000000E+00 -0.00000000000E+00 -0.55560139742E+03  0.55560139742E+03  0.00000000000E+00 0. -1.
         25    1    1    2    0    0  0.28683197673E+02 -0.31358254216E+02  0.13464361333E+03  0.18857350966E+03  0.12500000000E+03 0.  0.
          2    1    1    2  501    0 -0.12771759109E+02  0.53397579071E+02  0.21005246169E+03  0.21710931796E+03  0.00000000000E+00 0. -1.
          3    1    1    2  502    0 -0.15911438564E+02 -0.22039324855E+02 -0.52475623364E+03  0.52545980860E+03  0.00000000000E+00 0. -1.
<mgrwt>
<rscale>  0 0.37922564E+02</rscale>
<asrwt>0</asrwt>
<pdfrwt beam="2">  1        2 0.85477138E-01 0.27182820E+02</pdfrwt>
<pdfrwt beam="1">  1        1 0.57775575E-01 0.52905507E+02</pdfrwt>
<totfact> 0.52426738E+02</totfact>
</mgrwt>
</event>
<event>
 5    1  0.9399923E-003  0.6663289E+02  0.7546771E-02  0.1439647E+00
          1   -1    0    0  501    0 -0.00000000000E+00  0.00000000000E+00  0.40268243617E+03  0.40268243617E+03  0.00000000000E+00 0. -1.
          2   -1    0    0  502    0  0.00000000000E+00 -0.00000000000E+00 -0.96247489191E+03  0.96247489191E+03  0.00000000000E+00 0. -1.
         25    1    1    2    0    0  0.19106843145E+02 -0.69725255286E+02 -0.22069301172E+03  0.26373677806E+03  0.12500000000E+03 0.  0.
          2    1    1    2  501    0 -0.49348444781E+02  0.44871444475E+02  0.37770457292E+03  0.38354851054E+03  0.00000000000E+00 0. -1.
          1    1    1    2  502    0  0.30241601636E+02  0.24853810811E+02 -0.71680401694E+03  0.71787203949E+03  0.00000000000E+00 0. -1.
<mgrwt>
<rscale>  0 0.51071416E+02</rscale>
<asrwt>0</asrwt>
<pdfrwt beam="2">  1        2 0.14807306E+00 0.39144174E+02</pdfrwt>
<pdfrwt beam="1">  1        1 0.61951144E-01 0.66632891E+02</pdfrwt>
<totfact> 0.25494553E+02</totfact>
</mgrwt>
</event>
<event>
 5    1  0.9399923E-003  0.1477427E+03  0.7546771E-02  0.1254904E+00
         -1   -1    0    0    0  501 -0.00000000000E+00  0.00000000000E+00  0.17111541045E+04  0.17111541045E+04  0.00000000000E+00 0.  1.
          1   -1    0    0  502    0  0.00000000000E+00 -0.00000000000E+00 -0.35157169780E+03  0.35157169780E+03  0.00000000000E+00 0. -1.
         25    1    1    2    0    0  0.70414628171E+01 -0.12138946158E+03  0.10356582880E+04  0.10502371509E+04  0.12500000000E+03 0.  0.
          2    1    1    2  502    0 -0.19930101940E+02 -0.84282162358E+02 -0.32254434273E+03  0.33396937716E+03  0.00000000000E+00 0. -1.
         -2    1    1    2    0  501  0.12888639123E+02  0.20567162394E+03  0.64646846140E+03  0.67851927422E+03  0.00000000000E+00 0.  1.
<mgrwt>
<rscale>  0 0.11311711E+03</rscale>
<asrwt>0</asrwt>
<pdfrwt beam="2">  1        1 0.54087954E-01 0.86606535E+02</pdfrwt>
<pdfrwt beam="1">  1       -1 0.26325447E+00 0.14774267E+03</pdfrwt>
<totfact> 0.51118056E+00</totfact>
</mgrwt>
</event>
<event>
 5    1  0.9399923E-003  0.2767218E+02  0.7546771E-02  0.1625993E+00
         -2   -1    0    0    0  501 -0.00000000000E+00  0.00000000000E+00  0.40065216770E+02  0.40065216770E+02  0.00000000000E+00 0.  1.
          2   -1    0    0  502    0  0.00000000000E+00 -0.00000000000E+00 -0.22961005070E+03  0.22961005070E+03  0.00000000000E+00 0. -1.
         25    1    1    2    0    0  0.10195160854E+02 -0.11326752379E+02 -0.10732930026E+03  0.16545940686E+03  0.12500000000E+03 0.  0.
          1    1    1    2  502    0  0.21440209489E+02  0.17494774014E+02 -0.56755139813E+02  0.63141868803E+02  0.00000000000E+00 0. -1.
         -1    1    1    2    0  501 -0.31635370344E+02 -0.61680216347E+01 -0.25460393859E+02  0.41073991809E+02  0.00000000000E+00 0.  1.
<mgrwt>
<rscale>  0 0.27619867E+02</rscale>
<asrwt>0</asrwt>
<pdfrwt beam="2">  1        2 0.35324623E-01 0.27672183E+02</pdfrwt>
<pdfrwt beam="1">  1       -2 0.61638795E-02 0.27567650E+02</pdfrwt>
<totfact> 0.15986334E+04</totfact>
</mgrwt>
</event>
<event>
 5    1  0.9399923E-003  0.1320771E+03  0.7546771E-02  0.1311917E+00
          2   -1    0    0  502    0  0.00000000000E+00  0.00000000000E+00  0.21784865469E+04  0.21784865469E+04  0.00000000000E+00 0. -1.
         -2   -1    0    0    0  501 -0.00000000000E+00 -0.00000000000E+00 -0.35308385897E+03  0.35308385897E+03  0.00000000000E+00 0.  1.
         25    1    1    2    0    0  0.90520363175E+02  0.22948709184E+02 -0.22054722280E+02  0.15758169366E+03  0.12500000000E+03 0.  0.
          1    1    1    2  502    0  0.53277156305E+02 -0.18705696628E+02  0.20906604752E+04  0.20914228604E+04  0.00000000000E+00 0. -1.
         -1    1    1    2    0  501 -0.14379751948E+03 -0.42430125563E+01 -0.24320306501E+03  0.28256585179E+03  0.00000000000E+00 0.  1.
<mgrwt>
<rscale>  0 0.86358594E+02</rscale>
<asrwt>0</asrwt>
<pdfrwt beam="1">  1        2 0.33515177E+00 0.56465551E+02</pdfrwt>
<pdfrwt beam="2">  1       -2 0.54320595E-01 0.13207711E+03</pdfrwt>
<totfact> 0.23750960E+01</totfact>
</mgrwt>
</event>
<event>
 5    1  0.9399923E-003  0.2566587E+02  0.7546771E-02  0.1652590E+00
          1   -1    0    0  501    0 -0.00000000000E+00  0.00000000000E+00  0.12727577120E+03  0.12727577120E+03  0.00000000000E+00 0. -1.
          2   -1    0    0  502    0  0.00000000000E+00 -0.00000000000E+00 -0.14829265320E+04  0.14829265320E+04  0.00000000000E+00 0. -1.
         25    1    1    2    0    0 -0.11548076874E+01  0.20969789277E+02 -0.68047279239E+02  0.14386277439E+03  0.12500000000E+03 0.  0.
          2    1    1    2  501    0 -0.22879973412E+02 -0.11966125710E+02  0.87380771263E+02  0.91115753492E+02  0.00000000000E+00 0. -1.
          1    1    1    2  502    0  0.24034781100E+02 -0.90036635664E+01 -0.13749842528E+04  0.13752237753E+04  0.00000000000E+00 0. -1.
<mgrwt>
<rscale>  0 0.25595693E+02</rscale>
<asrwt>0</asrwt>
<pdfrwt beam="2">  1        2 0.22814253E+00 0.25665866E+02</pdfrwt>
<pdfrwt beam="1">  1        1 0.19580889E-01 0.25525711E+02</pdfrwt>
<totfact> 0.55150297E+02</totfact>
</mgrwt>
</event>
<event>
 5    1  0.9399923E-003  0.4135991E+02  0.7546771E-02  0.1593680E+00
         -2   -1    0    0    0  501 -0.00000000000E+00  0.00000000000E+00  0.11447141680E+03  0.11447141680E+03  0.00000000000E+00 0.  1.
          2   -1    0    0  502    0  0.00000000000E+00 -0.00000000000E+00 -0.34102619424E+03  0.34102619424E+03  0.00000000000E+00 0. -1.
         25    1    1    2    0    0 -0.17561310295E+02  0.40835462095E+02 -0.88577327667E+02  0.15952077470E+03  0.12500000000E+03 0.  0.
          1    1    1    2  502    0 -0.47836051640E+01 -0.41224454149E+02 -0.21335615669E+03  0.21735498176E+03  0.00000000000E+00 0. -1.
         -1    1    1    2    0  501  0.22344915459E+02  0.38899205360E+00  0.75378706917E+02  0.78621854583E+02  0.00000000000E+00 0.  1.
<mgrwt>
<rscale>  0 0.30402693E+02</rscale>
<asrwt>0</asrwt>
<pdfrwt beam="2">  1        2 0.52465568E-01 0.41359911E+02</pdfrwt>
<pdfrwt beam="1">  1       -2 0.17610987E-01 0.22348301E+02</pdfrwt>
<totfact> 0.21832316E+03</totfact>
</mgrwt>
</event>
<event>
 5    1  0.9399923E-003  0.1177811E+03  0.7546771E-02  0.1306818E+00
         -2   -1    0    0    0  501 -0.00000000000E+00  0.00000000000E+00  0.67618772226E+03  0.67618772226E+03  0.00000000000E+00 0.  1.
          2   -1    0    0  502    0  0.00000000000E+00 -0.00000000000E+00 -0.11133632918E+03  0.11133632918E+03  0.00000000000E+00 0. -1.
         25    1    1    2    0    0 -0.47271698402E+02 -0.54629264586E+02  0.12922378558E+02  0.14495157083E+03  0.12500000000E+03 0.  0.
          1    1    1    2  502    0 -0.66002430006E+02  0.64935473899E+01 -0.10223447749E+02  0.67104439558E+02  0.00000000000E+00 0. -1.
         -1    1    1    2    0  501  0.11327412841E+03  0.48135717197E+02  0.56215246227E+03  0.57546804106E+03  0.00000000000E+00 0.  1.
<mgrwt>
<rscale>  0 0.88381961E+02</rscale>
<asrwt>0</asrwt>
<pdfrwt beam="2">  1        2 0.17128666E-01 0.66321090E+02</pdfrwt>
<pdfrwt beam="1">  1       -2 0.10402888E+00 0.11778110E+03</pdfrwt>
<totfact> 0.25356159E+02</totfact>
</mgrwt>
</event>
<event>
 5    1  0.9399923E-003  0.6305760E+02  0.7546771E-02  0.1408901E+00
          1   -1    0    0  501    0 -0.00000000000E+00  0.00000000000E+00  0.79621018199E+03  0.79621018199E+03  0.00000000000E+00 0. -1.
          2   -1    0    0  502    0  0.00000000000E+00 -0.00000000000E+00 -0.35239055113E+04  0.35239055113E+04  0.00000000000E+00 0. -1.
         25    1    1    2    0    0 -0.80352978413E+02 -0.42490586082E+02 -0.89393467763E+03  0.90719692400E+03  0.12500000000E+03 0.  0.
          2    1    1    2  501    0  0.62677328601E+02 -0.67560169212E+01  0.78805932896E+03  0.79057674975E+03  0.00000000000E+00 0. -1.
          1    1    1    2  502    0  0.17675649811E+02  0.49246603003E+02 -0.26218199807E+04  0.26223420196E+04  0.00000000000E+00 0. -1.
<mgrwt>
<rscale>  0 0.57439869E+02</rscale>
<asrwt>0</asrwt>
<pdfrwt beam="2">  1        2 0.54213930E+00 0.52322619E+02</pdfrwt>
<pdfrwt beam="1">  1        1 0.12249388E+00 0.63057596E+02</pdfrwt>
<totfact> 0.45612937E+00</totfact>
</mgrwt>
</event>
<event>
 5    1  0.9399923E-003  0.6028658E+02  0.7546771E-02  0.1473308E+00
          2   -1    0    0  502    0  0.00000000000E+00  0.00000000000E+00  0.41000310635E+02  0.41000310635E+02  0.00000000000E+00 0. -1.
          1   -1    0    0  501    0 -0.00000000000E+00 -0.00000000000E+00 -0.28994723981E+04  0.28994723981E+04  0.00000000000E+00 0. -1.
         25    1    1    2    0    0 -0.48534713338E+02 -0.45954026719E+02 -0.34318070078E+03  0.37130228165E+03  0.12500000000E+03 0.  0.
          2    1    1    2  501    0  0.31607437720E+02 -0.12082095349E+02 -0.25080564748E+04  0.25082847303E+04  0.00000000000E+00 0. -1.
          1    1    1    2  502    0  0.16927275617E+02  0.58036122068E+02 -0.72349118262E+01  0.60885696790E+02  0.00000000000E+00 0. -1.
<mgrwt>
<rscale>  0 0.45166076E+02</rscale>
<asrwt>0</asrwt>
<pdfrwt beam="1">  1        2 0.63077386E-02 0.60286576E+02</pdfrwt>
<pdfrwt beam="2">  1        1 0.44607278E+00 0.33837954E+02</pdfrwt>
<totfact> 0.16927519E+02</totfact>
</mgrwt>
</event>
<event>
 5    1  0.9399923E-003  0.5236494E+02  0.7546771E-02  0.1524316E+00
          1   -1    0    0  501    0 -0.00000000000E+00  0.00000000000E+00  0.19966317970E+04  0.19966317970E+04  0.00000000000E+00 0. -1.
          2   -1    0    0  502    0  0.00000000000E+00 -0.00000000000E+00 -0.55229231272E+03  0.55229231272E+03  0.00000000000E+00 0. -1.
         25    1    1    2    0    0 -0.67619723400E+02 -0.10973504904E+02 -0.38543915323E+02  0.14766000884E+03  0.12500000000E+03 0.  0.
          2    1    1    2  501    0  0.22719301084E+02 -0.15353008954E+02  0.19405016259E+04  0.19406953501E+04  0.00000000000E+00 0. -1.
          1    1    1    2  502    0  0.44900422316E+02  0.26326513859E+02 -0.45761822628E+03  0.46056875087E+03  0.00000000000E+00 0. -1.
<mgrwt>
<rscale>  0 0.37892882E+02</rscale>
<asrwt>0</asrwt>
<pdfrwt beam="2">  1        2 0.84968049E-01 0.52364935E+02</pdfrwt>
<pdfrwt beam="1">  1        1 0.30717412E+00 0.27420458E+02</pdfrwt>
<totfact> 0.35634592E+01</totfact>
</mgrwt>
</event>
<event>
 5    1  0.9399923E-003  0.1509332E+03  0.7546771E-02  0.1218199E+00
          2   -1    0    0  502    0  0.00000000000E+00  0.00000000000E+00  0.78338528600E+03  0.78338528600E+03  0.00000000000E+00 0. -1.
          1   -1    0    0  501    0 -0.00000000000E+00 -0.00000000000E+00 -0.32011768563E+03  0.32011768563E+03  0.00000000000E+00 0. -1.
         25    1    1    2    0    0  0.58100887479E+02  0.10344707503E+03  0.54831739736E+03  0.57476428100E+03  0.12500000000E+03 0.  0.
          2    1    1    2  501    0 -0.15194464898E+03 -0.23406946947E+02 -0.26748704259E+03  0.30851965816E+03  0.00000000000E+00 0. -1.
          1    1    1    2  502    0  0.93843761503E+02 -0.80040128086E+02  0.18243724561E+03  0.22021903247E+03  0.00000000000E+00 0. -1.
<mgrwt>
<rscale>  0 0.13644155E+03</rscale>
<asrwt>0</asrwt>
<pdfrwt beam="1">  1        2 0.12052081E+00 0.12334129E+03</pdfrwt>
<pdfrwt beam="2">  1        1 0.49248875E-01 0.15093320E+03</pdfrwt>
<totfact> 0.41390130E+02</totfact>
</mgrwt>
</event>
<event>
 5    1  0.9399923E-003  0.3481508E+02  0.7546771E-02  0.1569610E+00
         -2   -1    0    0    0  501 -0.00000000000E+00  0.00000000000E+00  0.26305428495E+03  0.26305428495E+03  0.00000000000E+00 0.  1.
          2   -1    0    0  502    0  0.00000000000E+00 -0.00000000000E+00 -0.20812488550E+03  0.20812488550E+03  0.00000000000E+00 0. -1.
         25    1    1    2    0    0  0.84011924847E+01 -0.21997369989E+02  0.17214365140E+03  0.21403948477E+03  0.12500000000E+03 0.  0.
          1    1    1    2  502    0  0.26981842872E+02  0.22001587093E+02 -0.18093507171E+03  0.18425414474E+03  0.00000000000E+00 0. -1.
         -1    1    1    2    0  501 -0.35383035356E+02 -0.42171044302E-02  0.63720819756E+02  0.72885540948E+02  0.00000000000E+00 0.  1.
<mgrwt>
<rscale>  0 0.32742791E+02</rscale>
<asrwt>0</asrwt>
<pdfrwt beam="2">  1        2 0.32019213E-01 0.34815078E+02</pdfrwt>
<pdfrwt beam="1">  1       -2 0.40469890E-01 0.30793852E+02</pdfrwt>
<totfact> 0.88990494E+02</totfact>
</mgrwt>
</event>
<event>
 5    1  0.9399923E-003  0.5663814E+02  0.7546771E-02  0.1534757E+00
          2   -1    0    0  502    0  0.00000000000E+00  0.00000000000E+00  0.25947999600E+04  0.25947999600E+04  0.00000000000E+00 0. -1.
          1   -1    0    0  501    0 -0.00000000000E+00 -0.00000000000E+00 -0.19720970398E+02  0.19720970398E+02  0.00000000000E+00 0. -1.
         25    1    1    2    0    0  0.62728159021E+01  0.33403031658E+02  0.17962537632E+04  0.18009185691E+04  0.12500000000E+03 0.  0.
          2    1    1    2  501    0 -0.49403856462E+01 -0.57028646781E+02  0.30420165554E+02  0.64823301646E+02  0.00000000000E+00 0. -1.
          1    1    1    2  502    0 -0.13324302559E+01  0.23625615123E+02  0.74840506090E+03  0.74877905970E+03  0.00000000000E+00 0. -1.
<mgrwt>
<rscale>  0 0.36609251E+02</rscale>
<asrwt>0</asrwt>
<pdfrwt beam="1">  1        2 0.39919972E+00 0.23663158E+02</pdfrwt>
<pdfrwt beam="2">  1        1 0.30339975E-02 0.56638139E+02</pdfrwt>
<totfact> 0.19484300E+03</totfact>
</mgrwt>
</event>
<event>
 5    1  0.9399923E-003  0.5750010E+02  0.7546771E-02  0.1479693E+00
          1   -1    0    0  501    0 -0.00000000000E+00  0.00000000000E+00  0.32663581812E+03  0.32663581812E+03  0.00000000000E+00 0. -1.
          2   -1    0    0  502    0  0.00000000000E+00 -0.00000000000E+00 -0.17709291209E+03  0.17709291209E+03  0.00000000000E+00 0. -1.
         25    1    1    2    0    0 -0.23955884814E+02 -0.39003765267E+02  0.11123961612E+03  0.17347746343E+03  0.12500000000E+03 0.  0.
          2    1    1    2  501    0  0.27955144975E+02 -0.19186212787E+02  0.17677464082E+03  0.17999687367E+03  0.00000000000E+00 0. -1.
          1    1    1    2  502    0 -0.39992601607E+01  0.58189978053E+02 -0.13847135091E+03  0.15025439311E+03  0.00000000000E+00 0. -1.
<mgrwt>
<rscale>  0 0.44154103E+02</rscale>
<asrwt>0</asrwt>
<pdfrwt beam="2">  1        2 0.27245063E-01 0.57500097E+02</pdfrwt>
<pdfrwt beam="1">  1        1 0.50251664E-01 0.33905765E+02</pdfrwt>
<totfact> 0.20126859E+03</totfact>
</mgrwt>
</event>
<event>
 5    1  0.9399923E-003  0.5674868E+02  0.7546771E-02  0.1422209E+00
         -2   -1    0    0    0  501 -0.00000000000E+00  0.00000000000E+00  0.47537086652E+03  0.47537086652E+03  0.00000000000E+00 0.  1.
          2   -1    0    0  502    0  0.00000000000E+00 -0.00000000000E+00 -0.86541463024E+03  0.86541463024E+03  0.00000000000E+00 0. -1.
         25    1    1    2    0    0  0.72474971731E+01  0.66896421487E+01 -0.77675868151E+02  0.14749853565E+03  0.12500000000E+03 0.  0.
          1    1    1    2  502    0 -0.14183093012E+02  0.50494382574E+02 -0.75002437903E+03  0.75185597818E+03  0.00000000000E+00 0. -1.
         -1    1    1    2    0  501  0.69355958384E+01 -0.57184024723E+02  0.43765648346E+03  0.44143098292E+03  0.00000000000E+00 0.  1.
<mgrwt>
<rscale>  0 0.54556226E+02</rscale>
<asrwt>0</asrwt>
<pdfrwt beam="2">  1        2 0.13314071E+00 0.52448478E+02</pdfrwt>
<pdfrwt beam="1">  1       -2 0.73133979E-01 0.56748678E+02</pdfrwt>
<totfact> 0.61758110E+01</totfact>
</mgrwt>
</event>
<event>
 5    1  0.9399923E-003  0.1151828E+03  0.7546771E-02  0.1324438E+00
          1   -1    0    0  501    0 -0.00000000000E+00  0.00000000000E+00  0.16290246941E+03  0.16290246941E+03  0.00000000000E+00 0. -1.
          2   -1    0    0  502    0  0.00000000000E+00 -0.00000000000E+00 -0.23602902620E+04  0.23602902620E+04  0.00000000000E+00 0. -1.
         25    1    1    2    0    0 -0.96794132427E+01 -0.64221862007E+02 -0.16674012740E+03  0.21827828267E+03  0.12500000000E+03 0.  0.
          2    1    1    2  501    0  0.81911749155E+01  0.12207984164E+03  0.10937204169E+03  0.16411223777E+03  0.00000000000E+00 0. -1.
          1    1    1    2  502    0  0.14882383272E+01 -0.57857979631E+02 -0.21400197069E+04  0.21408022110E+04  0.00000000000E+00 0. -1.
<mgrwt>
<rscale>  0 0.81648317E+02</rscale>
<asrwt>0</asrwt>
<pdfrwt beam="2">  1        2 0.36312157E+00 0.57877117E+02</pdfrwt>
<pdfrwt beam="1">  1        1 0.25061919E-01 0.11518279E+03</pdfrwt>
<totfact> 0.14804592E+02</totfact>
</mgrwt>
</event>
<event>
 5    1  0.9399923E-003  0.4592599E+02  0.7546771E-02  0.1515963E+00
          1   -1    0    0  501    0 -0.00000000000E+00  0.00000000000E+00  0.24143342395E+03  0.24143342395E+03  0.00000000000E+00 0. -1.
          2   -1    0    0  502    0  0.00000000000E+00 -0.00000000000E+00 -0.12460898485E+04  0.12460898485E+04  0.00000000000E+00 0. -1.
         25    1    1    2    0    0  0.50517419009E+02  0.58585915576E+02  0.82689735040E+01  0.14723347123E+03  0.12500000000E+03 0.  0.
          2    1    1    2  501    0 -0.26639957282E+02 -0.35719797008E+02  0.16041235401E+03  0.16648637945E+03  0.00000000000E+00 0. -1.
          1    1    1    2  502    0 -0.23877461728E+02 -0.22866118568E+02 -0.11733377521E+04  0.11738034218E+04  0.00000000000E+00 0. -1.
<mgrwt>
<rscale>  0 0.38965797E+02</rscale>
<asrwt>0</asrwt>
<pdfrwt beam="2">  1        2 0.19170613E+00 0.33060438E+02</pdfrwt>
<pdfrwt beam="1">  1        1 0.37143604E-01 0.45925990E+02</pdfrwt>
<totfact> 0.33592226E+02</totfact>
</mgrwt>
</event>
<event>
 5    1  0.9399923E-003  0.6454870E+02  0.7546771E-02  0.1382951E+00
         -1   -1    0    0    0  501 -0.00000000000E+00  0.00000000000E+00  0.16010083140E+03  0.16010083140E+03  0.00000000000E+00 0.  1.
          1   -1    0    0  502    0  0.00000000000E+00 -0.00000000000E+00 -0.27578349599E+04  0.27578349599E+04  0.00000000000E+00 0. -1.
         25    1    1    2    0    0 -0.65711801683E+02 -0.10856420683E+03 -0.85658695848E+03  0.87491167858E+03  0.12500000000E+03 0.  0.
          2    1    1    2  502    0  0.33102917143E+02  0.53427734541E+02 -0.18847417014E+04  0.18857893856E+04  0.00000000000E+00 0. -1.
         -2    1    1    2    0  501  0.32608884540E+02  0.55136472288E+02  0.14359453143E+03  0.15723472703E+03  0.00000000000E+00 0.  1.
<mgrwt>
<rscale>  0 0.63694509E+02</rscale>
<asrwt>0</asrwt>
<pdfrwt beam="2">  1        1 0.42428227E+00 0.62851618E+02</pdfrwt>
<pdfrwt beam="1">  1       -1 0.24630899E-01 0.64548703E+02</pdfrwt>
<totfact> 0.18587071E+01</totfact>
</mgrwt>
</event>
<event>
 5    1  0.9399923E-003  0.9740275E+02  0.7546771E-02  0.1329286E+00
          2   -1    0    0  502    0  0.00000000000E+00  0.00000000000E+00  0.17606727558E+04  0.17606727558E+04  0.00000000000E+00 0. -1.
          1   -1    0    0  501    0 -0.00000000000E+00 -0.00000000000E+00 -0.54981338423E+03  0.54981338423E+03  0.00000000000E+00 0. -1.
         25    1    1    2    0    0 -0.67398005796E+01  0.10009355114E+03  0.16292379861E+03  0.22854607423E+03  0.12500000000E+03 0.  0.
          2    1    1    2  501    0 -0.55795835937E+02 -0.80373659461E+02 -0.51167802953E+03  0.52094865999E+03  0.00000000000E+00 0. -1.
          1    1    1    2  502    0  0.62535636516E+02 -0.19719891681E+02  0.15596136025E+04  0.15609914058E+04  0.00000000000E+00 0. -1.
<mgrwt>
<rscale>  0 0.79917542E+02</rscale>
<asrwt>0</asrwt>
<pdfrwt beam="1">  1        2 0.27087273E+00 0.65571182E+02</pdfrwt>
<pdfrwt beam="2">  1        1 0.84586675E-01 0.97402750E+02</pdfrwt>
<totfact> 0.63641815E+01</totfact>
</mgrwt>
</event>
<event>
 5    1  0.9399923E-003  0.8195551E+02  0.7546771E-02  0.1443077E+00
          2   -1    0    0  502    0  0.00000000000E+00  0.00000000000E+00  0.13666112466E+04  0.13666112466E+04  0.00000000000E+00 0. -1.
          1   -1    0    0  501    0 -0.00000000000E+00 -0.00000000000E+00 -0.36706948616E+03  0.36706948616E+03  0.00000000000E+00 0. -1.
         25    1    1    2    0    0  0.10782567287E+03 -0.16711487536E+02 -0.80772194768E+02  0.18453941854E+03  0.12500000000E+03 0.  0.
          2    1    1    2  501    0 -0.78154603043E+02  0.76571896759E+01 -0.22764779257E+03  0.24081173558E+03  0.00000000000E+00 0. -1.
          1    1    1    2  502    0 -0.29671069829E+02  0.90542978601E+01  0.13079617477E+04  0.13083295786E+04  0.00000000000E+00 0. -1.
<mgrwt>
<rscale>  0 0.50422299E+02</rscale>
<asrwt>0</asrwt>
<pdfrwt beam="1">  1        2 0.21024788E+00 0.31021810E+02</pdfrwt>
<pdfrwt beam="2">  1        1 0.56472229E-01 0.81955508E+02</pdfrwt>
<totfact> 0.17776940E+02</totfact>
</mgrwt>
</event>
<event>
 5    1  0.9399923E-003  0.8007234E+02  0.7546771E-02  0.1432080E+00
          1   -1    0    0  501    0 -0.00000000000E+00  0.00000000000E+00  0.61539128283E+03  0.61539128283E+03  0.00000000000E+00 0. -1.
          2   -1    0    0  502    0  0.00000000000E+00 -0.00000000000E+00 -0.88559941679E+03  0.88559941679E+03  0.00000000000E+00 0. -1.
         25    1    1    2    0    0 -0.44053308174E+02  0.61504451926E+02  0.16268526672E+03  0.21866638419E+03  0.12500000000E+03 0.  0.
          2    1    1    2  501    0 -0.26055010597E+02 -0.22584582170E+02  0.42213659965E+03  0.42354248393E+03  0.00000000000E+00 0. -1.
          1    1    1    2  502    0  0.70108318771E+02 -0.38919869755E+02 -0.85503000034E+03  0.85878183149E+03  0.00000000000E+00 0. -1.
<mgrwt>
<rscale>  0 0.52544838E+02</rscale>
<asrwt>0</asrwt>
<pdfrwt beam="2">  1        2 0.13624606E+00 0.80072343E+02</pdfrwt>
<pdfrwt beam="1">  1        1 0.94675582E-01 0.34480820E+02</pdfrwt>
<totfact> 0.16334853E+02</totfact>
</mgrwt>
</event>
<event>
 5    1  0.9399923E-003  0.1360029E+03  0.7546771E-02  0.1224109E+00
         -1   -1    0    0    0  501 -0.00000000000E+00  0.00000000000E+00  0.61725090386E+03  0.61725090386E+03  0.00000000000E+00 0.  1.
          1   -1    0    0  502    0  0.00000000000E+00 -0.00000000000E+00 -0.55104276435E+03  0.55104276435E+03  0.00000000000E+00 0. -1.
         25    1    1    2    0    0  0.24751219581E+03 -0.26096278976E+02  0.95590004675E+00  0.27851250708E+03  0.12500000000E+03 0.  0.
          2    1    1    2  502    0 -0.12700552970E+03 -0.20582545240E+02 -0.39306801608E+03  0.41358978591E+03  0.00000000000E+00 0. -1.
         -2    1    1    2    0  501 -0.12050666611E+03  0.46678824216E+02  0.45832025554E+03  0.47619137523E+03  0.00000000000E+00 0.  1.
<mgrwt>
<rscale>  0 0.13228179E+03</rscale>
<asrwt>0</asrwt>
<pdfrwt beam="2">  1        1 0.84775810E-01 0.12866253E+03</pdfrwt>
<pdfrwt beam="1">  1       -1 0.94961678E-01 0.13600287E+03</pdfrwt>
<totfact> 0.47634900E+01</totfact>
</mgrwt>
</event>
<event>
 5    1  0.9399923E-003  0.1089406E+03  0.7546771E-02  0.1331499E+00
          2   -1    0    0  502    0  0.00000000000E+00  0.00000000000E+00  0.13908465663E+04  0.13908465663E+04  0.00000000000E+00 0. -1.
          1   -1    0    0  501    0 -0.00000000000E+00 -0.00000000000E+00 -0.89126330928E+02  0.89126330928E+02  0.00000000000E+00 0. -1.
         25    1    1    2    0    0 -0.61825051446E+02  0.69251086959E+02  0.33852297079E+03  0.37261354214E+03  0.12500000000E+03 0.  0.
          2    1    1    2  501    0  0.38843887467E+02  0.42391661071E+02 -0.56912808773E+02  0.80900978513E+02  0.00000000000E+00 0. -1.
          1    1    1    2  502    0  0.22981163979E+02 -0.11164274803E+03  0.10201100734E+04  0.10264583766E+04  0.00000000000E+00 0. -1.
<mgrwt>
<rscale>  0 0.79143869E+02</rscale>
<asrwt>0</asrwt>
<pdfrwt beam="1">  1        2 0.21397638E+00 0.10894058E+03</pdfrwt>
<pdfrwt beam="2">  1        1 0.13711744E-01 0.57496961E+02</pdfrwt>
<totfact> 0.88466800E+02</totfact>
</mgrwt>
</event>
<event>
 5    1  0.9399923E-003  0.9688979E+02  0.7546771E-02  0.1362467E+00
          2   -1    0    0  502    0  0.00000000000E+00  0.00000000000E+00  0.79253481728E+03  0.79253481728E+03  0.00000000000E+00 0. -1.
          1   -1    0    0  501    0 -0.00000000000E+00 -0.00000000000E+00 -0.14311729564E+04  0.14311729564E+04  0.00000000000E+00 0. -1.
         25    1    1    2    0    0 -0.11166377902E+03 -0.15896260321E+02 -0.43124048539E+02  0.17379923533E+03  0.12500000000E+03 0.  0.
          2    1    1    2  501    0  0.80166220492E+02  0.54180347036E+02 -0.13200936763E+04  0.13236349373E+04  0.00000000000E+00 0. -1.
          1    1    1    2  502    0  0.31497558530E+02 -0.38284086714E+02  0.72457958576E+03  0.72627360105E+03  0.00000000000E+00 0. -1.
<mgrwt>
<rscale>  0 0.69306539E+02</rscale>
<asrwt>0</asrwt>
<pdfrwt beam="1">  1        2 0.12192843E+00 0.49575876E+02</pdfrwt>
<pdfrwt beam="2">  1        1 0.22018045E+00 0.96889793E+02</pdfrwt>
<totfact> 0.45773146E+01</totfact>
</mgrwt>
</event>
<event>
 5    1  0.9399923E-003  0.3310890E+02  0.7546771E-02  0.1568620E+00
          1   -1    0    0  502    0  0.00000000000E+00  0.00000000000E+00  0.16609754805E+04  0.16609754805E+04  0.00000000000E+00 0. -1.
         -1   -1    0    0    0  501 -0.00000000000E+00 -0.00000000000E+00 -0.30982103251E+02  0.30982103251E+02  0.00000000000E+00 0.  1.
         25    1    1    2    0    0 -0.52848475707E+02 -0.13776317234E+02  0.39789033611E+03  0.42062390311E+03  0.12500000000E+03 0.  0.
          2    1    1    2  502    0  0.31135150071E+02 -0.10516206331E+02  0.12378179750E+04  0.12382541449E+04  0.00000000000E+00 0. -1.
         -2    1    1    2    0  501  0.21713325636E+02  0.24292523565E+02 -0.57149339036E+01  0.33079535681E+02  0.00000000000E+00 0.  1.
<mgrwt>
<rscale>  0 0.32844459E+02</rscale>
<asrwt>0</asrwt>
<pdfrwt beam="1">  1        1 0.25553462E+00 0.33108900E+02</pdfrwt>
<pdfrwt beam="2">  1       -1 0.47664787E-02 0.32582130E+02</pdfrwt>
<totfact> 0.10743418E+03</totfact>
</mgrwt>
</event>
<event>
 5    1  0.9399923E-003  0.1201711E+03  0.7546771E-02  0.1268347E+00
          2   -1    0    0  502    0  0.00000000000E+00  0.00000000000E+00  0.25056633541E+03  0.25056633541E+03  0.00000000000E+00 0. -1.
          1   -1    0    0  501    0 -0.00000000000E+00 -0.00000000000E+00 -0.19686204087E+04  0.19686204087E+04  0.00000000000E+00 0. -1.
         25    1    1    2    0    0 -0.14302205615E+03  0.45252792852E+02 -0.97949229868E+03  0.99876588197E+03  0.12500000000E+03 0.  0.
          2    1    1    2  501    0  0.65665980130E+02 -0.97473492367E+02 -0.96675796977E+03  0.97387580048E+03  0.00000000000E+00 0. -1.
          1    1    1    2  502    0  0.77356076019E+02  0.52220699515E+02  0.22819619515E+03  0.24654506167E+03  0.00000000000E+00 0. -1.
<mgrwt>
<rscale>  0 0.10590501E+03</rscale>
<asrwt>0</asrwt>
<pdfrwt beam="1">  1        2 0.38548665E-01 0.93332545E+02</pdfrwt>
<pdfrwt beam="2">  1        1 0.30286469E+00 0.12017107E+03</pdfrwt>
<totfact> 0.69728429E+01</totfact>
</mgrwt>
</event>
<event>
 5    1  0.9399923E-003  0.5061587E+02  0.7546771E-02  0.1464432E+00
          2   -1    0    0  502    0  0.00000000000E+00  0.00000000000E+00  0.15423101199E+03  0.15423101199E+03  0.00000000000E+00 0. -1.
          1   -1    0    0  501    0 -0.00000000000E+00 -0.00000000000E+00 -0.87092715816E+03  0.87092715816E+03  0.00000000000E+00 0. -1.
         25    1    1    2    0    0 -0.41212079239E+01 -0.78865009542E+01 -0.97049274781E+02  0.15850155516E+03  0.12500000000E+03 0.  0.
          2    1    1    2  501    0  0.23325264452E+02  0.46307255049E+02 -0.73848047991E+03  0.74029848645E+03  0.00000000000E+00 0. -1.
          1    1    1    2  502    0 -0.19204056528E+02 -0.38420754094E+02  0.11883360852E+03  0.12635812854E+03  0.00000000000E+00 0. -1.
<mgrwt>
<rscale>  0 0.46627219E+02</rscale>
<asrwt>0</asrwt>
<pdfrwt beam="1">  1        2 0.23727848E-01 0.42952883E+02</pdfrwt>
<pdfrwt beam="2">  1        1 0.13398880E+00 0.50615870E+02</pdfrwt>
<totfact> 0.64801109E+02</totfact>
</mgrwt>
</event>
<event>
 5    1  0.9399923E-003  0.7874616E+02  0.7546771E-02  0.1475702E+00
          2   -1    0    0  502    0  0.00000000000E+00  0.00000000000E+00  0.17830347349E+04  0.17830347349E+04  0.00000000000E+00 0. -1.
          1   -1    0    0  501    0 -0.00000000000E+00 -0.00000000000E+00 -0.81031524113E+02  0.81031524113E+02  0.00000000000E+00 0. -1.
         25    1    1    2    0    0  0.71119073859E+02  0.16081861893E+02  0.60218898584E+03  0.61933280522E+03  0.12500000000E+03 0.  0.
          2    1    1    2  501    0 -0.78653978381E+02  0.82458731229E+01 -0.50697577319E+02  0.93939805646E+02  0.00000000000E+00 0. -1.
          1    1    1    2  502    0  0.75349045220E+01 -0.24327735016E+02  0.11505118023E+04  0.11507936481E+04  0.00000000000E+00 0. -1.
<mgrwt>
<rscale>  0 0.44782795E+02</rscale>
<asrwt>0</asrwt>
<pdfrwt beam="1">  1        2 0.27431301E+00 0.25467891E+02</pdfrwt>
<pdfrwt beam="2">  1        1 0.12466390E-01 0.78746164E+02</pdfrwt>
<totfact> 0.74566656E+02</totfact>
</mgrwt>
</event>
<event>
 5    1  0.9399923E-003  0.6944836E+02  0.7546771E-02  0.1436594E+00
         -2   -1    0    0    0  501 -0.00000000000E+00  0.00000000000E+00  0.20321276067E+02  0.20321276067E+02  0.00000000000E+00 0.  1.
          2   -1    0    0  502    0  0.00000000000E+00 -0.00000000000E+00 -0.16384197591E+04  0.16384197591E+04  0.00000000000E+00 0. -1.
         25    1    1    2    0    0 -0.80012829850E+01  0.10080343255E+03 -0.64641890953E+03  0.66611392355E+03  0.12500000000E+03 0.  0.
          1    1    1    2  502    0 -0.72261400853E+01 -0.65523059964E+02 -0.94139796649E+03  0.94370314178E+03  0.00000000000E+00 0. -1.
         -1    1    1    2    0  501  0.15227423070E+02 -0.35280372589E+02 -0.30281607048E+02  0.48923969880E+02  0.00000000000E+00 0.  1.
<mgrwt>
<rscale>  0 0.51658903E+02</rscale>
<asrwt>0</asrwt>
<pdfrwt beam="2">  1        2 0.25206465E+00 0.69448361E+02</pdfrwt>
<pdfrwt beam="1">  1       -2 0.31263493E-02 0.38426281E+02</pdfrwt>
<totfact> 0.41197310E+03</totfact>
</mgrwt>
</event>
<event>
 5    1  0.9399923E-003  0.1194759E+03  0.7546771E-02  0.1287144E+00
         -1   -1    0    0    0  501 -0.00000000000E+00  0.00000000000E+00  0.14866212481E+03  0.14866212481E+03  0.00000000000E+00 0.  1.
          1   -1    0    0  502    0  0.00000000000E+00 -0.00000000000E+00 -0.31941832583E+03  0.31941832583E+03  0.00000000000E+00 0. -1.
         25    1    1    2    0    0 -0.58770385498E+02  0.16442184852E+03 -0.73655044533E+02  0.22702107406E+03  0.12500000000E+03 0.  0.
          2    1    1    2  502    0  0.32420093499E+00 -0.78448347160E+02 -0.11126512013E+03  0.13614027779E+03  0.00000000000E+00 0. -1.
         -2    1    1    2    0  501  0.58446184563E+02 -0.85973501363E+02  0.14163963640E+02  0.10491909880E+03  0.00000000000E+00 0.  1.
<mgrwt>
<rscale>  0 0.96813057E+02</rscale>
<asrwt>0</asrwt>
<pdfrwt beam="2">  1        1 0.49141280E-01 0.78449017E+02</pdfrwt>
<pdfrwt beam="1">  1       -1 0.22871096E-01 0.11947591E+03</pdfrwt>
<totfact> 0.12889086E+03</totfact>
</mgrwt>
</event>
<event>
 5    1  0.9399923E-003  0.6046833E+02  0.7546771E-02  0.1486397E+00
          2   -1    0    0  502    0  0.00000000000E+00  0.00000000000E+00  0.10653515813E+04  0.10653515813E+04  0.00000000000E+00 0. -1.
          1   -1    0    0  501    0 -0.00000000000E+00 -0.00000000000E+00 -0.17561772356E+03  0.17561772356E+03  0.00000000000E+00 0. -1.
         25    1    1    2    0    0 -0.16099590311E+02 -0.56482442497E+02 -0.46759914246E+02  0.14581135998E+03  0.12500000000E+03 0.  0.
          2    1    1    2  501    0  0.30670413759E+02 -0.22956691768E+01 -0.75411518553E+02  0.81442258734E+02  0.00000000000E+00 0. -1.
          1    1    1    2  502    0 -0.14570823448E+02  0.58778111673E+02  0.10119052906E+04  0.10137156862E+04  0.00000000000E+00 0. -1.
<mgrwt>
<rscale>  0 0.43125129E+02</rscale>
<asrwt>0</asrwt>
<pdfrwt beam="1">  1        2 0.16390024E+00 0.60468335E+02</pdfrwt>
<pdfrwt beam="2">  1        1 0.27018112E-01 0.30756209E+02</pdfrwt>
<totfact> 0.58163603E+02</totfact>
</mgrwt>
</event>
<event>
 5    1  0.9399923E-003  0.1173081E+03  0.7546771E-02  0.1409476E+00
          2   -1    0    0  502    0  0.00000000000E+00  0.00000000000E+00  0.27649103814E+04  0.27649103814E+04  0.00000000000E+00 0. -1.
         -2   -1    0    0    0  501 -0.00000000000E+00 -0.00000000000E+00 -0.53466992385E+03  0.53466992385E+03  0.00000000000E+00 0.  1.
         25    1    1    2    0    0 -0.40799727946E+02 -0.13057509638E+03  0.17519331925E+04  0.17617063844E+04  0.12500000000E+03 0.  0.
          1    1    1    2  502    0 -0.11377964588E+02  0.25583337093E+02  0.10014060076E+04  0.10017973634E+04  0.00000000000E+00 0. -1.
         -1    1    1    2    0  501  0.52177692535E+02  0.10499175928E+03 -0.52309874254E+03  0.53607655755E+03  0.00000000000E+00 0.  1.
<mgrwt>
<rscale>  0 0.57311029E+02</rscale>
<asrwt>0</asrwt>
<pdfrwt beam="1">  1        2 0.42537082E+00 0.27999379E+02</pdfrwt>
<pdfrwt beam="2">  1       -2 0.82256913E-01 0.11730810E+03</pdfrwt>
<totfact> 0.56054977E+00</totfact>
</mgrwt>
</event>
<event>
 5    1  0.9399923E-003  0.3827636E+02  0.7546771E-02  0.1573605E+00
          2   -1    0    0  502    0  0.00000000000E+00  0.00000000000E+00  0.37410282233E+03  0.37410282233E+03  0.00000000000E+00 0. -1.
         -2   -1    0    0    0  501 -0.00000000000E+00 -0.00000000000E+00 -0.13907581884E+04  0.13907581884E+04  0.00000000000E+00 0.  1.
         25    1    1    2    0    0 -0.56554333365E+02 -0.21415231559E+02  0.18085879078E+03  0.22801733918E+03  0.12500000000E+03 0.  0.
          1    1    1    2  502    0  0.36480920201E+02  0.28841705876E+01  0.16755322650E+03  0.17150294367E+03  0.00000000000E+00 0. -1.
         -1    1    1    2    0  501  0.20073413164E+02  0.18531060971E+02 -0.13650673833E+04  0.13653407278E+04  0.00000000000E+00 0.  1.
<mgrwt>
<rscale>  0 0.32337008E+02</rscale>
<asrwt>0</asrwt>
<pdfrwt beam="1">  1        2 0.57554280E-01 0.38276365E+02</pdfrwt>
<pdfrwt beam="2">  1       -2 0.21396280E+00 0.27319263E+02</pdfrwt>
<totfact> 0.12164729E+01</totfact>
</mgrwt>
</event>
<event>
 5    1  0.9399923E-003  0.5536739E+02  0.7546771E-02  0.1421224E+00
          2   -1    0    0  502    0  0.00000000000E+00  0.00000000000E+00  0.45444948810E+04  0.45444948810E+04  0.00000000000E+00 0. -1.
          1   -1    0    0  501    0 -0.00000000000E+00 -0.00000000000E+00 -0.11480605606E+03  0.11480605606E+03  0.00000000000E+00 0. -1.
         25    1    1    2    0    0  0.43125146831E+02  0.21707697618E+02  0.87113300812E+03  0.88137887441E+03  0.12500000000E+03 0.  0.
          2    1    1    2  501    0  0.34736274216E+01 -0.54053426113E+02 -0.10276292716E+03  0.11616392797E+03  0.00000000000E+00 0. -1.
          1    1    1    2  502    0 -0.46598774253E+02  0.32345728495E+02  0.36613187440E+04  0.36617581347E+04  0.00000000000E+00 0. -1.
<mgrwt>
<rscale>  0 0.54762858E+02</rscale>
<asrwt>0</asrwt>
<pdfrwt beam="1">  1        2 0.69915292E+00 0.55367392E+02</pdfrwt>
<pdfrwt beam="2">  1        1 0.17662474E-01 0.54164924E+02</pdfrwt>
<totfact> 0.87960363E+00</totfact>
</mgrwt>
</event>
<event>
 5    1  0.9399923E-003  0.2539415E+02  0.7546771E-02  0.1689014E+00
          1   -1    0    0  501    0 -0.00000000000E+00  0.00000000000E+00  0.13830489039E+04  0.13830489039E+04  0.00000000000E+00 0. -1.
          2   -1    0    0  502    0  0.00000000000E+00 -0.00000000000E+00 -0.19965124006E+04  0.19965124006E+04  0.00000000000E+00 0. -1.
         25    1    1    2    0    0  0.70110217047E+01  0.31375497082E+02 -0.14957098681E+03  0.19756026001E+03  0.12500000000E+03 0.  0.
          2    1    1    2  501    0  0.13425153697E+02 -0.16294715828E+02  0.13588837963E+04  0.13590478006E+04  0.00000000000E+00 0. -1.
          1    1    1    2  502    0 -0.20436175402E+02 -0.15080781254E+02 -0.18227763061E+04  0.18229532439E+04  0.00000000000E+00 0. -1.
<mgrwt>
<rscale>  0 0.23154761E+02</rscale>
<asrwt>0</asrwt>
<pdfrwt beam="2">  1        2 0.30715575E+00 0.25394152E+02</pdfrwt>
<pdfrwt beam="1">  1        1 0.21277675E+00 0.21112852E+02</pdfrwt>
<totfact> 0.14561818E+01</totfact>
</mgrwt>
</event>
<event>
 5    1  0.9399923E-003  0.9121893E+02  0.7546771E-02  0.1451533E+00
          1   -1    0    0  502    0  0.00000000000E+00  0.00000000000E+00  0.46621490840E+03  0.46621490840E+03  0.00000000000E+00 0. -1.
         -1   -1    0    0    0  501 -0.00000000000E+00 -0.00000000000E+00 -0.83590524937E+02  0.83590524937E+02  0.00000000000E+00 0.  1.
         25    1    1    2    0    0 -0.67939206834E+02 -0.30659892083E+02  0.72389827945E+02  0.16254553823E+03  0.12500000000E+03 0.  0.
          2    1    1    2  502    0  0.91713304065E+02  0.19692296706E+02  0.33700393121E+03  0.34981533178E+03  0.00000000000E+00 0. -1.
         -2    1    1    2    0  501 -0.23774097231E+02  0.10967595377E+02 -0.26769375700E+02  0.37444563329E+02  0.00000000000E+00 0.  1.
<mgrwt>
<rscale>  0 0.48870152E+02</rscale>
<asrwt>0</asrwt>
<pdfrwt beam="1">  1        1 0.71725369E-01 0.91218927E+02</pdfrwt>
<pdfrwt beam="2">  1       -1 0.12860081E-01 0.26181976E+02</pdfrwt>
<totfact> 0.18083871E+03</totfact>
</mgrwt>
</event>
<event>
 5    1  0.9399923E-003  0.3687999E+02  0.7546771E-02  0.1585386E+00
          2   -1    0    0  502    0  0.00000000000E+00  0.00000000000E+00  0.29807729335E+03  0.29807729335E+03  0.00000000000E+00 0. -1.
          1   -1    0    0  501    0 -0.00000000000E+00 -0.00000000000E+00 -0.25119142037E+03  0.25119142037E+03  0.00000000000E+00 0. -1.
         25    1    1    2    0    0 -0.56318374389E+02 -0.15252507717E+02  0.53282716053E+01  0.13804995025E+03  0.12500000000E+03 0.  0.
          2    1    1    2  501    0  0.36358380038E+02 -0.19700947081E+01 -0.18225609901E+03  0.18585773780E+03  0.00000000000E+00 0. -1.
          1    1    1    2  502    0  0.19959994351E+02  0.17222602425E+02  0.22381370039E+03  0.22536102567E+03  0.00000000000E+00 0. -1.
<mgrwt>
<rscale>  0 0.31181330E+02</rscale>
<asrwt>0</asrwt>
<pdfrwt beam="1">  1        2 0.45858045E-01 0.26363221E+02</pdfrwt>
<pdfrwt beam="2">  1        1 0.38644834E-01 0.36879991E+02</pdfrwt>
<totfact> 0.15781388E+03</totfact>
</mgrwt>
</event>
<event>
 5    1  0.9399923E-003  0.1350475E+03  0.7546771E-02  0.1320552E+00
          1   -1    0    0  501    0 -0.00000000000E+00  0.00000000000E+00  0.32619755696E+03  0.32619755696E+03  0.00000000000E+00 0. -1.
          2   -1    0    0  502    0  0.00000000000E+00 -0.00000000000E+00 -0.13948772338E+04  0.13948772338E+04  0.00000000000E+00 0. -1.
         25    1    1    2    0    0  0.13748787359E+03  0.63579667710E+02 -0.40587838490E+03  0.45089638816E+03  0.12500000000E+03 0.  0.
          2    1    1    2  501    0 -0.49819319065E+01 -0.50857073177E+02  0.29691202627E+03  0.30127730230E+03  0.00000000000E+00 0. -1.
          1    1    1    2  502    0 -0.13250594168E+03 -0.12722594533E+02 -0.95971331819E+03  0.96890110027E+03  0.00000000000E+00 0. -1.
<mgrwt>
<rscale>  0 0.83072239E+02</rscale>
<asrwt>0</asrwt>
<pdfrwt beam="2">  1        2 0.21459649E+00 0.13504753E+03</pdfrwt>
<pdfrwt beam="1">  1        1 0.50184240E-01 0.51100504E+02</pdfrwt>
<totfact> 0.17743622E+02</totfact>
</mgrwt>
</event>
<event>
 5    1  0.9399923E-003  0.1118461E+03  0.7546771E-02  0.1427878E+00
          2   -1    0    0  502    0  0.00000000000E+00  0.00000000000E+00  0.13929315317E+04  0.13929315317E+04  0.00000000000E+00 0. -1.
          1   -1    0    0  501    0 -0.00000000000E+00 -0.00000000000E+00 -0.89677088337E+02  0.89677088337E+02  0.00000000000E+00 0. -1.
         25    1    1    2    0    0 -0.33312669938E+02  0.11511595896E+03  0.93690542479E+03  0.95277394643E+03  0.12500000000E+03 0.  0.
          2    1    1    2  501    0  0.81114778576E+01 -0.11132836064E+03 -0.43054324962E+02  0.11963893536E+03  0.00000000000E+00 0. -1.
          1    1    1    2  502    0  0.25201192081E+02 -0.37875983140E+01  0.40940334352E+03  0.41019573823E+03  0.00000000000E+00 0. -1.
<mgrwt>
<rscale>  0 0.53388318E+02</rscale>
<asrwt>0</asrwt>
<pdfrwt beam="1">  1        2 0.21429714E+00 0.25484230E+02</pdfrwt>
<pdfrwt beam="2">  1        1 0.13796476E-01 0.11184613E+03</pdfrwt>
<totfact> 0.10179999E+03</totfact>
</mgrwt>
</event>
<event>
 5    1  0.9399923E-003  0.5373015E+02  0.7546771E-02  0.1436999E+00
          1   -1    0    0  501    0 -0.00000000000E+00  0.00000000000E+00  0.49294263780E+03  0.49294263780E+03  0.00000000000E+00 0. -1.
          2   -1    0    0  502    0  0.00000000000E+00 -0.00000000000E+00 -0.99110039607E+02  0.99110039607E+02  0.00000000000E+00 0. -1.
         25    1    1    2    0    0  0.29016886525E+02  0.35248859550E+01  0.82090925272E+02  0.15237560348E+03  0.12500000000E+03 0.  0.
          2    1    1    2  501    0 -0.20454980078E+02 -0.52295678463E+02  0.36363764849E+03  0.36794780010E+03  0.00000000000E+00 0. -1.
          1    1    1    2  502    0 -0.85619064472E+01  0.48770792508E+02 -0.51895975569E+02  0.71729273829E+02  0.00000000000E+00 0. -1.
<mgrwt>
<rscale>  0 0.51580381E+02</rscale>
<asrwt>0</asrwt>
<pdfrwt beam="2">  1        2 0.15247699E-01 0.49516628E+02</pdfrwt>
<pdfrwt beam="1">  1        1 0.75837327E-01 0.53730147E+02</pdfrwt>
<totfact> 0.22857830E+03</totfact>
</mgrwt>
</event>
<event>
 5    1  0.9399923E-003  0.7682395E+02  0.7546771E-02  0.1484122E+00
         -1   -1    0    0    0  501 -0.00000000000E+00  0.00000000000E+00  0.30559699495E+03  0.30559699495E+03  0.00000000000E+00 0.  1.
          1   -1    0    0  502    0  0.00000000000E+00 -0.00000000000E+00 -0.99884218407E+02  0.99884218407E+02  0.00000000000E+00 0. -1.
         25    1    1    2    0    0  0.96094591901E+02 -0.51347295483E+01  0.12802631283E+03  0.20316562902E+03  0.12500000000E+03 0.  0.
          2    1    1    2  502    0 -0.74046835176E+02 -0.57713730617E+01 -0.38428306874E+02  0.83624023556E+02  0.00000000000E+00 0. -1.
         -2    1    1    2    0  501 -0.22047756725E+02  0.10906102610E+02  0.11611477059E+03  0.11869156078E+03  0.00000000000E+00 0.  1.
<mgrwt>
<rscale>  0 0.43470590E+02</rscale>
<asrwt>0</asrwt>
<pdfrwt beam="2">  1        1 0.15366803E-01 0.76823952E+02</pdfrwt>
<pdfrwt beam="1">  1       -1 0.47014922E-01 0.24597696E+02</pdfrwt>
<totfact> 0.15800179E+03</totfact>
</mgrwt>
</event>
<event>
 5    1  0.9399923E-003  0.7441968E+02  0.7546771E-02  0.1351404E+00
          1   -1    0    0  501    0 -0.00000000000E+00  0.00000000000E+00  0.14493165600E+04  0.14493165600E+04  0.00000000000E+00 0. -1.
          2   -1    0    0  502    0  0.00000000000E+00 -0.00000000000E+00 -0.24063086396E+02  0.24063086396E+02  0.00000000000E+00 0. -1.
         25    1    1    2    0    0  0.95009131162E+01 -0.11221394342E+02  0.69299419128E+03  0.70433098483E+03  0.12500000000E+03 0.  0.
          2    1    1    2  501    0  0.10856541260E+02 -0.70027350327E+02  0.64205106305E+03  0.64594989112E+03  0.00000000000E+00 0. -1.
          1    1    1    2  502    0 -0.20357454376E+02  0.81248744669E+02  0.90208219262E+02  0.12309877043E+03  0.00000000000E+00 0. -1.
<mgrwt>
<rscale>  0 0.72620036E+02</rscale>
<asrwt>0</asrwt>
<pdfrwt beam="2">  1        2 0.37020144E-02 0.74419677E+02</pdfrwt>
<pdfrwt beam="1">  1        1 0.22297171E+00 0.70863914E+02</pdfrwt>
<totfact> 0.24644359E+03</totfact>
</mgrwt>
</event>
<event>
 5    1  0.9399923E-003  0.7370222E+02  0.7546771E-02  0.1355048E+00
         -1   -1    0    0    0  501 -0.00000000000E+00  0.00000000000E+00  0.13668633444E+03  0.13668633444E+03  0.00000000000E+00 0.  1.
          1   -1    0    0  502    0  0.00000000000E+00 -0.00000000000E+00 -0.42025184109E+03  0.42025184109E+03  0.00000000000E+00 0. -1.
         25    1    1    2    0    0 -0.48523433730E+02 -0.50253352088E+02 -0.80961718015E+02  0.16449839756E+03  0.12500000000E+03 0.  0.
          2    1    1    2  502    0 -0.15845691757E+02  0.76125213169E+02 -0.27877244319E+03  0.28941356068E+03  0.00000000000E+00 0. -1.
         -2    1    1    2    0  501  0.64369125487E+02 -0.25871861082E+02  0.76168654555E+02  0.10302621729E+03  0.00000000000E+00 0.  1.
<mgrwt>
<rscale>  0 0.71505316E+02</rscale>
<asrwt>0</asrwt>
<pdfrwt beam="2">  1        1 0.64654130E-01 0.73702220E+02</pdfrwt>
<pdfrwt beam="1">  1       -1 0.21028667E-01 0.69373896E+02</pdfrwt>
<totfact> 0.10350442E+03</totfact>
</mgrwt>
</event>
<event>
 5    1  0.9399923E-003  0.1044554E+03  0.7546771E-02  0.1327286E+00
          2   -1    0    0  502    0  0.00000000000E+00  0.00000000000E+00  0.11242663795E+04  0.11242663795E+04  0.00000000000E+00 0. -1.
          1   -1    0    0  501    0 -0.00000000000E+00 -0.00000000000E+00 -0.13593552377E+04  0.13593552377E+04  0.00000000000E+00 0. -1.
         25    1    1    2    0    0  0.21464821088E+02  0.46536778583E+02 -0.33016180442E+02  0.13907364407E+03  0.12500000000E+03 0.  0.
          2    1    1    2  501    0 -0.77538794087E+02 -0.73527924270E+02 -0.12701610993E+04  0.12746481234E+04  0.00000000000E+00 0. -1.
          1    1    1    2  502    0  0.56073973000E+02  0.26991145687E+02  0.10680884216E+04  0.10698998498E+04  0.00000000000E+00 0. -1.
<mgrwt>
<rscale>  0 0.80625423E+02</rscale>
<asrwt>0</asrwt>
<pdfrwt beam="1">  1        2 0.17296406E+00 0.62231924E+02</pdfrwt>
<pdfrwt beam="2">  1        1 0.20913157E+00 0.10445537E+03</pdfrwt>
<totfact> 0.31941963E+01</totfact>
</mgrwt>
</event>
<event>
 5    1  0.9399923E-003  0.1224290E+03  0.7546771E-02  0.1338075E+00
          1   -1    0    0  501    0 -0.00000000000E+00  0.00000000000E+00  0.54128169675E+02  0.54128169675E+02  0.00000000000E+00 0. -1.
          2   -1    0    0  502    0  0.00000000000E+00 -0.00000000000E+00 -0.72752561432E+03  0.72752561432E+03  0.00000000000E+00 0. -1.
         25    1    1    2    0    0 -0.50663917180E+02 -0.68131301237E+02 -0.39988873775E+03  0.42748650188E+03  0.12500000000E+03 0.  0.
          2    1    1    2  501    0  0.78779781585E+02  0.10741330640E+03 -0.81467651642E+02  0.15614368588E+03  0.00000000000E+00 0. -1.
          1    1    1    2  502    0 -0.28115864406E+02 -0.39282005159E+02 -0.19204105525E+03  0.19802359622E+03  0.00000000000E+00 0. -1.
<mgrwt>
<rscale>  0 0.76903791E+02</rscale>
<asrwt>0</asrwt>
<pdfrwt beam="2">  1        2 0.11192701E+00 0.48307119E+02</pdfrwt>
<pdfrwt beam="1">  1        1 0.83274110E-02 0.12242902E+03</pdfrwt>
<totfact> 0.44772217E+03</totfact>
</mgrwt>
</event>
<event>
 5    1  0.9399923E-003  0.7067290E+02  0.7546771E-02  0.1389597E+00
          2   -1    0    0  502    0  0.00000000000E+00  0.00000000000E+00  0.60301318300E+03  0.60301318300E+03  0.00000000000E+00 0. -1.
          1   -1    0    0  501    0 -0.00000000000E+00 -0.00000000000E+00 -0.69141254001E+02  0.69141254001E+02  0.00000000000E+00 0. -1.
         25    1    1    2    0    0  0.16637975354E+02 -0.19271280909E+02  0.12400850208E+03  0.17790815911E+03  0.12500000000E+03 0.  0.
          2    1    1    2  501    0  0.52784334252E+02 -0.13175402501E+02 -0.19730558226E+02  0.57871168136E+02  0.00000000000E+00 0. -1.
          1    1    1    2  502    0 -0.69422309606E+02  0.32446683410E+02  0.42959398515E+03  0.43637510975E+03  0.00000000000E+00 0. -1.
<mgrwt>
<rscale>  0 0.62007070E+02</rscale>
<asrwt>0</asrwt>
<pdfrwt beam="1">  1        2 0.92771255E-01 0.70672900E+02</pdfrwt>
<pdfrwt beam="2">  1        1 0.10637116E-01 0.54403834E+02</pdfrwt>
<totfact> 0.37597176E+03</totfact>
</mgrwt>
</event>
<event>
 5    1  0.9399923E-003  0.7803852E+02  0.7546771E-02  0.1358249E+00
          2   -1    0    0  502    0  0.00000000000E+00  0.00000000000E+00  0.29307796921E+03  0.29307796921E+03  0.00000000000E+00 0. -1.
          1   -1    0    0  501    0 -0.00000000000E+00 -0.00000000000E+00 -0.79079527744E+03  0.79079527744E+03  0.00000000000E+00 0. -1.
         25    1    1    2    0    0 -0.50573461867E+02  0.22556789402E+02  0.84301940805E+02  0.16061849525E+03  0.12500000000E+03 0.  0.
          2    1    1    2  501    0  0.68707103586E+02  0.38582022317E+02 -0.74452541978E+03  0.74868373779E+03  0.00000000000E+00 0. -1.
          1    1    1    2  502    0 -0.18133641718E+02 -0.61138811719E+02  0.16250617075E+03  0.17457101361E+03  0.00000000000E+00 0. -1.
<mgrwt>
<rscale>  0 0.70545167E+02</rscale>
<asrwt>0</asrwt>
<pdfrwt beam="1">  1        2 0.45088918E-01 0.63771336E+02</pdfrwt>
<pdfrwt beam="2">  1        1 0.12166081E+00 0.78038518E+02</pdfrwt>
<totfact> 0.37771425E+02</totfact>
</mgrwt>
</event>
<event>
 5    1  0.9399923E-003  0.8590415E+02  0.7546771E-02  0.1484115E+00
          1   -1    0    0  501    0 -0.00000000000E+00  0.00000000000E+00  0.33489839844E+03  0.33489839844E+03  0.00000000000E+00 0. -1.
          2   -1    0    0  502    0  0.00000000000E+00 -0.00000000000E+00 -0.44079981046E+03  0.44079981046E+03  0.00000000000E+00 0. -1.
         25    1    1    2    0    0  0.31645083092E+01  0.94906702826E+02  0.13617994749E+03  0.20781548174E+03  0.12500000000E+03 0.  0.
          2    1    1    2  501    0  0.18466153927E+02 -0.11956002216E+02  0.15759165550E+03  0.15911968676E+03  0.00000000000E+00 0. -1.
          1    1    1    2  502    0 -0.21630662236E+02 -0.82950700610E+02 -0.39967301500E+03  0.40876304041E+03  0.00000000000E+00 0. -1.
<mgrwt>
<rscale>  0 0.43471642E+02</rscale>
<asrwt>0</asrwt>
<pdfrwt beam="2">  1        2 0.67815355E-01 0.85904151E+02</pdfrwt>
<pdfrwt beam="1">  1        1 0.51522831E-01 0.21998746E+02</pdfrwt>
<totfact> 0.75605951E+02</totfact>
</mgrwt>
</event>
<event>
 5    1  0.9399923E-003  0.2236769E+03  0.7546771E-02  0.1201331E+00
          2   -1    0    0  502    0  0.00000000000E+00  0.00000000000E+00  0.15418351632E+04  0.15418351632E+04  0.00000000000E+00 0. -1.
          1   -1    0    0  501    0 -0.00000000000E+00 -0.00000000000E+00 -0.32802342238E+03  0.32802342238E+03  0.00000000000E+00 0. -1.
         25    1    1    2    0    0  0.15034224825E+03 -0.25879239860E+03  0.63174226672E+03  0.71014054155E+03  0.12500000000E+03 0.  0.
          2    1    1    2  501    0 -0.37113406953E+02  0.92491566500E+02 -0.26812291123E+03  0.28604543412E+03  0.00000000000E+00 0. -1.
          1    1    1    2  502    0 -0.11322884130E+03  0.16630083210E+03  0.85019238531E+03  0.87367260990E+03  0.00000000000E+00 0. -1.
<mgrwt>
<rscale>  0 0.14930376E+03</rscale>
<asrwt>0</asrwt>
<pdfrwt beam="1">  1        2 0.23720541E+00 0.22367687E+03</pdfrwt>
<pdfrwt beam="2">  1        1 0.50465143E-01 0.99659896E+02</pdfrwt>
<totfact> 0.14170388E+02</totfact>
</mgrwt>
</event>
<event>
 5    1  0.9399923E-003  0.1022977E+03  0.7546771E-02  0.1343686E+00
          1   -1    0    0  501    0 -0.00000000000E+00  0.00000000000E+00  0.34317932199E+03  0.34317932199E+03  0.00000000000E+00 0. -1.
          2   -1    0    0  502    0  0.00000000000E+00 -0.00000000000E+00 -0.10941749238E+04  0.10941749238E+04  0.00000000000E+00 0. -1.
         25    1    1    2    0    0  0.78057258214E+02  0.11341551789E+03 -0.16705735516E+03  0.24997834941E+03  0.12500000000E+03 0.  0.
          2    1    1    2  501    0 -0.52601065142E+02 -0.16318236776E+02  0.29632924828E+03  0.30140368328E+03  0.00000000000E+00 0. -1.
          1    1    1    2  502    0 -0.25456193072E+02 -0.97097281116E+02 -0.88026749489E+03  0.88597221307E+03  0.00000000000E+00 0. -1.
<mgrwt>
<rscale>  0 0.75059686E+02</rscale>
<asrwt>0</asrwt>
<pdfrwt beam="2">  1        2 0.16833461E+00 0.10229774E+03</pdfrwt>
<pdfrwt beam="1">  1        1 0.52796818E-01 0.55074104E+02</pdfrwt>
<totfact> 0.24777763E+02</totfact>
</mgrwt>
</event>
<event>
 5    1  0.9399923E-003  0.1609633E+03  0.7546771E-02  0.1236890E+00
          1   -1    0    0  501    0 -0.00000000000E+00  0.00000000000E+00  0.13843211592E+04  0.13843211592E+04  0.00000000000E+00 0. -1.
          2   -1    0    0  502    0  0.00000000000E+00 -0.00000000000E+00 -0.10083318244E+04  0.10083318244E+04  0.00000000000E+00 0. -1.
         25    1    1    2    0    0 -0.41885318494E+02 -0.11175188268E+03 -0.84376245066E+02  0.19232060191E+03  0.12500000000E+03 0.  0.
          2    1    1    2  501    0 -0.41480463887E+02  0.15789072256E+03  0.13227069871E+04  0.13327429921E+04  0.00000000000E+00 0. -1.
          1    1    1    2  502    0  0.83365782381E+02 -0.46138839880E+02 -0.86234140730E+03  0.86758938961E+03  0.00000000000E+00 0. -1.
<mgrwt>
<rscale>  0 0.12384223E+03</rscale>
<asrwt>0</asrwt>
<pdfrwt beam="2">  1        2 0.15512797E+00 0.95281930E+02</pdfrwt>
<pdfrwt beam="1">  1        1 0.21297249E+00 0.16096335E+03</pdfrwt>
<totfact> 0.33649811E+01</totfact>
</mgrwt>
</event>
<event>
 5    1  0.9399923E-003  0.7502242E+02  0.7546771E-02  0.1467086E+00
          1   -1    0    0  502    0  0.00000000000E+00  0.00000000000E+00  0.11714779644E+04  0.11714779644E+04  0.00000000000E+00 0. -1.
         -1   -1    0    0    0  501 -0.00000000000E+00 -0.00000000000E+00 -0.18620414458E+02  0.18620414458E+02  0.00000000000E+00 0.  1.
         25    1    1    2    0    0 -0.37967014876E+02 -0.45076459259E+02  0.95192764342E+03  0.96190676248E+03  0.12500000000E+03 0.  0.
          2    1    1    2  502    0 -0.28117564298E+02  0.42052904764E+01  0.75130790642E+02  0.80330054105E+02  0.00000000000E+00 0. -1.
         -2    1    1    2    0  501  0.66084579174E+02  0.40871168783E+02  0.12579911590E+03  0.14786156229E+03  0.00000000000E+00 0.  1.
<mgrwt>
<rscale>  0 0.46183437E+02</rscale>
<asrwt>0</asrwt>
<pdfrwt beam="1">  1        1 0.18022732E+00 0.28430299E+02</pdfrwt>
<pdfrwt beam="2">  1       -1 0.28646801E-02 0.75022420E+02</pdfrwt>
<totfact> 0.50157450E+03</totfact>
</mgrwt>
</event>
<event>
 5    1  0.9399923E-003  0.2448960E+03  0.7546771E-02  0.1271332E+00
         -2   -1    0    0    0  501 -0.00000000000E+00  0.00000000000E+00  0.14180468479E+04  0.14180468479E+04  0.00000000000E+00 0.  1.
          2   -1    0    0  502    0  0.00000000000E+00 -0.00000000000E+00 -0.52382737808E+03  0.52382737808E+03  0.00000000000E+00 0. -1.
         25    1    1    2    0    0 -0.11770908167E+03  0.20468647563E+03  0.23263712335E+03  0.35425557494E+03  0.12500000000E+03 0.  0.
          1    1    1    2  502    0 -0.41766323422E+02 -0.15342533278E+02 -0.44827998231E+03  0.45048280948E+03  0.00000000000E+00 0. -1.
         -1    1    1    2    0  501  0.15947540509E+03 -0.18934394235E+03  0.11098623288E+04  0.11371358416E+04  0.00000000000E+00 0.  1.
<mgrwt>
<rscale>  0 0.10438720E+03</rscale>
<asrwt>0</asrwt>
<pdfrwt beam="2">  1        2 0.80588828E-01 0.44495158E+02</pdfrwt>
<pdfrwt beam="1">  1       -2 0.21816105E+00 0.24489601E+03</pdfrwt>
<totfact> 0.68953473E+00</totfact>
</mgrwt>
</event>
<event>
 5    1  0.9399923E-003  0.1652707E+03  0.7546771E-02  0.1284450E+00
          1   -1    0    0  501    0 -0.00000000000E+00  0.00000000000E+00  0.73218186666E+03  0.73218186666E+03  0.00000000000E+00 0. -1.
          2   -1    0    0  502    0  0.00000000000E+00 -0.00000000000E+00 -0.24912046133E+04  0.24912046133E+04  0.00000000000E+00 0. -1.
         25    1    1    2    0    0 -0.12618284939E+03 -0.16145288988E+03 -0.22601619383E+01  0.24004011219E+03  0.12500000000E+03 0.  0.
          2    1    1    2  501    0  0.56846208339E+02  0.12342564545E+02  0.60905199263E+03  0.61182363474E+03  0.00000000000E+00 0. -1.
          1    1    1    2  502    0  0.69336641054E+02  0.14911032533E+03 -0.23658145773E+04  0.23715227330E+04  0.00000000000E+00 0. -1.
<mgrwt>
<rscale>  0 0.98050568E+02</rscale>
<asrwt>0</asrwt>
<pdfrwt beam="2">  1        2 0.38326225E+00 0.16527073E+03</pdfrwt>
<pdfrwt beam="1">  1        1 0.11264336E+00 0.58170700E+02</pdfrwt>
<totfact> 0.16752450E+01</totfact>
</mgrwt>
</event>
<event>
 5    1  0.9399923E-003  0.9285623E+02  0.7546771E-02  0.1351877E+00
         -2   -1    0    0    0  501 -0.00000000000E+00  0.00000000000E+00  0.72558064150E+03  0.72558064150E+03  0.00000000000E+00 0.  1.
          2   -1    0    0  502    0  0.00000000000E+00 -0.00000000000E+00 -0.49649207948E+02  0.49649207948E+02  0.00000000000E+00 0. -1.
         25    1    1    2    0    0 -0.34998722742E+02 -0.53127750050E+02  0.31118359773E+03  0.34133224272E+03  0.12500000000E+03 0.  0.
          1    1    1    2  502    0  0.91088796038E+02  0.45809486443E+02  0.48998917138E+02  0.11312193285E+03  0.00000000000E+00 0. -1.
         -3    1    1    2    0  501 -0.56090073296E+02  0.73182636065E+01  0.31574891868E+03  0.32077567387E+03  0.00000000000E+00 0.  1.
<mgrwt>
<rscale>  0 0.72473838E+02</rscale>
<asrwt>0</asrwt>
<pdfrwt beam="2">  1        2 0.76383402E-02 0.92856232E+02</pdfrwt>
<pdfrwt beam="1">  1       -2 0.11162778E+00 0.56565478E+02</pdfrwt>
<totfact> 0.58582634E+02</totfact>
</mgrwt>
</event>
<event>
 5    1  0.9399923E-003  0.1287219E+03  0.7546771E-02  0.1231087E+00
          2   -1    0    0  502    0  0.00000000000E+00  0.00000000000E+00  0.68061045633E+03  0.68061045633E+03  0.00000000000E+00 0. -1.
          1   -1    0    0  501    0 -0.00000000000E+00 -0.00000000000E+00 -0.28877203942E+03  0.28877203942E+03  0.00000000000E+00 0. -1.
         25    1    1    2    0    0 -0.69163861942E+02 -0.12268246772E+03  0.15882505720E+03  0.24634331020E+03  0.12500000000E+03 0.  0.
          2    1    1    2  501    0 -0.57255676670E+02  0.11974072578E+03 -0.21767432341E+03  0.25494737692E+03  0.00000000000E+00 0. -1.
          1    1    1    2  502    0  0.12641953861E+03  0.29417419340E+01  0.45068768312E+03  0.46809180863E+03  0.00000000000E+00 0. -1.
<mgrwt>
<rscale>  0 0.12758280E+03</rscale>
<asrwt>0</asrwt>
<pdfrwt beam="1">  1        2 0.10470930E+00 0.12645376E+03</pdfrwt>
<pdfrwt beam="2">  1        1 0.44426468E-01 0.12872192E+03</pdfrwt>
<totfact> 0.55649922E+02</totfact>
</mgrwt>
</event>
<event>
 5    1  0.9399923E-003  0.1470820E+03  0.7546771E-02  0.1258413E+00
          2   -1    0    0  502    0  0.00000000000E+00  0.00000000000E+00  0.28408463596E+03  0.28408463596E+03  0.00000000000E+00 0. -1.
          1   -1    0    0  501    0 -0.00000000000E+00 -0.00000000000E+00 -0.10432373137E+04  0.10432373137E+04  0.00000000000E+00 0. -1.
         25    1    1    2    0    0  0.85395611597E+02 -0.19139214688E+03 -0.52553972443E+03  0.57943107124E+03  0.12500000000E+03 0.  0.
          2    1    1    2  501    0 -0.69541287735E+02  0.47171394701E+02 -0.46622591633E+03  0.47373804600E+03  0.00000000000E+00 0. -1.
          1    1    1    2  502    0 -0.15854323862E+02  0.14422075218E+03  0.23261296302E+03  0.27415283240E+03  0.00000000000E+00 0. -1.
<mgrwt>
<rscale>  0 0.11117275E+03</rscale>
<asrwt>0</asrwt>
<pdfrwt beam="1">  1        2 0.43705328E-01 0.14708202E+03</pdfrwt>
<pdfrwt beam="2">  1        1 0.16049805E+00 0.84030537E+02</pdfrwt>
<totfact> 0.25320206E+02</totfact>
</mgrwt>
</event>
<event>
 5    1  0.9399923E-003  0.7760642E+02  0.7546771E-02  0.1357028E+00
          1   -1    0    0  501    0 -0.00000000000E+00  0.00000000000E+00  0.28977375608E+03  0.28977375608E+03  0.00000000000E+00 0. -1.
          2   -1    0    0  502    0  0.00000000000E+00 -0.00000000000E+00 -0.24471091024E+04  0.24471091024E+04  0.00000000000E+00 0. -1.
         25    1    1    2    0    0 -0.45902346198E+02  0.60197420011E+02 -0.15585221409E+02  0.14696480493E+03  0.12500000000E+03 0.  0.
          2    1    1    2  501    0  0.62827202208E+02  0.15827627227E+02  0.21874494236E+03  0.22813838110E+03  0.00000000000E+00 0. -1.
          3    1    1    2  502    0 -0.16924856010E+02 -0.76025047238E+02 -0.23604950673E+04  0.23617796725E+04  0.00000000000E+00 0. -1.
<mgrwt>
<rscale>  0 0.70909350E+02</rscale>
<asrwt>0</asrwt>
<pdfrwt beam="2">  1        2 0.37647832E+00 0.77606416E+02</pdfrwt>
<pdfrwt beam="1">  1        1 0.44580579E-01 0.64790209E+02</pdfrwt>
<totfact> 0.62947792E+01</totfact>
</mgrwt>
</event>
<event>
 5    1  0.9399923E-003  0.7344025E+02  0.7546771E-02  0.1354256E+00
         -2   -1    0    0    0  501 -0.00000000000E+00  0.00000000000E+00  0.42464566779E+03  0.42464566779E+03  0.00000000000E+00 0.  1.
          2   -1    0    0  502    0  0.00000000000E+00 -0.00000000000E+00 -0.71019991714E+02  0.71019991714E+02  0.00000000000E+00 0. -1.
         25    1    1    2    0    0  0.23238844118E+01 -0.10999826341E+02  0.27733338641E+03  0.30440959879E+03  0.12500000000E+03 0.  0.
          1    1    1    2  502    0 -0.75244188689E+02  0.19723307067E+02 -0.94536668293E+01  0.78358589763E+02  0.00000000000E+00 0. -1.
         -1    1    1    2    0  501  0.72920304277E+02 -0.87234807257E+01  0.85745956496E+02  0.11289747095E+03  0.00000000000E+00 0.  1.
<mgrwt>
<rscale>  0 0.71745582E+02</rscale>
<asrwt>0</asrwt>
<pdfrwt beam="2">  1        2 0.10926153E-01 0.70090022E+02</pdfrwt>
<pdfrwt beam="1">  1       -2 0.65330101E-01 0.73440247E+02</pdfrwt>
<totfact> 0.11955503E+03</totfact>
</mgrwt>
</event>
<event>
 5    1  0.9399923E-003  0.9688962E+02  0.7546771E-02  0.1359535E+00
         -2   -1    0    0    0  501 -0.00000000000E+00  0.00000000000E+00  0.91820184477E+03  0.91820184477E+03  0.00000000000E+00 0.  1.
          2   -1    0    0  502    0  0.00000000000E+00 -0.00000000000E+00 -0.18441080226E+03  0.18441080226E+03  0.00000000000E+00 0. -1.
         25    1    1    2    0    0  0.12401941229E+03  0.65477005739E+02  0.19033311352E+03  0.26743176141E+03  0.12500000000E+03 0.  0.
          1    1    1    2  502    0 -0.89947935977E+02 -0.27782381040E+02 -0.12961360471E+03  0.16019418968E+03  0.00000000000E+00 0. -1.
         -1    1    1    2    0  501 -0.34071476313E+02 -0.37694624699E+02  0.67307153369E+03  0.67498669594E+03  0.00000000000E+00 0.  1.
<mgrwt>
<rscale>  0 0.70164457E+02</rscale>
<asrwt>0</asrwt>
<pdfrwt beam="2">  1        2 0.28370893E-01 0.96889615E+02</pdfrwt>
<pdfrwt beam="1">  1       -2 0.14126182E+00 0.50810926E+02</pdfrwt>
<totfact> 0.73283253E+01</totfact>
</mgrwt>
</event>
<event>
 5    1  0.9399923E-003  0.6705815E+02  0.7546771E-02  0.1371988E+00
          1   -1    0    0  501    0 -0.00000000000E+00  0.00000000000E+00  0.72378903976E+03  0.72378903976E+03  0.00000000000E+00 0. -1.
          2   -1    0    0  502    0  0.00000000000E+00 -0.00000000000E+00 -0.13913812329E+03  0.13913812329E+03  0.00000000000E+00 0. -1.
         25    1    1    2    0    0  0.63029846300E+01 -0.57173185488E+02  0.34327380387E+03  0.36982483039E+03  0.12500000000E+03 0.  0.
          2    1    1    2  501    0 -0.63186019195E+02  0.19680811682E+02  0.35473056895E+03  0.36085119359E+03  0.00000000000E+00 0. -1.
          1    1    1    2  502    0  0.56883034565E+02  0.37492373806E+02 -0.11335345635E+03  0.13225113906E+03  0.00000000000E+00 0. -1.
<mgrwt>
<rscale>  0 0.66617683E+02</rscale>
<asrwt>0</asrwt>
<pdfrwt beam="2">  1        2 0.21405866E-01 0.67058147E+02</pdfrwt>
<pdfrwt beam="1">  1        1 0.11135216E+00 0.66180113E+02</pdfrwt>
<totfact> 0.95121957E+02</totfact>
</mgrwt>
</event>
<event>
 5    1  0.1040217E-002  0.7294944E+02  0.7546771E-02  0.1428485E+00
          2   -1    0    0  502    0  0.00000000000E+00  0.00000000000E+00  0.14071712604E+04  0.14071712604E+04  0.00000000000E+00 0. -1.
          1   -1    0    0  501    0 -0.00000000000E+00 -0.00000000000E+00 -0.29473474007E+03  0.29473474007E+03  0.00000000000E+00 0. -1.
         25    1    1    2    0    0 -0.89661128120E+01  0.33240597806E+02 -0.61539327286E+02  0.14351800348E+03  0.12500000000E+03 0.  0.
          2    1    1    2  501    0 -0.96276911239E+01  0.37682106755E+02 -0.18924332964E+03  0.19319852851E+03  0.00000000000E+00 0. -1.
          1    1    1    2  502    0  0.18593803936E+02 -0.70922704562E+02  0.13632191773E+04  0.13651894685E+04  0.00000000000E+00 0. -1.
<mgrwt>
<rscale>  0 0.53265304E+02</rscale>
<asrwt>0</asrwt>
<pdfrwt beam="1">  1        2 0.21648788E+00 0.72949436E+02</pdfrwt>
<pdfrwt beam="2">  1        1 0.45343807E-01 0.38892591E+02</pdfrwt>
<totfact> 0.20639913E+02</totfact>
</mgrwt>
</event>
<event>
 5    1  0.9399923E-003  0.1830552E+03  0.7546771E-02  0.1341947E+00
          1   -1    0    0  501    0 -0.00000000000E+00  0.00000000000E+00  0.38791041798E+03  0.38791041798E+03  0.00000000000E+00 0. -1.
          2   -1    0    0  502    0  0.00000000000E+00 -0.00000000000E+00 -0.77979760929E+03  0.77979760929E+03  0.00000000000E+00 0. -1.
         25    1    1    2    0    0 -0.15427485751E+03  0.43324703597E+02 -0.54520326444E+02  0.21041679495E+03  0.12500000000E+03 0.  0.
          2    1    1    2  501    0  0.18461757532E+03 -0.35880575033E+02  0.28100293449E+03  0.33813268694E+03  0.00000000000E+00 0. -1.
          1    1    1    2  502    0 -0.30342717809E+02 -0.74441285639E+01 -0.61836979935E+03  0.61915854539E+03  0.00000000000E+00 0. -1.
<mgrwt>
<rscale>  0 0.75624770E+02</rscale>
<asrwt>0</asrwt>
<pdfrwt beam="2">  1        2 0.11996886E+00 0.31242528E+02</pdfrwt>
<pdfrwt beam="1">  1        1 0.59678527E-01 0.18305515E+03</pdfrwt>
<totfact> 0.34305981E+02</totfact>
</mgrwt>
</event>
<event>
 5    1  0.9399923E-003  0.6582868E+02  0.7546771E-02  0.1496886E+00
          2   -1    0    0  502    0  0.00000000000E+00  0.00000000000E+00  0.36630735189E+03  0.36630735189E+03  0.00000000000E+00 0. -1.
         -2   -1    0    0    0  501 -0.00000000000E+00 -0.00000000000E+00 -0.81376991055E+02  0.81376991055E+02  0.00000000000E+00 0.  1.
         25    1    1    2    0    0 -0.87520387397E+02 -0.34606067940E+01  0.10033792218E+03  0.18265949917E+03  0.12500000000E+03 0.  0.
          3    1    1    2  502    0  0.62467297384E+02  0.11348051790E+02  0.21538753959E+03  0.22455006954E+03  0.00000000000E+00 0. -1.
         -1    1    1    2    0  501  0.25053090013E+02 -0.78874449961E+01 -0.30795100933E+02  0.40474774233E+02  0.00000000000E+00 0.  1.
<mgrwt>
<rscale>  0 0.41581414E+02</rscale>
<asrwt>0</asrwt>
<pdfrwt beam="1">  1        2 0.56354976E-01 0.65828681E+02</pdfrwt>
<pdfrwt beam="2">  1       -2 0.12519537E-01 0.26265359E+02</pdfrwt>
<totfact> 0.35009367E+03</totfact>
</mgrwt>
</event>
<event>
 5    1  0.9399923E-003  0.6402773E+02  0.7546771E-02  0.1501994E+00
          1   -1    0    0  501    0 -0.00000000000E+00  0.00000000000E+00  0.10877700101E+04  0.10877700101E+04  0.00000000000E+00 0. -1.
          2   -1    0    0  502    0  0.00000000000E+00 -0.00000000000E+00 -0.16360619157E+04  0.16360619157E+04  0.00000000000E+00 0. -1.
         25    1    1    2    0    0  0.67578988971E+02  0.24379460000E+01 -0.55790995919E+03  0.57572683270E+03  0.12500000000E+03 0.  0.
          2    1    1    2  501    0 -0.59949644770E+02  0.22492996443E+02  0.10777523062E+04  0.10796526887E+04  0.00000000000E+00 0. -1.
          1    1    1    2  502    0 -0.76293442009E+01 -0.24930942443E+02 -0.10681342526E+04  0.10684524043E+04  0.00000000000E+00 0. -1.
<mgrwt>
<rscale>  0 0.40857592E+02</rscale>
<asrwt>0</asrwt>
<pdfrwt beam="2">  1        2 0.25170183E+00 0.26072184E+02</pdfrwt>
<pdfrwt beam="1">  1        1 0.16734923E+00 0.64027733E+02</pdfrwt>
<totfact> 0.29986757E+01</totfact>
</mgrwt>
</event>
<event>
 5    1  0.9399923E-003  0.7600757E+02  0.7546771E-02  0.1367884E+00
         -1   -1    0    0    0  502 -0.00000000000E+00  0.00000000000E+00  0.39485728442E+03  0.39485728442E+03  0.00000000000E+00 0.  1.
         -2   -1    0    0    0  501  0.00000000000E+00 -0.00000000000E+00 -0.19813990082E+04  0.19813990082E+04  0.00000000000E+00 0.  1.
         25    1    1    2    0    0 -0.96717322433E+02 -0.71081756888E+02 -0.47406027645E+02  0.17966409791E+03  0.12500000000E+03 0.  0.
         -2    1    1    2    0  502  0.60210131525E+02  0.48537255185E+01  0.32518023423E+03  0.33074310774E+03  0.00000000000E+00 0.  1.
         -1    1    1    2    0  501  0.36507190908E+02  0.66228031369E+02 -0.18643159303E+04  0.18658490869E+04  0.00000000000E+00 0.  1.
<mgrwt>
<rscale>  0 0.67758924E+02</rscale>
<asrwt>0</asrwt>
<pdfrwt beam="2">  1       -2 0.30483062E+00 0.76007572E+02</pdfrwt>
<pdfrwt beam="1">  1       -1 0.60747275E-01 0.60405452E+02</pdfrwt>
<totfact> 0.86320566E-01</totfact>
</mgrwt>
</event>
<event>
 5    1  0.9399923E-003  0.8426472E+02  0.7546771E-02  0.1324033E+00
          2   -1    0    0  502    0  0.00000000000E+00  0.00000000000E+00  0.36736665937E+04  0.36736665937E+04  0.00000000000E+00 0. -1.
         -2   -1    0    0    0  501 -0.00000000000E+00 -0.00000000000E+00 -0.13165083401E+03  0.13165083401E+03  0.00000000000E+00 0.  1.
         25    1    1    2    0    0  0.10306974664E+03  0.95289680443E+02  0.56396333230E+03  0.59446037383E+03  0.12500000000E+03 0.  0.
          1    1    1    2  502    0 -0.80598684333E+02 -0.19137787678E+02  0.30802934210E+04  0.30814071400E+04  0.00000000000E+00 0. -1.
         -1    1    1    2    0  501 -0.22471062307E+02 -0.76151892765E+02 -0.10224099366E+03  0.12944991386E+03  0.00000000000E+00 0.  1.
<mgrwt>
<rscale>  0 0.81795227E+02</rscale>
<asrwt>0</asrwt>
<pdfrwt beam="1">  1        2 0.56517940E+00 0.84264718E+02</pdfrwt>
<pdfrwt beam="2">  1       -2 0.20253977E-01 0.79398107E+02</pdfrwt>
<totfact> 0.19178576E+01</totfact>
</mgrwt>
</event>
<event>
 5    1  0.9399923E-003  0.1536287E+03  0.7546771E-02  0.1362503E+00
          2   -1    0    0  502    0  0.00000000000E+00  0.00000000000E+00  0.30199529884E+03  0.30199529884E+03  0.00000000000E+00 0. -1.
         -2   -1    0    0    0  501 -0.00000000000E+00 -0.00000000000E+00 -0.73093825136E+03  0.73093825136E+03  0.00000000000E+00 0.  1.
         25    1    1    2    0    0 -0.53709086338E+01 -0.18281743675E+03  0.51818318259E+02  0.22751087874E+03  0.12500000000E+03 0.  0.
          1    1    1    2  502    0  0.33006107367E+01  0.31082165843E+02  0.15176377209E+03  0.15494914516E+03  0.00000000000E+00 0. -1.
         -1    1    1    2    0  501  0.20702978970E+01  0.15173527090E+03 -0.63252504287E+03  0.65047352631E+03  0.00000000000E+00 0.  1.
<mgrwt>
<rscale>  0 0.69296167E+02</rscale>
<asrwt>0</asrwt>
<pdfrwt beam="1">  1        2 0.46460816E-01 0.31256920E+02</pdfrwt>
<pdfrwt beam="2">  1       -2 0.11245204E+00 0.15362866E+03</pdfrwt>
<totfact> 0.71429088E+01</totfact>
</mgrwt>
</event>
<event>
 5    1  0.9399923E-003  0.1027419E+03  0.7546771E-02  0.1281153E+00
          2   -1    0    0  502    0  0.00000000000E+00  0.00000000000E+00  0.28991725197E+03  0.28991725197E+03  0.00000000000E+00 0. -1.
          1   -1    0    0  501    0 -0.00000000000E+00 -0.00000000000E+00 -0.15671934298E+04  0.15671934298E+04  0.00000000000E+00 0. -1.
         25    1    1    2    0    0 -0.19303420046E+02 -0.80510502879E+02 -0.78710019752E+03  0.80125294635E+03  0.12500000000E+03 0.  0.
          2    1    1    2  501    0 -0.80535061752E+02  0.53238509812E+02 -0.76039378620E+03  0.76649784422E+03  0.00000000000E+00 0. -1.
          1    1    1    2  502    0  0.99838481799E+02  0.27271993067E+02  0.27021780586E+03  0.28935989124E+03  0.00000000000E+00 0. -1.
<mgrwt>
<rscale>  0 0.99593375E+02</rscale>
<asrwt>0</asrwt>
<pdfrwt beam="1">  1        2 0.44602654E-01 0.10274187E+03</pdfrwt>
<pdfrwt beam="2">  1        1 0.24110668E+00 0.96541365E+02</pdfrwt>
<totfact> 0.11003324E+02</totfact>
</mgrwt>
</event>
<event>
 5    1  0.9399923E-003  0.8042259E+02  0.7546771E-02  0.1468760E+00
          2   -1    0    0  502    0  0.00000000000E+00  0.00000000000E+00  0.75548911600E+03  0.75548911600E+03  0.00000000000E+00 0. -1.
         -2   -1    0    0    0  501 -0.00000000000E+00 -0.00000000000E+00 -0.21372241141E+03  0.21372241141E+03  0.00000000000E+00 0.  1.
         25    1    1    2    0    0  0.38697775671E+02  0.89190103990E+02 -0.33908010522E+02  0.16194797211E+03  0.12500000000E+03 0.  0.
          1    1    1    2  502    0 -0.22401171722E+02 -0.13596161555E+02  0.67827700346E+03  0.67878300032E+03  0.00000000000E+00 0. -1.
         -1    1    1    2    0  501 -0.16296603949E+02 -0.75593942435E+02 -0.10260228835E+03  0.12848055498E+03  0.00000000000E+00 0.  1.
<mgrwt>
<rscale>  0 0.45906667E+02</rscale>
<asrwt>0</asrwt>
<pdfrwt beam="1">  1        2 0.11622909E+00 0.26204353E+02</pdfrwt>
<pdfrwt beam="2">  1       -2 0.32880371E-01 0.80422595E+02</pdfrwt>
<totfact> 0.35332055E+02</totfact>
</mgrwt>
</event>
<event>
 5    1  0.9399923E-003  0.5332335E+02  0.7546771E-02  0.1552240E+00
         -2   -1    0    0    0  501 -0.00000000000E+00  0.00000000000E+00  0.47465546998E+03  0.47465546998E+03  0.00000000000E+00 0.  1.
          2   -1    0    0  502    0  0.00000000000E+00 -0.00000000000E+00 -0.79497889299E+03  0.79497889299E+03  0.00000000000E+00 0. -1.
         25    1    1    2    0    0  0.64131684456E+02 -0.24059110334E+02 -0.37749037601E+03  0.40350427225E+03  0.12500000000E+03 0.  0.
          1    1    1    2  502    0 -0.21171630656E+02 -0.74450131914E+01 -0.40263111141E+03  0.40325609486E+03  0.00000000000E+00 0. -1.
         -1    1    1    2    0  501 -0.42960053800E+02  0.31504123525E+02  0.45979806440E+03  0.46287399587E+03  0.00000000000E+00 0.  1.
<mgrwt>
<rscale>  0 0.34593493E+02</rscale>
<asrwt>0</asrwt>
<pdfrwt beam="2">  1        2 0.12230444E+00 0.22442508E+02</pdfrwt>
<pdfrwt beam="1">  1       -2 0.73023919E-01 0.53323351E+02</pdfrwt>
<totfact> 0.70905693E+01</totfact>
</mgrwt>
</event>
<event>
 5    1  0.9399923E-003  0.7678066E+02  0.7546771E-02  0.1349704E+00
          1   -1    0    0  501    0 -0.00000000000E+00  0.00000000000E+00  0.46366413777E+03  0.46366413777E+03  0.00000000000E+00 0. -1.
          2   -1    0    0  502    0  0.00000000000E+00 -0.00000000000E+00 -0.77692298297E+03  0.77692298297E+03  0.00000000000E+00 0. -1.
         25    1    1    2    0    0 -0.12499859584E+03 -0.16008484177E+02 -0.39135930881E+02  0.18176232177E+03  0.12500000000E+03 0.  0.
          2    1    1    2  501    0  0.70489676975E+02 -0.27408945304E+02  0.38685742063E+03  0.39418106086E+03  0.00000000000E+00 0. -1.
          1    1    1    2  502    0  0.54508918869E+02  0.43417429481E+02 -0.66098033495E+03  0.66464373811E+03  0.00000000000E+00 0. -1.
<mgrwt>
<rscale>  0 0.73147956E+02</rscale>
<asrwt>0</asrwt>
<pdfrwt beam="2">  1        2 0.11952661E+00 0.69687125E+02</pdfrwt>
<pdfrwt beam="1">  1        1 0.71332945E-01 0.76780660E+02</pdfrwt>
<totfact> 0.27083904E+02</totfact>
</mgrwt>
</event>
<event>
 5    1  0.9399923E-003  0.7775959E+02  0.7546771E-02  0.1368180E+00
          2   -1    0    0  502    0  0.00000000000E+00  0.00000000000E+00  0.38050720903E+03  0.38050720903E+03  0.00000000000E+00 0. -1.
          1   -1    0    0  501    0 -0.00000000000E+00 -0.00000000000E+00 -0.29427251654E+03  0.29427251654E+03  0.00000000000E+00 0. -1.
         25    1    1    2    0    0  0.79568538110E+02  0.62876856072E+02  0.14495922506E+03  0.21661677732E+03  0.12500000000E+03 0.  0.
          2    1    1    2  501    0 -0.77470238230E+02 -0.40144778236E+01 -0.24804470421E+03  0.25989214903E+03  0.00000000000E+00 0. -1.
          1    1    1    2  502    0 -0.20982998800E+01 -0.58862378249E+02  0.18932017163E+03  0.19827079922E+03  0.00000000000E+00 0. -1.
<mgrwt>
<rscale>  0 0.67675859E+02</rscale>
<asrwt>0</asrwt>
<pdfrwt beam="1">  1        2 0.58539571E-01 0.58899766E+02</pdfrwt>
<pdfrwt beam="2">  1        1 0.45272695E-01 0.77759595E+02</pdfrwt>
<totfact> 0.10345103E+03</totfact>
</mgrwt>
</event>
<event>
 5    1  0.9399923E-003  0.8926156E+02  0.7546771E-02  0.1483788E+00
          2   -1    0    0  502    0  0.00000000000E+00  0.00000000000E+00  0.14156396108E+03  0.14156396108E+03  0.00000000000E+00 0. -1.
          1   -1    0    0  501    0 -0.00000000000E+00 -0.00000000000E+00 -0.12343483738E+04  0.12343483738E+04  0.00000000000E+00 0. -1.
         25    1    1    2    0    0 -0.89398718047E+02  0.55386821797E+02 -0.56278615563E+03  0.58601457984E+03  0.12500000000E+03 0.  0.
          2    1    1    2  501    0  0.21163550971E+02  0.15456544478E+01 -0.64455988972E+03  0.64490909156E+03  0.00000000000E+00 0. -1.
          1    1    1    2  502    0  0.68235167076E+02 -0.56932476245E+02  0.11456163262E+03  0.14498866350E+03  0.00000000000E+00 0. -1.
<mgrwt>
<rscale>  0 0.43521524E+02</rscale>
<asrwt>0</asrwt>
<pdfrwt beam="1">  1        2 0.21779071E-01 0.89261561E+02</pdfrwt>
<pdfrwt beam="2">  1        1 0.18989975E+00 0.21219918E+02</pdfrwt>
<totfact> 0.44349917E+02</totfact>
</mgrwt>
</event>
<event>
 5    1  0.9399923E-003  0.9320432E+02  0.7546771E-02  0.1323782E+00
         -2   -1    0    0    0  501 -0.00000000000E+00  0.00000000000E+00  0.66698669223E+03  0.66698669223E+03  0.00000000000E+00 0.  1.
          2   -1    0    0  502    0  0.00000000000E+00 -0.00000000000E+00 -0.91204429731E+03  0.91204429731E+03  0.00000000000E+00 0. -1.
         25    1    1    2    0    0  0.11744322164E+03  0.47911447305E+01 -0.59412908863E+02  0.18157852053E+03  0.12500000000E+03 0.  0.
          1    1    1    2  502    0 -0.75936391379E+02  0.53970281113E+02 -0.78665467802E+03  0.79215194832E+03  0.00000000000E+00 0. -1.
         -1    1    1    2    0  501 -0.41506830264E+02 -0.58761425844E+02  0.60100998180E+03  0.60530052069E+03  0.00000000000E+00 0.  1.
<mgrwt>
<rscale>  0 0.81886207E+02</rscale>
<asrwt>0</asrwt>
<pdfrwt beam="2">  1        2 0.14031451E+00 0.93204319E+02</pdfrwt>
<pdfrwt beam="1">  1       -2 0.10261334E+00 0.71942492E+02</pdfrwt>
<totfact> 0.26673014E+01</totfact>
</mgrwt>
</event>
<event>
 5    1  0.9399923E-003  0.1706026E+03  0.7546771E-02  0.1291278E+00
          2   -1    0    0  502    0  0.00000000000E+00  0.00000000000E+00  0.73618541385E+03  0.73618541385E+03  0.00000000000E+00 0. -1.
          1   -1    0    0  501    0 -0.00000000000E+00 -0.00000000000E+00 -0.95737585887E+03  0.95737585887E+03  0.00000000000E+00 0. -1.
         25    1    1    2    0    0  0.18453653894E+03 -0.63903344047E+02 -0.24948434862E+03  0.34059479120E+03  0.12500000000E+03 0.  0.
          2    1    1    2  501    0 -0.13901151555E+03  0.90748434868E+02 -0.65089117922E+03  0.67172822411E+03  0.00000000000E+00 0. -1.
          1    1    1    2  502    0 -0.45525023389E+02 -0.26845090822E+02  0.67918508281E+03  0.68123825741E+03  0.00000000000E+00 0. -1.
<mgrwt>
<rscale>  0 0.94954985E+02</rscale>
<asrwt>0</asrwt>
<pdfrwt beam="1">  1        2 0.11325929E+00 0.52850607E+02</pdfrwt>
<pdfrwt beam="2">  1        1 0.14728859E+00 0.17060257E+03</pdfrwt>
<totfact> 0.10112642E+02</totfact>
</mgrwt>
</event>
<event>
 5    1  0.9399923E-003  0.6037652E+02  0.7546771E-02  0.1480553E+00
         -2   -1    0    0    0  501 -0.00000000000E+00  0.00000000000E+00  0.72292532743E+02  0.72292532743E+02  0.00000000000E+00 0.  1.
          2   -1    0    0  502    0  0.00000000000E+00 -0.00000000000E+00 -0.37984954114E+03  0.37984954114E+03  0.00000000000E+00 0. -1.
         25    1    1    2    0    0  0.53641987294E+02  0.34103977748E+02 -0.61258445252E+02  0.15302987033E+03  0.12500000000E+03 0.  0.
          1    1    1    2  502    0 -0.28265835945E+02 -0.53754190194E+02 -0.25792314721E+03  0.26497701846E+03  0.00000000000E+00 0. -1.
         -1    1    1    2    0  501 -0.25376151349E+02  0.19650212446E+02  0.11624584066E+02  0.34135185090E+02  0.00000000000E+00 0.  1.
<mgrwt>
<rscale>  0 0.44020175E+02</rscale>
<asrwt>0</asrwt>
<pdfrwt beam="2">  1        2 0.58438389E-01 0.60376520E+02</pdfrwt>
<pdfrwt beam="1">  1       -2 0.11121928E-01 0.32094858E+02</pdfrwt>
<totfact> 0.41116807E+03</totfact>
</mgrwt>
</event>
<event>
 5    1  0.9399923E-003  0.9490566E+02  0.7546771E-02  0.1483382E+00
          1   -1    0    0  502    0  0.00000000000E+00  0.00000000000E+00  0.74424046772E+03  0.74424046772E+03  0.00000000000E+00 0. -1.
         -1   -1    0    0    0  501 -0.00000000000E+00 -0.00000000000E+00 -0.20663386621E+03  0.20663386621E+03  0.00000000000E+00 0.  1.
         25    1    1    2    0    0 -0.92602953229E+02  0.53100909368E+02  0.28740608573E+03  0.33109254240E+03  0.12500000000E+03 0.  0.
          2    1    1    2  502    0  0.42658095510E+01 -0.19555151600E+02  0.42265925894E+03  0.42313289905E+03  0.00000000000E+00 0. -1.
         -2    1    1    2    0  501  0.88337143678E+02 -0.33545757768E+02 -0.17245874316E+03  0.19664889247E+03  0.00000000000E+00 0.  1.
<mgrwt>
<rscale>  0 0.43583700E+02</rscale>
<asrwt>0</asrwt>
<pdfrwt beam="1">  1        1 0.11449853E+00 0.20015021E+02</pdfrwt>
<pdfrwt beam="2">  1       -1 0.31789826E-01 0.94905664E+02</pdfrwt>
<totfact> 0.26728657E+02</totfact>
</mgrwt>
</event>
<event>
 5    1  0.9399923E-003  0.1135366E+03  0.7546771E-02  0.1268772E+00
          2   -1    0    0  502    0  0.00000000000E+00  0.00000000000E+00  0.99256587976E+03  0.99256587976E+03  0.00000000000E+00 0. -1.
          1   -1    0    0  501    0 -0.00000000000E+00 -0.00000000000E+00 -0.29462688957E+03  0.29462688957E+03  0.00000000000E+00 0. -1.
         25    1    1    2    0    0 -0.40764864656E+01  0.53850992689E+02  0.18878657455E+03  0.23277009663E+03  0.12500000000E+03 0.  0.
          2    1    1    2  501    0 -0.10844160740E+03 -0.33630018074E+02 -0.25638339431E+03  0.28039794081E+03  0.00000000000E+00 0. -1.
          1    1    1    2  502    0  0.11251809386E+03 -0.20220974615E+02  0.76553580995E+03  0.77402473189E+03  0.00000000000E+00 0. -1.
<mgrwt>
<rscale>  0 0.10568711E+03</rscale>
<asrwt>0</asrwt>
<pdfrwt beam="1">  1        2 0.15270244E+00 0.98380301E+02</pdfrwt>
<pdfrwt beam="2">  1        1 0.45327214E-01 0.11353660E+03</pdfrwt>
<totfact> 0.34192732E+02</totfact>
</mgrwt>
</event>
<event>
 5    1  0.9399923E-003  0.1611384E+03  0.7546771E-02  0.1321655E+00
          2   -1    0    0  502    0  0.00000000000E+00  0.00000000000E+00  0.50373016837E+03  0.50373016837E+03  0.00000000000E+00 0. -1.
          1   -1    0    0  501    0 -0.00000000000E+00 -0.00000000000E+00 -0.11600351587E+04  0.11600351587E+04  0.00000000000E+00 0. -1.
         25    1    1    2    0    0  0.12686580649E+03 -0.56359727834E+02 -0.14372922038E+03  0.23569989514E+03  0.12500000000E+03 0.  0.
          2    1    1    2  501    0 -0.16180551403E+03  0.32326261226E+02 -0.96230118403E+03  0.97634501091E+03  0.00000000000E+00 0. -1.
          1    1    1    2  502    0  0.34939707535E+02  0.24033466608E+02  0.44972541409E+03  0.45172042101E+03  0.00000000000E+00 0. -1.
<mgrwt>
<rscale>  0 0.82664778E+02</rscale>
<asrwt>0</asrwt>
<pdfrwt beam="1">  1        2 0.77496949E-01 0.42407437E+02</pdfrwt>
<pdfrwt beam="2">  1        1 0.17846695E+00 0.16113838E+03</pdfrwt>
<totfact> 0.11024333E+02</totfact>
</mgrwt>
</event>
<event>
 5    1  0.9399923E-003  0.4051293E+02  0.7546771E-02  0.1599706E+00
          2   -1    0    0  502    0  0.00000000000E+00  0.00000000000E+00  0.67763274894E+03  0.67763274894E+03  0.00000000000E+00 0. -1.
          1   -1    0    0  501    0 -0.00000000000E+00 -0.00000000000E+00 -0.43749827838E+02  0.43749827838E+02  0.00000000000E+00 0. -1.
         25    1    1    2    0    0  0.72202570399E+01  0.21358576475E+02  0.22003540680E+03  0.25406475778E+03  0.12500000000E+03 0.  0.
          2    1    1    2  501    0  0.19103172541E+02  0.10911223527E+02 -0.21039832845E+02  0.30441099949E+02  0.00000000000E+00 0. -1.
          1    1    1    2  502    0 -0.26323429581E+02 -0.32269800002E+02  0.43488734715E+03  0.43687671905E+03  0.00000000000E+00 0. -1.
<mgrwt>
<rscale>  0 0.29854171E+02</rscale>
<asrwt>0</asrwt>
<pdfrwt beam="1">  1        2 0.10425118E+00 0.40512927E+02</pdfrwt>
<pdfrwt beam="2">  1        1 0.67307432E-02 0.21999682E+02</pdfrwt>
<totfact> 0.55141730E+03</totfact>
</mgrwt>
</event>
<event>
 5    1  0.9399923E-003  0.7865121E+02  0.7546771E-02  0.1394818E+00
          2   -1    0    0  502    0  0.00000000000E+00  0.00000000000E+00  0.14126688302E+03  0.14126688302E+03  0.00000000000E+00 0. -1.
          1   -1    0    0  501    0 -0.00000000000E+00 -0.00000000000E+00 -0.14012234395E+04  0.14012234395E+04  0.00000000000E+00 0. -1.
         25    1    1    2    0    0  0.38893624441E+02  0.64555217863E+02 -0.48593851809E+03  0.50738676918E+03  0.12500000000E+03 0.  0.
          2    1    1    2  501    0 -0.44651342338E+02  0.14293229293E+02 -0.89191870587E+03  0.89315005272E+03  0.00000000000E+00 0. -1.
          3    1    1    2  502    0  0.57577178969E+01 -0.78848447156E+02  0.11790066751E+03  0.14195350061E+03  0.00000000000E+00 0. -1.
<mgrwt>
<rscale>  0 0.60724162E+02</rscale>
<asrwt>0</asrwt>
<pdfrwt beam="1">  1        2 0.21733366E-01 0.78651207E+02</pdfrwt>
<pdfrwt beam="2">  1        1 0.21557285E+00 0.46883246E+02</pdfrwt>
<totfact> 0.32256844E+02</totfact>
</mgrwt>
</event>
<event>
 5    1  0.9399923E-003  0.9755110E+02  0.7546771E-02  0.1443641E+00
          2   -1    0    0  502    0  0.00000000000E+00  0.00000000000E+00  0.34654000473E+03  0.34654000473E+03  0.00000000000E+00 0. -1.
          3   -1    0    0  501    0 -0.00000000000E+00 -0.00000000000E+00 -0.14815465623E+03  0.14815465623E+03  0.00000000000E+00 0. -1.
         25    1    1    2    0    0 -0.27060931805E+02 -0.81276203592E+02 -0.78010847090E+02  0.17043710736E+03  0.12500000000E+03 0.  0.
          2    1    1    2  501    0 -0.25890567476E+02 -0.18014032724E+01 -0.47194661212E+01  0.26378777425E+02  0.00000000000E+00 0. -1.
          1    1    1    2  502    0  0.52951499281E+02  0.83077606864E+02  0.28111566172E+03  0.29787877618E+03  0.00000000000E+00 0. -1.
<mgrwt>
<rscale>  0 0.50316591E+02</rscale>
<asrwt>0</asrwt>
<pdfrwt beam="1">  1        2 0.53313847E-01 0.97551098E+02</pdfrwt>
<pdfrwt beam="2">  1        3 0.22793024E-01 0.25953160E+02</pdfrwt>
<totfact> 0.83108513E+02</totfact>
</mgrwt>
</event>
<event>
 5    1  0.9399923E-003  0.8740448E+02  0.7546771E-02  0.1384236E+00
         -1   -1    0    0    0  501 -0.00000000000E+00  0.00000000000E+00  0.45265123462E+02  0.45265123462E+02  0.00000000000E+00 0.  1.
          1   -1    0    0  502    0  0.00000000000E+00 -0.00000000000E+00 -0.93869269069E+03  0.93869269069E+03  0.00000000000E+00 0. -1.
         25    1    1    2    0    0 -0.56070785333E+02  0.11269299182E+02 -0.24977443645E+03  0.28510208554E+03  0.12500000000E+03 0.  0.
          2    1    1    2  502    0  0.92385282750E+02  0.16860293247E+02 -0.64606769504E+03  0.65285739372E+03  0.00000000000E+00 0. -1.
         -2    1    1    2    0  501 -0.36314497417E+02 -0.28129592429E+02  0.24145642635E+01  0.45998334899E+02  0.00000000000E+00 0.  1.
<mgrwt>
<rscale>  0 0.63363377E+02</rscale>
<asrwt>0</asrwt>
<pdfrwt beam="2">  1        1 0.14441425E+00 0.87404478E+02</pdfrwt>
<pdfrwt beam="1">  1       -1 0.69638655E-02 0.45934918E+02</pdfrwt>
<totfact> 0.17595155E+03</totfact>
</mgrwt>
</event>
<event>
 5    1  0.9399923E-003  0.4312163E+02  0.7546771E-02  0.1536860E+00
          1   -1    0    0  501    0 -0.00000000000E+00  0.00000000000E+00  0.75559607727E+02  0.75559607727E+02  0.00000000000E+00 0. -1.
          2   -1    0    0  502    0  0.00000000000E+00 -0.00000000000E+00 -0.75245760301E+03  0.75245760301E+03  0.00000000000E+00 0. -1.
         25    1    1    2    0    0 -0.61711663317E+02 -0.16477715057E+02 -0.12937049537E+03  0.19089675103E+03  0.12500000000E+03 0.  0.
          2    1    1    2  501    0  0.19570904528E+02  0.23595460882E+02  0.38681235462E+02  0.49355891797E+02  0.00000000000E+00 0. -1.
          3    1    1    2  502    0  0.42140758789E+02 -0.71177458243E+01 -0.58620873537E+03  0.58776456790E+03  0.00000000000E+00 0. -1.
<mgrwt>
<rscale>  0 0.36358213E+02</rscale>
<asrwt>0</asrwt>
<pdfrwt beam="2">  1        2 0.11576271E+00 0.43121630E+02</pdfrwt>
<pdfrwt beam="1">  1        1 0.11624555E-01 0.30655604E+02</pdfrwt>
<totfact> 0.25419035E+03</totfact>
</mgrwt>
</event>
<event>
 5    1  0.9399923E-003  0.6007203E+02  0.7546771E-02  0.1524463E+00
          2   -1    0    0  502    0  0.00000000000E+00  0.00000000000E+00  0.27718577528E+04  0.27718577528E+04  0.00000000000E+00 0. -1.
          1   -1    0    0  501    0 -0.00000000000E+00 -0.00000000000E+00 -0.29516646128E+03  0.29516646128E+03  0.00000000000E+00 0. -1.
         25    1    1    2    0    0 -0.43140236960E+02 -0.61065197459E+02  0.52750491363E+02  0.15491175786E+03  0.12500000000E+03 0.  0.
          2    1    1    2  501    0  0.23472881307E+02  0.43862814692E+01 -0.24316365114E+03  0.24433333145E+03  0.00000000000E+00 0. -1.
          1    1    1    2  502    0  0.19667355653E+02  0.56678915990E+02  0.26671044513E+04  0.26677791247E+04  0.00000000000E+00 0. -1.
<mgrwt>
<rscale>  0 0.37874414E+02</rscale>
<asrwt>0</asrwt>
<pdfrwt beam="1">  1        2 0.42643964E+00 0.60072028E+02</pdfrwt>
<pdfrwt beam="2">  1        1 0.45410227E-01 0.23879188E+02</pdfrwt>
<totfact> 0.42809519E+01</totfact>
</mgrwt>
</event>
<event>
 5    1  0.9399923E-003  0.7767056E+02  0.7546771E-02  0.1419774E+00
          1   -1    0    0  501    0 -0.00000000000E+00  0.00000000000E+00  0.18773430684E+04  0.18773430684E+04  0.00000000000E+00 0. -1.
          2   -1    0    0  502    0  0.00000000000E+00 -0.00000000000E+00 -0.21824696816E+04  0.21824696816E+04  0.00000000000E+00 0. -1.
         25    1    1    2    0    0 -0.35628938130E+02 -0.76817521594E+02 -0.10250229286E+04  0.10360826979E+04  0.12500000000E+03 0.  0.
          2    1    1    2  501    0  0.39033154180E+02 -0.92231232177E+00  0.18702950746E+04  0.18707025696E+04  0.00000000000E+00 0. -1.
          1    1    1    2  502    0 -0.34042160502E+01  0.77739833916E+02 -0.11503987592E+04  0.11530274826E+04  0.00000000000E+00 0. -1.
<mgrwt>
<rscale>  0 0.55068805E+02</rscale>
<asrwt>0</asrwt>
<pdfrwt beam="2">  1        2 0.33576457E+00 0.77670563E+02</pdfrwt>
<pdfrwt beam="1">  1        1 0.28882201E+00 0.39044049E+02</pdfrwt>
<totfact> 0.48148981E+00</totfact>
</mgrwt>
</event>
<event>
 5    1  0.9399923E-003  0.1344005E+03  0.7546771E-02  0.1397850E+00
          1   -1    0    0  501    0 -0.00000000000E+00  0.00000000000E+00  0.42562677822E+03  0.42562677822E+03  0.00000000000E+00 0. -1.
          2   -1    0    0  502    0  0.00000000000E+00 -0.00000000000E+00 -0.22984015453E+03  0.22984015453E+03  0.00000000000E+00 0. -1.
         25    1    1    2    0    0  0.97747860708E+01  0.13785907027E+03  0.85177788168E+02  0.20489247252E+03  0.12500000000E+03 0.  0.
          2    1    1    2  501    0 -0.35131491817E+02 -0.12923942352E+03  0.26337869179E+03  0.29547484766E+03  0.00000000000E+00 0. -1.
          1    1    1    2  502    0  0.25356705746E+02 -0.86196467419E+01 -0.15276985627E+03  0.15509961258E+03  0.00000000000E+00 0. -1.
<mgrwt>
<rscale>  0 0.59995634E+02</rscale>
<asrwt>0</asrwt>
<pdfrwt beam="2">  1        2 0.35360024E-01 0.26781726E+02</pdfrwt>
<pdfrwt beam="1">  1        1 0.65481043E-01 0.13440045E+03</pdfrwt>
<totfact> 0.10752900E+03</totfact>
</mgrwt>
</event>
<event>
 5    1  0.9399923E-003  0.9487146E+02  0.7546771E-02  0.1332511E+00
         -2   -1    0    0    0  501 -0.00000000000E+00  0.00000000000E+00  0.16129460209E+03  0.16129460209E+03  0.00000000000E+00 0.  1.
          2   -1    0    0  502    0  0.00000000000E+00 -0.00000000000E+00 -0.27752958686E+04  0.27752958686E+04  0.00000000000E+00 0. -1.
         25    1    1    2    0    0  0.34322162884E+02  0.11478178502E+02 -0.43004998242E+03  0.44930807563E+03  0.12500000000E+03 0.  0.
          1    1    1    2  502    0 -0.96183769382E+02 -0.32821289912E+02 -0.23273969910E+04  0.23296148411E+04  0.00000000000E+00 0. -1.
         -1    1    1    2    0  501  0.61861606498E+02  0.21343111409E+02  0.14344570683E+03  0.15766755396E+03  0.00000000000E+00 0.  1.
<mgrwt>
<rscale>  0 0.78793297E+02</rscale>
<asrwt>0</asrwt>
<pdfrwt beam="2">  1        2 0.42696857E+00 0.94871465E+02</pdfrwt>
<pdfrwt beam="1">  1       -2 0.24814556E-01 0.65439948E+02</pdfrwt>
<totfact> 0.45724375E+01</totfact>
</mgrwt>
</event>
<event>
 5    1  0.9399923E-003  0.9701750E+02  0.7546771E-02  0.1325914E+00
          1   -1    0    0  501    0 -0.00000000000E+00  0.00000000000E+00  0.10262620293E+04  0.10262620293E+04  0.00000000000E+00 0. -1.
          2   -1    0    0  502    0  0.00000000000E+00 -0.00000000000E+00 -0.51633692133E+02  0.51633692133E+02  0.00000000000E+00 0. -1.
         25    1    1    2    0    0  0.75959886253E+02 -0.27710428635E+02  0.19293930648E+03  0.24369724692E+03  0.12500000000E+03 0.  0.
          2    1    1    2  501    0 -0.94534884890E+02 -0.37516758059E+02  0.75418680019E+03  0.76101385085E+03  0.00000000000E+00 0. -1.
          1    1    1    2  502    0  0.18574998637E+02  0.65227186694E+02  0.27502230500E+02  0.73184623664E+02  0.00000000000E+00 0. -1.
<mgrwt>
<rscale>  0 0.81115800E+02</rscale>
<asrwt>0</asrwt>
<pdfrwt beam="2">  1        2 0.79436457E-02 0.67820472E+02</pdfrwt>
<pdfrwt beam="1">  1        1 0.15788645E+00 0.97017504E+02</pdfrwt>
<totfact> 0.17304135E+03</totfact>
</mgrwt>
</event>
<event>
 5    1  0.9399923E-003  0.1400988E+03  0.7546771E-02  0.1233376E+00
          1   -1    0    0  501    0 -0.00000000000E+00  0.00000000000E+00  0.24564682693E+04  0.24564682693E+04  0.00000000000E+00 0. -1.
          2   -1    0    0  502    0  0.00000000000E+00 -0.00000000000E+00 -0.34662831777E+03  0.34662831777E+03  0.00000000000E+00 0. -1.
         25    1    1    2    0    0  0.18254378762E+03  0.16504226532E+03  0.51333067499E+03  0.58283322282E+03  0.12500000000E+03 0.  0.
          2    1    1    2  501    0 -0.10322869792E+03 -0.83880219383E+02  0.18956551240E+04  0.19003158697E+04  0.00000000000E+00 0. -1.
          1    1    1    2  502    0 -0.79315089703E+02 -0.81162045933E+02 -0.29914584754E+03  0.31994749453E+03  0.00000000000E+00 0. -1.
<mgrwt>
<rscale>  0 0.12609002E+03</rscale>
<asrwt>0</asrwt>
<pdfrwt beam="2">  1        2 0.53327435E-01 0.11348199E+03</pdfrwt>
<pdfrwt beam="1">  1        1 0.37791818E+00 0.14009882E+03</pdfrwt>
<totfact> 0.23716671E+01</totfact>
</mgrwt>
</event>
<event>
 5    1  0.9399923E-003  0.4313514E+02  0.7546771E-02  0.1513148E+00
          2   -1    0    0  502    0  0.00000000000E+00  0.00000000000E+00  0.76270370808E+03  0.76270370808E+03  0.00000000000E+00 0. -1.
          1   -1    0    0  501    0 -0.00000000000E+00 -0.00000000000E+00 -0.16152860080E+04  0.16152860080E+04  0.00000000000E+00 0. -1.
         25    1    1    2    0    0  0.16623903259E+02  0.15720495187E+02  0.19696561349E+03  0.23440123939E+03  0.12500000000E+03 0.  0.
          2    1    1    2  501    0  0.27280599774E+02 -0.23294986680E+02 -0.15954590599E+04  0.15958623059E+04  0.00000000000E+00 0. -1.
          1    1    1    2  502    0 -0.43904503033E+02  0.75744914933E+01  0.54591114650E+03  0.54772617080E+03  0.00000000000E+00 0. -1.
<mgrwt>
<rscale>  0 0.39336954E+02</rscale>
<asrwt>0</asrwt>
<pdfrwt beam="1">  1        2 0.11733903E+00 0.43135135E+02</pdfrwt>
<pdfrwt beam="2">  1        1 0.24850554E+00 0.35873215E+02</pdfrwt>
<totfact> 0.40899602E+01</totfact>
</mgrwt>
</event>
<event>
 5    1  0.9399923E-003  0.1891645E+03  0.7546771E-02  0.1236908E+00
          2   -1    0    0  502    0  0.00000000000E+00  0.00000000000E+00  0.27874499469E+04  0.27874499469E+04  0.00000000000E+00 0. -1.
          1   -1    0    0  501    0 -0.00000000000E+00 -0.00000000000E+00 -0.16913312494E+04  0.16913312494E+04  0.00000000000E+00 0. -1.
         25    1    1    2    0    0 -0.14417905423E+03  0.61811890876E+01 -0.10590466554E+03  0.21832683060E+03  0.12500000000E+03 0.  0.
          2    1    1    2  501    0  0.17813003296E+03 -0.79790471948E+02 -0.15223820379E+04  0.15348432811E+04  0.00000000000E+00 0. -1.
          1    1    1    2  502    0 -0.33950978736E+02  0.73609282861E+02  0.27244054010E+04  0.27256110846E+04  0.00000000000E+00 0. -1.
<mgrwt>
<rscale>  0 0.12383051E+03</rscale>
<asrwt>0</asrwt>
<pdfrwt beam="1">  1        2 0.42883845E+00 0.81061677E+02</pdfrwt>
<pdfrwt beam="2">  1        1 0.26020481E+00 0.18916454E+03</pdfrwt>
<totfact> 0.25249641E+00</totfact>
</mgrwt>
</event>
<event>
 5    1  0.9399923E-003  0.1505916E+03  0.7546771E-02  0.1307086E+00
          2   -1    0    0  502    0  0.00000000000E+00  0.00000000000E+00  0.15663752788E+04  0.15663752788E+04  0.00000000000E+00 0. -1.
         -2   -1    0    0    0  501 -0.00000000000E+00 -0.00000000000E+00 -0.39121861265E+03  0.39121861265E+03  0.00000000000E+00 0.  1.
         25    1    1    2    0    0  0.92067363929E+02 -0.50478705852E+02  0.69904035571E+03  0.71784881289E+03  0.12500000000E+03 0.  0.
          1    1    1    2  502    0  0.51690760894E+02  0.23614709426E+01  0.84205747800E+03  0.84364584249E+03  0.00000000000E+00 0. -1.
         -1    1    1    2    0  501 -0.14375812482E+03  0.48117234910E+02 -0.36594116753E+03  0.39609923610E+03  0.00000000000E+00 0.  1.
<mgrwt>
<rscale>  0 0.88274077E+02</rscale>
<asrwt>0</asrwt>
<pdfrwt beam="1">  1        2 0.24098081E+00 0.51744674E+02</pdfrwt>
<pdfrwt beam="2">  1       -2 0.60187479E-01 0.15059159E+03</pdfrwt>
<totfact> 0.38800876E+01</totfact>
</mgrwt>
</event>
<event>
 5    1  0.9399923E-003  0.9392019E+02  0.7546771E-02  0.1403494E+00
         -2   -1    0    0    0  501 -0.00000000000E+00  0.00000000000E+00  0.85159245071E+02  0.85159245071E+02  0.00000000000E+00 0.  1.
          2   -1    0    0  502    0  0.00000000000E+00 -0.00000000000E+00 -0.24257122815E+04  0.24257122815E+04  0.00000000000E+00 0. -1.
         25    1    1    2    0    0  0.40675773606E+02  0.65726443284E+02 -0.56105212472E+02  0.15731267836E+03  0.12500000000E+03 0.  0.
          1    1    1    2  502    0 -0.75988444665E+02 -0.55911245807E+02 -0.23080423008E+04  0.23099696044E+04  0.00000000000E+00 0. -1.
         -1    1    1    2    0  501  0.35312671059E+02 -0.98151974769E+01  0.23594476820E+02  0.43589243802E+02  0.00000000000E+00 0.  1.
<mgrwt>
<rscale>  0 0.58671147E+02</rscale>
<asrwt>0</asrwt>
<pdfrwt beam="2">  1        2 0.37318654E+00 0.93920188E+02</pdfrwt>
<pdfrwt beam="1">  1       -2 0.13101421E-01 0.36651369E+02</pdfrwt>
<totfact> 0.19279780E+02</totfact>
</mgrwt>
</event>
<event>
 5    1  0.9399923E-003  0.3232988E+03  0.7546771E-02  0.1167093E+00
          1   -1    0    0  501    0 -0.00000000000E+00  0.00000000000E+00  0.14983129495E+04  0.14983129495E+04  0.00000000000E+00 0. -1.
          2   -1    0    0  502    0  0.00000000000E+00 -0.00000000000E+00 -0.17833725335E+03  0.17833725335E+03  0.00000000000E+00 0. -1.
         25    1    1    2    0    0 -0.97530988495E+01 -0.26756295805E+03  0.30290766463E+03  0.42315849601E+03  0.12500000000E+03 0.  0.
          2    1    1    2  501    0  0.78401761829E+02  0.34169766152E+03  0.10793115738E+04  0.11348205151E+04  0.00000000000E+00 0. -1.
          1    1    1    2  502    0 -0.68648662980E+02 -0.74134703468E+02 -0.62243542292E+02  0.11867119172E+03  0.00000000000E+00 0. -1.
<mgrwt>
<rscale>  0 0.18073553E+03</rscale>
<asrwt>0</asrwt>
<pdfrwt beam="2">  1        2 0.27436502E-01 0.10103758E+03</pdfrwt>
<pdfrwt beam="1">  1        1 0.23050968E+00 0.32329881E+03</pdfrwt>
<totfact> 0.18297505E+02</totfact>
</mgrwt>
</event>
<event>
 5    1  0.9399923E-003  0.2453974E+03  0.7546771E-02  0.1321294E+00
         -1   -1    0    0    0  501 -0.00000000000E+00  0.00000000000E+00  0.46501480173E+03  0.46501480173E+03  0.00000000000E+00 0.  1.
          1   -1    0    0  502    0  0.00000000000E+00 -0.00000000000E+00 -0.19987058804E+04  0.19987058804E+04  0.00000000000E+00 0. -1.
         25    1    1    2    0    0 -0.12783608293E+03  0.19096867631E+03 -0.14093361207E+03  0.29715043739E+03  0.12500000000E+03 0.  0.
          2    1    1    2  502    0  0.82167357038E+01  0.26700477946E+02 -0.17396799646E+04  0.17399042529E+04  0.00000000000E+00 0. -1.
         -2    1    1    2    0  501  0.11961934722E+03 -0.21766915426E+03  0.34692249798E+03  0.42666599179E+03  0.00000000000E+00 0.  1.
<mgrwt>
<rscale>  0 0.82797737E+02</rscale>
<asrwt>0</asrwt>
<pdfrwt beam="2">  1        1 0.30749320E+00 0.27936182E+02</pdfrwt>
<pdfrwt beam="1">  1       -1 0.71540741E-01 0.24539736E+03</pdfrwt>
<totfact> 0.94299061E+00</totfact>
</mgrwt>
</event>
<event>
 5    1  0.9399923E-003  0.8287187E+02  0.7546771E-02  0.1384064E+00
          2   -1    0    0  502    0  0.00000000000E+00  0.00000000000E+00  0.18557539777E+04  0.18557539777E+04  0.00000000000E+00 0. -1.
         -2   -1    0    0    0  501 -0.00000000000E+00 -0.00000000000E+00 -0.23157370989E+03  0.23157370989E+03  0.00000000000E+00 0.  1.
         25    1    1    2    0    0  0.75752620984E+02 -0.65062040468E+02  0.17060846097E+03  0.23388838289E+03  0.12500000000E+03 0.  0.
          1    1    1    2  502    0 -0.28861794474E+02  0.77509591233E+02  0.16495110031E+04  0.16515832674E+04  0.00000000000E+00 0. -1.
         -1    1    1    2    0  501 -0.46890826510E+02 -0.12447550765E+02 -0.19593919629E+03  0.20185603724E+03  0.00000000000E+00 0.  1.
<mgrwt>
<rscale>  0 0.63407547E+02</rscale>
<asrwt>0</asrwt>
<pdfrwt beam="1">  1        2 0.28550060E+00 0.82871875E+02</pdfrwt>
<pdfrwt beam="2">  1       -2 0.35626726E-01 0.48514855E+02</pdfrwt>
<totfact> 0.72860625E+01</totfact>
</mgrwt>
</event>
<event>
 5    1  0.9399923E-003  0.9475358E+02  0.7546771E-02  0.1469219E+00
          1   -1    0    0  501    0 -0.00000000000E+00  0.00000000000E+00  0.51701507145E+03  0.51701507145E+03  0.00000000000E+00 0. -1.
          2   -1    0    0  502    0  0.00000000000E+00 -0.00000000000E+00 -0.55722294443E+02  0.55722294443E+02  0.00000000000E+00 0. -1.
         25    1    1    2    0    0  0.77094735933E+02  0.67017818299E+02  0.21326625421E+03  0.26747426318E+03  0.12500000000E+03 0.  0.
          2    1    1    2  501    0 -0.56131674600E+02 -0.74226406642E+02  0.26268831233E+03  0.27868525934E+03  0.00000000000E+00 0. -1.
          1    1    1    2  502    0 -0.20963061333E+02  0.72085883424E+01 -0.14661789533E+02  0.26577843379E+02  0.00000000000E+00 0. -1.
<mgrwt>
<rscale>  0 0.45831030E+02</rscale>
<asrwt>0</asrwt>
<pdfrwt beam="2">  1        2 0.85726610E-02 0.22167853E+02</pdfrwt>
<pdfrwt beam="1">  1        1 0.79540777E-01 0.94753578E+02</pdfrwt>
<totfact> 0.38611978E+03</totfact>
</mgrwt>
</event>
<event>
 5    1  0.9399923E-003  0.5218478E+02  0.7546771E-02  0.1461991E+00
          2   -1    0    0  502    0  0.00000000000E+00  0.00000000000E+00  0.69891654175E+03  0.69891654175E+03  0.00000000000E+00 0. -1.
          1   -1    0    0  501    0 -0.00000000000E+00 -0.00000000000E+00 -0.47733218337E+03  0.47733218337E+03  0.00000000000E+00 0. -1.
         25    1    1    2    0    0  0.61570503696E+02  0.67697598622E+02  0.26399377657E+03  0.30609084575E+03  0.12500000000E+03 0.  0.
          2    1    1    2  501    0 -0.25532288168E+02 -0.33854914405E+02 -0.45381540489E+03  0.45579213977E+03  0.00000000000E+00 0. -1.
          1    1    1    2  502    0 -0.36038215529E+02 -0.33842684217E+02  0.41140598670E+03  0.41436573959E+03  0.00000000000E+00 0. -1.
<mgrwt>
<rscale>  0 0.47040568E+02</rscale>
<asrwt>0</asrwt>
<pdfrwt beam="1">  1        2 0.10752562E+00 0.52184782E+02</pdfrwt>
<pdfrwt beam="2">  1        1 0.73435720E-01 0.42403455E+02</pdfrwt>
<totfact> 0.30163292E+02</totfact>
</mgrwt>
</event>
<event>
 5    1  0.9399923E-003  0.5969821E+02  0.7546771E-02  0.1433246E+00
          1   -1    0    0  502    0  0.00000000000E+00  0.00000000000E+00  0.17508398119E+04  0.17508398119E+04  0.00000000000E+00 0. -1.
         -1   -1    0    0    0  501 -0.00000000000E+00 -0.00000000000E+00 -0.81810254803E+02  0.81810254803E+02  0.00000000000E+00 0.  1.
         25    1    1    2    0    0  0.25176389247E+01  0.18444833243E+02  0.15422308745E+03  0.19938984699E+03  0.12500000000E+03 0.  0.
          2    1    1    2  502    0  0.23753232995E+02 -0.56013590381E+02  0.15644817360E+04  0.15656643448E+04  0.00000000000E+00 0. -1.
         -2    1    1    2    0  501 -0.26270871920E+02  0.37568757138E+02 -0.49675266313E+02  0.67595874930E+02  0.00000000000E+00 0.  1.
<mgrwt>
<rscale>  0 0.52313846E+02</rscale>
<asrwt>0</asrwt>
<pdfrwt beam="1">  1        1 0.26935994E+00 0.59698214E+02</pdfrwt>
<pdfrwt beam="2">  1       -1 0.12586194E-01 0.45842886E+02</pdfrwt>
<totfact> 0.22292180E+02</totfact>
</mgrwt>
</event>
<event>
 5    1  0.9399923E-003  0.6937223E+02  0.7546771E-02  0.1378922E+00
          2   -1    0    0  502    0  0.00000000000E+00  0.00000000000E+00  0.15611105319E+04  0.15611105319E+04  0.00000000000E+00 0. -1.
          1   -1    0    0  501    0 -0.00000000000E+00 -0.00000000000E+00 -0.12305128306E+04  0.12305128306E+04  0.00000000000E+00 0. -1.
         25    1    1    2    0    0  0.91635538381E+02 -0.56797952696E+02  0.44256957581E+03  0.47235146740E+03  0.12500000000E+03 0.  0.
          2    1    1    2  501    0 -0.31410638287E+02  0.61798317448E+02 -0.12138048915E+04  0.12157828650E+04  0.00000000000E+00 0. -1.
          1    1    1    2  502    0 -0.60224900093E+02 -0.50003647523E+01  0.11018330170E+04  0.11034890301E+04  0.00000000000E+00 0. -1.
<mgrwt>
<rscale>  0 0.64748060E+02</rscale>
<asrwt>0</asrwt>
<pdfrwt beam="1">  1        2 0.24017085E+00 0.60432129E+02</pdfrwt>
<pdfrwt beam="2">  1        1 0.18930967E+00 0.69372226E+02</pdfrwt>
<totfact> 0.23961603E+01</totfact>
</mgrwt>
</event>
<event>
 5    1  0.9399923E-003  0.1717305E+03  0.7546771E-02  0.1261858E+00
          1   -1    0    0  501    0 -0.00000000000E+00  0.00000000000E+00  0.23952263527E+03  0.23952263527E+03  0.00000000000E+00 0. -1.
          2   -1    0    0  502    0  0.00000000000E+00 -0.00000000000E+00 -0.95441893577E+03  0.95441893577E+03  0.00000000000E+00 0. -1.
         25    1    1    2    0    0  0.96218966737E+02 -0.81217535523E+02 -0.24158933915E+03  0.29974119909E+03  0.12500000000E+03 0.  0.
          2    1    1    2  501    0  0.38910104078E+02 -0.57677018772E+02  0.19043635879E+03  0.20274772858E+03  0.00000000000E+00 0. -1.
          1    1    1    2  502    0 -0.13512907082E+03  0.13889455430E+03 -0.66374332015E+03  0.69145264338E+03  0.00000000000E+00 0. -1.
<mgrwt>
<rscale>  0 0.10930733E+03</rscale>
<asrwt>0</asrwt>
<pdfrwt beam="2">  1        2 0.14683368E+00 0.17173050E+03</pdfrwt>
<pdfrwt beam="1">  1        1 0.36849636E-01 0.69574670E+02</pdfrwt>
<totfact> 0.45044186E+02</totfact>
</mgrwt>
</event>
<event>
 5    1  0.9399923E-003  0.1048449E+03  0.7546771E-02  0.1331270E+00
          2   -1    0    0  502    0  0.00000000000E+00  0.00000000000E+00  0.15463124231E+04  0.15463124231E+04  0.00000000000E+00 0. -1.
          1   -1    0    0  501    0 -0.00000000000E+00 -0.00000000000E+00 -0.96508801697E+03  0.96508801697E+03  0.00000000000E+00 0. -1.
         25    1    1    2    0    0 -0.31753193402E+02  0.51030409654E+02  0.41151585873E+03  0.43426106202E+03  0.12500000000E+03 0.  0.
          2    1    1    2  501    0 -0.75771025487E+01  0.59381736764E+02 -0.94971333754E+03  0.95159814346E+03  0.00000000000E+00 0. -1.
          1    1    1    2  502    0  0.39330295950E+02 -0.11041214642E+03  0.11194218850E+04  0.11255412346E+04  0.00000000000E+00 0. -1.
<mgrwt>
<rscale>  0 0.79223425E+02</rscale>
<asrwt>0</asrwt>
<pdfrwt beam="1">  1        2 0.23789422E+00 0.10484489E+03</pdfrwt>
<pdfrwt beam="2">  1        1 0.14847508E+00 0.59863204E+02</pdfrwt>
<totfact> 0.35723232E+01</totfact>
</mgrwt>
</event>
<event>
 5    1  0.9399923E-003  0.1630029E+03  0.7546771E-02  0.1287940E+00
          1   -1    0    0  501    0 -0.00000000000E+00  0.00000000000E+00  0.34891003941E+03  0.34891003941E+03  0.00000000000E+00 0. -1.
          2   -1    0    0  502    0  0.00000000000E+00 -0.00000000000E+00 -0.80225128451E+03  0.80225128451E+03  0.00000000000E+00 0. -1.
         25    1    1    2    0    0 -0.34535790246E+02 -0.20394747767E+03 -0.14225948270E+03  0.28044617109E+03  0.12500000000E+03 0.  0.
          2    1    1    2  501    0 -0.10626261682E+00  0.15859158762E+03  0.25579694995E+03  0.30097073373E+03  0.00000000000E+00 0. -1.
          3    1    1    2  502    0  0.34642052863E+02  0.45355890059E+02 -0.56687871235E+03  0.56974441911E+03  0.00000000000E+00 0. -1.
<mgrwt>
<rscale>  0 0.96451656E+02</rscale>
<asrwt>0</asrwt>
<pdfrwt beam="2">  1        2 0.12342327E+00 0.57072135E+02</pdfrwt>
<pdfrwt beam="1">  1        1 0.53678468E-01 0.16300287E+03</pdfrwt>
<totfact> 0.37135710E+02</totfact>
</mgrwt>
</event>
<event>
 5    1  0.9399923E-003  0.8216909E+02  0.7546771E-02  0.1330933E+00
          1   -1    0    0  501    0 -0.00000000000E+00  0.00000000000E+00  0.19193260220E+04  0.19193260220E+04  0.00000000000E+00 0. -1.
          2   -1    0    0  502    0  0.00000000000E+00 -0.00000000000E+00 -0.16870998883E+03  0.16870998883E+03  0.00000000000E+00 0. -1.
         25    1    1    2    0    0 -0.24659721041E+02  0.21275281378E+02  0.84496440151E+02  0.15435474673E+03  0.12500000000E+03 0.  0.
          2    1    1    2  501    0  0.34350226079E+02  0.68476891077E+02  0.17837551350E+04  0.17853995083E+04  0.00000000000E+00 0. -1.
          1    1    1    2  502    0 -0.96905050378E+01 -0.89752172455E+02 -0.11763554200E+03  0.14828175576E+03  0.00000000000E+00 0. -1.
<mgrwt>
<rscale>  0 0.79340638E+02</rscale>
<asrwt>0</asrwt>
<pdfrwt beam="2">  1        2 0.25955384E-01 0.82169090E+02</pdfrwt>
<pdfrwt beam="1">  1        1 0.29528091E+00 0.76609547E+02</pdfrwt>
<totfact> 0.12010626E+02</totfact>
</mgrwt>
</event>
<event>
 5    1  0.9399923E-003  0.5932483E+02  0.7546771E-02  0.1509823E+00
          2   -1    0    0  502    0  0.00000000000E+00  0.00000000000E+00  0.18273975970E+04  0.18273975970E+04  0.00000000000E+00 0. -1.
         -2   -1    0    0    0  501 -0.00000000000E+00 -0.00000000000E+00 -0.16093233620E+03  0.16093233620E+03  0.00000000000E+00 0.  1.
         25    1    1    2    0    0 -0.82454288369E+02 -0.10427734021E+02  0.10282532347E+02  0.15045988761E+03  0.12500000000E+03 0.  0.
          3    1    1    2  502    0  0.26676207123E+02  0.16378174809E+00  0.17380621814E+04  0.17382668936E+04  0.00000000000E+00 0. -1.
         -1    1    1    2    0  501  0.55778081246E+02  0.10263952273E+02 -0.81879452994E+02  0.99603151991E+02  0.00000000000E+00 0.  1.
<mgrwt>
<rscale>  0 0.39781797E+02</rscale>
<asrwt>0</asrwt>
<pdfrwt beam="1">  1        2 0.28113808E+00 0.26676710E+02</pdfrwt>
<pdfrwt beam="2">  1       -2 0.24758822E-01 0.59324832E+02</pdfrwt>
<totfact> 0.16237284E+02</totfact>
</mgrwt>
</event>
<event>
 5    1  0.9399923E-003  0.3544689E+02  0.7546771E-02  0.1547639E+00
          1   -1    0    0  501    0 -0.00000000000E+00  0.00000000000E+00  0.68136877714E+03  0.68136877714E+03  0.00000000000E+00 0. -1.
          2   -1    0    0  502    0  0.00000000000E+00 -0.00000000000E+00 -0.22163203767E+03  0.22163203767E+03  0.00000000000E+00 0. -1.
         25    1    1    2    0    0 -0.66838192206E+01 -0.38101373579E+01  0.10894990139E+03  0.16599479389E+03  0.12500000000E+03 0.  0.
          2    1    1    2  501    0  0.26028429478E+02 -0.25085849043E+02  0.54172371364E+03  0.54292850439E+03  0.00000000000E+00 0. -1.
          1    1    1    2  502    0 -0.19344610257E+02  0.28895986401E+02 -0.19093687555E+03  0.19407751653E+03  0.00000000000E+00 0. -1.
<mgrwt>
<rscale>  0 0.35108550E+02</rscale>
<asrwt>0</asrwt>
<pdfrwt beam="2">  1        2 0.34097237E-01 0.34773438E+02</pdfrwt>
<pdfrwt beam="1">  1        1 0.10482596E+00 0.35446892E+02</pdfrwt>
<totfact> 0.63440669E+02</totfact>
</mgrwt>
</event>
<event>
 5    1  0.9399923E-003  0.7714947E+02  0.7546771E-02  0.1377221E+00
          2   -1    0    0  502    0  0.00000000000E+00  0.00000000000E+00  0.14366505067E+03  0.14366505067E+03  0.00000000000E+00 0. -1.
          1   -1    0    0  501    0 -0.00000000000E+00 -0.00000000000E+00 -0.15183254325E+04  0.15183254325E+04  0.00000000000E+00 0. -1.
         25    1    1    2    0    0 -0.79381003171E+02 -0.66644097277E+02 -0.64707709370E+03  0.66714057331E+03  0.12500000000E+03 0.  0.
          2    1    1    2  501    0  0.33162454385E+01  0.55001310999E+02 -0.84917146102E+03  0.85095729147E+03  0.00000000000E+00 0. -1.
          1    1    1    2  502    0  0.76064757732E+02  0.11642786278E+02  0.12158817288E+03  0.14389261839E+03  0.00000000000E+00 0. -1.
<mgrwt>
<rscale>  0 0.65199906E+02</rscale>
<asrwt>0</asrwt>
<pdfrwt beam="1">  1        2 0.22102316E-01 0.77149467E+02</pdfrwt>
<pdfrwt beam="2">  1        1 0.23358852E+00 0.55101195E+02</pdfrwt>
<totfact> 0.26301371E+02</totfact>
</mgrwt>
</event>
<event>
 5    1  0.9399923E-003  0.7808312E+02  0.7546771E-02  0.1415616E+00
          2   -1    0    0  502    0  0.00000000000E+00  0.00000000000E+00  0.11744125883E+03  0.11744125883E+03  0.00000000000E+00 0. -1.
          1   -1    0    0  501    0 -0.00000000000E+00 -0.00000000000E+00 -0.42141353126E+03  0.42141353126E+03  0.00000000000E+00 0. -1.
         25    1    1    2    0    0 -0.50269158902E+02  0.93792265531E+02 -0.10774878633E+03  0.19636389272E+03  0.12500000000E+03 0.  0.
          2    1    1    2  501    0  0.34400442992E+02 -0.20613781753E+02 -0.24814928718E+03  0.25136902595E+03  0.00000000000E+00 0. -1.
          1    1    1    2  502    0  0.15868715909E+02 -0.73178483778E+02  0.51925801085E+02  0.91121871419E+02  0.00000000000E+00 0. -1.
<mgrwt>
<rscale>  0 0.55959212E+02</rscale>
<asrwt>0</asrwt>
<pdfrwt beam="1">  1        2 0.18067886E-01 0.78083120E+02</pdfrwt>
<pdfrwt beam="2">  1        1 0.64832851E-01 0.40103846E+02</pdfrwt>
<totfact> 0.23530345E+03</totfact>
</mgrwt>
</event>
<event>
 5    1  0.9399923E-003  0.5486202E+02  0.7546771E-02  0.1471575E+00
         -2   -1    0    0    0  501 -0.00000000000E+00  0.00000000000E+00  0.83490143552E+02  0.83490143552E+02  0.00000000000E+00 0.  1.
          2   -1    0    0  502    0  0.00000000000E+00 -0.00000000000E+00 -0.40530056035E+03  0.40530056035E+03  0.00000000000E+00 0. -1.
         25    1    1    2    0    0 -0.42430491023E+02  0.76051714515E+02 -0.69612952117E+02  0.16749678490E+03  0.12500000000E+03 0.  0.
          1    1    1    2  502    0  0.14715185349E+02 -0.34651417285E+02 -0.26674819345E+03  0.26939164076E+03  0.00000000000E+00 0. -1.
         -1    1    1    2    0  501  0.27715305674E+02 -0.41400297230E+02  0.14550728771E+02  0.51902278246E+02  0.00000000000E+00 0.  1.
<mgrwt>
<rscale>  0 0.45446253E+02</rscale>
<asrwt>0</asrwt>
<pdfrwt beam="2">  1        2 0.62353933E-01 0.37646479E+02</pdfrwt>
<pdfrwt beam="1">  1       -2 0.12844637E-01 0.54862020E+02</pdfrwt>
<totfact> 0.32118462E+03</totfact>
</mgrwt>
</event>
<event>
 5    1  0.9399923E-003  0.5567412E+02  0.7546771E-02  0.1418613E+00
          2   -1    0    0  502    0  0.00000000000E+00  0.00000000000E+00  0.28461398869E+03  0.28461398869E+03  0.00000000000E+00 0. -1.
          1   -1    0    0  501    0 -0.00000000000E+00 -0.00000000000E+00 -0.12584467470E+04  0.12584467470E+04  0.00000000000E+00 0. -1.
         25    1    1    2    0    0  0.61226516143E+02  0.32865542650E+02 -0.48191848729E+03  0.50269201164E+03  0.12500000000E+03 0.  0.
          2    1    1    2  501    0 -0.50441341224E+02  0.21821230905E+02 -0.76230948086E+03  0.76428806064E+03  0.00000000000E+00 0. -1.
          1    1    1    2  502    0 -0.10785174919E+02 -0.54686773555E+02  0.27039520984E+03  0.27608066341E+03  0.00000000000E+00 0. -1.
<mgrwt>
<rscale>  0 0.55315417E+02</rscale>
<asrwt>0</asrwt>
<pdfrwt beam="1">  1        2 0.43786767E-01 0.55674115E+02</pdfrwt>
<pdfrwt beam="2">  1        1 0.19360719E+00 0.54959030E+02</pdfrwt>
<totfact> 0.18522793E+02</totfact>
</mgrwt>
</event>
<event>
 5    1  0.9399923E-003  0.2463291E+03  0.7546771E-02  0.1317197E+00
          2   -1    0    0  502    0  0.00000000000E+00  0.00000000000E+00  0.15312085979E+04  0.15312085979E+04  0.00000000000E+00 0. -1.
          1   -1    0    0  501    0 -0.00000000000E+00 -0.00000000000E+00 -0.42422375131E+03  0.42422375131E+03  0.00000000000E+00 0. -1.
         25    1    1    2    0    0  0.13358312032E+03 -0.17674372854E+03 -0.16476094471E+03  0.30307418978E+03  0.12500000000E+03 0.  0.
          2    1    1    2  501    0  0.46639766627E+01 -0.28490152088E+02 -0.17866878935E+03  0.18098612580E+03  0.00000000000E+00 0. -1.
          1    1    1    2  502    0 -0.13824709698E+03  0.20523388063E+03  0.14504145807E+04  0.14713720337E+04  0.00000000000E+00 0. -1.
<mgrwt>
<rscale>  0 0.84328944E+02</rscale>
<asrwt>0</asrwt>
<pdfrwt beam="1">  1        2 0.23557055E+00 0.24632913E+03</pdfrwt>
<pdfrwt beam="2">  1        1 0.65265193E-01 0.28869386E+02</pdfrwt>
<totfact> 0.10527844E+02</totfact>
</mgrwt>
</event>
<event>
 5    1  0.9399923E-003  0.3321648E+02  0.7546771E-02  0.1636379E+00
          1   -1    0    0  501    0 -0.00000000000E+00  0.00000000000E+00  0.47246924301E+02  0.47246924301E+02  0.00000000000E+00 0. -1.
          2   -1    0    0  502    0  0.00000000000E+00 -0.00000000000E+00 -0.15356819440E+04  0.15356819440E+04  0.00000000000E+00 0. -1.
         25    1    1    2    0    0  0.18486646294E+02 -0.10388634000E+02 -0.18953526568E+03  0.22803135035E+03  0.12500000000E+03 0.  0.
          2    1    1    2  501    0 -0.33655048646E+02 -0.50281924318E+01  0.17537945081E+02  0.38282169951E+02  0.00000000000E+00 0. -1.
          3    1    1    2  502    0  0.15168402352E+02  0.15416826432E+02 -0.13164376991E+04  0.13166153479E+04  0.00000000000E+00 0. -1.
<mgrwt>
<rscale>  0 0.26802932E+02</rscale>
<asrwt>0</asrwt>
<pdfrwt beam="2">  1        2 0.23625878E+00 0.21627736E+02</pdfrwt>
<pdfrwt beam="1">  1        1 0.72687570E-02 0.33216476E+02</pdfrwt>
<totfact> 0.18524921E+03</totfact>
</mgrwt>
</event>
<event>
 5    1  0.9399923E-003  0.3717250E+02  0.7546771E-02  0.1535061E+00
          2   -1    0    0  502    0  0.00000000000E+00  0.00000000000E+00  0.20318535078E+02  0.20318535078E+02  0.00000000000E+00 0. -1.
          1   -1    0    0  501    0 -0.00000000000E+00 -0.00000000000E+00 -0.56977998592E+03  0.56977998592E+03  0.00000000000E+00 0. -1.
         25    1    1    2    0    0  0.77359521164E+01 -0.12379402574E+01 -0.30096654443E+03  0.32598656156E+03  0.12500000000E+03 0.  0.
          2    1    1    2  501    0 -0.30352075061E+02 -0.28263000836E+02 -0.19239378558E+03  0.19681314592E+03  0.00000000000E+00 0. -1.
          1    1    1    2  502    0  0.22616122944E+02  0.29500941093E+02 -0.56101120826E+02  0.67298813514E+02  0.00000000000E+00 0. -1.
<mgrwt>
<rscale>  0 0.36572788E+02</rscale>
<asrwt>0</asrwt>
<pdfrwt beam="1">  1        2 0.31259287E-02 0.37172497E+02</pdfrwt>
<pdfrwt beam="2">  1        1 0.87658454E-01 0.35982754E+02</pdfrwt>
<totfact> 0.12898029E+04</totfact>
</mgrwt>
</event>
<event>
 5    1  0.9399923E-003  0.7189180E+02  0.7546771E-02  0.1481888E+00
         -3   -1    0    0    0  501 -0.00000000000E+00  0.00000000000E+00  0.95554255727E+03  0.95554255727E+03  0.00000000000E+00 0.  1.
          1   -1    0    0  502    0  0.00000000000E+00 -0.00000000000E+00 -0.21016058704E+04  0.21016058704E+04  0.00000000000E+00 0. -1.
         25    1    1    2    0    0  0.70311942433E+02 -0.68586359110E+02 -0.19828050380E+03  0.25414172442E+03  0.12500000000E+03 0.  0.
          2    1    1    2  502    0 -0.20992774606E+02  0.16500535254E+02 -0.18739127923E+04  0.18741030168E+04  0.00000000000E+00 0. -1.
         -2    1    1    2    0  501 -0.49319167827E+02  0.52085823856E+02  0.92612998299E+03  0.92890368648E+03  0.00000000000E+00 0.  1.
<mgrwt>
<rscale>  0 0.43813367E+02</rscale>
<asrwt>0</asrwt>
<pdfrwt beam="2">  1        1 0.32332398E+00 0.26701390E+02</pdfrwt>
<pdfrwt beam="1">  1       -3 0.14700655E+00 0.71891803E+02</pdfrwt>
<totfact> 0.78095807E-01</totfact>
</mgrwt>
</event>
<event>
 5    1  0.9399923E-003  0.1128879E+03  0.7546771E-02  0.1287259E+00
          2   -1    0    0  502    0  0.00000000000E+00  0.00000000000E+00  0.31960624710E+04  0.31960624710E+04  0.00000000000E+00 0. -1.
          1   -1    0    0  501    0 -0.00000000000E+00 -0.00000000000E+00 -0.68839357078E+03  0.68839357078E+03  0.00000000000E+00 0. -1.
         25    1    1    2    0    0  0.47808948449E+01 -0.73273395639E+02  0.84780572826E+02  0.16794223112E+03  0.12500000000E+03 0.  0.
          2    1    1    2  501    0  0.77214704188E+02  0.85735464257E+02 -0.64110164030E+03  0.65140156092E+03  0.00000000000E+00 0. -1.
          1    1    1    2  502    0 -0.81995599033E+02 -0.12462068618E+02  0.30639899677E+04  0.30651122497E+04  0.00000000000E+00 0. -1.
<mgrwt>
<rscale>  0 0.96760586E+02</rscale>
<asrwt>0</asrwt>
<pdfrwt beam="1">  1        2 0.49170191E+00 0.82937214E+02</pdfrwt>
<pdfrwt beam="2">  1        1 0.10590670E+00 0.11288794E+03</pdfrwt>
<totfact> 0.79324043E+00</totfact>
</mgrwt>
</event>
<event>
 5    1  0.9399923E-003  0.8280524E+02  0.7546771E-02  0.1361623E+00
          1   -1    0    0  501    0 -0.00000000000E+00  0.00000000000E+00  0.48254721759E+03  0.48254721759E+03  0.00000000000E+00 0. -1.
          2   -1    0    0  502    0  0.00000000000E+00 -0.00000000000E+00 -0.90016614113E+03  0.90016614113E+03  0.00000000000E+00 0. -1.
         25    1    1    2    0    0  0.21999644937E+02  0.57627271053E+02  0.77082918452E+01  0.13960409919E+03  0.12500000000E+03 0.  0.
          2    1    1    2  501    0  0.32398046052E+02 -0.78929304944E+02  0.40340078283E+03  0.41232470234E+03  0.00000000000E+00 0. -1.
          1    1    1    2  502    0 -0.54397690990E+02  0.21302033891E+02 -0.82872799822E+03  0.83078455719E+03  0.00000000000E+00 0. -1.
<mgrwt>
<rscale>  0 0.69551953E+02</rscale>
<asrwt>0</asrwt>
<pdfrwt beam="2">  1        2 0.13848710E+00 0.58419906E+02</pdfrwt>
<pdfrwt beam="1">  1        1 0.74238034E-01 0.82805236E+02</pdfrwt>
<totfact> 0.21629715E+02</totfact>
</mgrwt>
</event>
<event>
 5    1  0.9399923E-003  0.9614508E+02  0.7546771E-02  0.1303675E+00
          2   -1    0    0  502    0  0.00000000000E+00  0.00000000000E+00  0.11200611276E+03  0.11200611276E+03  0.00000000000E+00 0. -1.
         -2   -1    0    0    0  501 -0.00000000000E+00 -0.00000000000E+00 -0.22134303175E+04  0.22134303175E+04  0.00000000000E+00 0.  1.
         25    1    1    2    0    0 -0.13290523023E+03  0.43684945386E+01 -0.29098320992E+03  0.34348087636E+03  0.12500000000E+03 0.  0.
          1    1    1    2  502    0  0.72328812088E+02 -0.62004076051E+02  0.58072408449E+02  0.11157225071E+03  0.00000000000E+00 0. -1.
         -3    1    1    2    0  501  0.60576418138E+02  0.57635581512E+02 -0.18685134033E+04  0.18703833032E+04  0.00000000000E+00 0.  1.
<mgrwt>
<rscale>  0 0.89661087E+02</rscale>
<asrwt>0</asrwt>
<pdfrwt beam="1">  1        2 0.17231710E-01 0.96145084E+02</pdfrwt>
<pdfrwt beam="2">  1       -2 0.34052772E+00 0.83614369E+02</pdfrwt>
<totfact> 0.78095627E+00</totfact>
</mgrwt>
</event>
<event>
 5    1  0.9399923E-003  0.6569747E+02  0.7546771E-02  0.1449091E+00
          1   -1    0    0  501    0 -0.00000000000E+00  0.00000000000E+00  0.45881805335E+03  0.45881805335E+03  0.00000000000E+00 0. -1.
          2   -1    0    0  502    0  0.00000000000E+00 -0.00000000000E+00 -0.16990452767E+03  0.16990452767E+03  0.00000000000E+00 0. -1.
         25    1    1    2    0    0 -0.66595549261E+02  0.65174594424E+02  0.16775046076E+02  0.15680911042E+03  0.12500000000E+03 0.  0.
          2    1    1    2  501    0  0.35485479934E+02 -0.10520998362E+02  0.36108708688E+03  0.36297905587E+03  0.00000000000E+00 0. -1.
          1    1    1    2  502    0  0.31110069326E+02 -0.54653596062E+02 -0.88948607279E+02  0.10893441473E+03  0.00000000000E+00 0. -1.
<mgrwt>
<rscale>  0 0.49311405E+02</rscale>
<asrwt>0</asrwt>
<pdfrwt beam="2">  1        2 0.26139158E-01 0.65697466E+02</pdfrwt>
<pdfrwt beam="1">  1        1 0.70587393E-01 0.37012305E+02</pdfrwt>
<totfact> 0.14075374E+03</totfact>
</mgrwt>
</event>
<event>
 5    1  0.9399923E-003  0.4341921E+02  0.7546771E-02  0.1524132E+00
          1   -1    0    0  501    0 -0.00000000000E+00  0.00000000000E+00  0.28027399110E+02  0.28027399110E+02  0.00000000000E+00 0. -1.
          2   -1    0    0  502    0  0.00000000000E+00 -0.00000000000E+00 -0.14353471128E+04  0.14353471128E+04  0.00000000000E+00 0. -1.
         25    1    1    2    0    0  0.15274986273E+02  0.71311234529E+01 -0.56461461842E+03  0.57853162874E+03  0.12500000000E+03 0.  0.
          2    1    1    2  501    0 -0.43520084802E+02  0.10146281891E+02 -0.33257721943E+01  0.44810775245E+02  0.00000000000E+00 0. -1.
          1    1    1    2  502    0  0.28245098529E+02 -0.17277405344E+02 -0.83937932305E+03  0.84003210789E+03  0.00000000000E+00 0. -1.
<mgrwt>
<rscale>  0 0.37916022E+02</rscale>
<asrwt>0</asrwt>
<pdfrwt beam="2">  1        2 0.22082268E+00 0.33110336E+02</pdfrwt>
<pdfrwt beam="1">  1        1 0.43119067E-02 0.43419214E+02</pdfrwt>
<totfact> 0.40490604E+03</totfact>
</mgrwt>
</event>
<event>
 5    1  0.9399923E-003  0.1236347E+03  0.7546771E-02  0.1255015E+00
          1   -1    0    0  501    0 -0.00000000000E+00  0.00000000000E+00  0.49714508688E+03  0.49714508688E+03  0.00000000000E+00 0. -1.
          2   -1    0    0  502    0  0.00000000000E+00 -0.00000000000E+00 -0.56445089115E+03  0.56445089115E+03  0.00000000000E+00 0. -1.
         25    1    1    2    0    0  0.42403089012E+02  0.29101609148E+02 -0.23686687820E+03  0.27271934952E+03  0.12500000000E+03 0.  0.
          2    1    1    2  501    0 -0.12077731875E+03  0.38315730378E+02  0.46181199654E+03  0.47887950058E+03  0.00000000000E+00 0. -1.
          1    1    1    2  502    0  0.78374229742E+02 -0.67417339526E+02 -0.29225092262E+03  0.30999712793E+03  0.00000000000E+00 0. -1.
<mgrwt>
<rscale>  0 0.11305515E+03</rscale>
<asrwt>0</asrwt>
<pdfrwt beam="2">  1        2 0.86838599E-01 0.10338093E+03</pdfrwt>
<pdfrwt beam="1">  1        1 0.76483859E-01 0.12363465E+03</pdfrwt>
<totfact> 0.34995140E+02</totfact>
</mgrwt>
</event>
<event>
 5    1  0.9399923E-003  0.4681797E+02  0.7546771E-02  0.1482702E+00
          1   -1    0    0  501    0 -0.00000000000E+00  0.00000000000E+00  0.73123538615E+03  0.73123538615E+03  0.00000000000E+00 0. -1.
          2   -1    0    0  502    0  0.00000000000E+00 -0.00000000000E+00 -0.10849094173E+03  0.10849094173E+03  0.00000000000E+00 0. -1.
         25    1    1    2    0    0  0.22244016628E+02  0.83653784817E+02  0.25779239585E+03  0.29929027941E+03  0.12500000000E+03 0.  0.
          2    1    1    2  501    0 -0.79157829017E+01 -0.39991405910E+02  0.44568245634E+03  0.44754309743E+03  0.00000000000E+00 0. -1.
          1    1    1    2  502    0 -0.14328233727E+02 -0.43662378907E+02 -0.80730407775E+02  0.92892951041E+02  0.00000000000E+00 0. -1.
<mgrwt>
<rscale>  0 0.43688007E+02</rscale>
<asrwt>0</asrwt>
<pdfrwt beam="2">  1        2 0.16690915E-01 0.46817972E+02</pdfrwt>
<pdfrwt beam="1">  1        1 0.11249775E+00 0.40767293E+02</pdfrwt>
<totfact> 0.12410937E+03</totfact>
</mgrwt>
</event>
<event>
 5    1  0.9399923E-003  0.8640295E+02  0.7546771E-02  0.1354725E+00
         -2   -1    0    0    0  501 -0.00000000000E+00  0.00000000000E+00  0.15573017950E+03  0.15573017950E+03  0.00000000000E+00 0.  1.
          2   -1    0    0  502    0  0.00000000000E+00 -0.00000000000E+00 -0.64014205118E+03  0.64014205118E+03  0.00000000000E+00 0. -1.
         25    1    1    2    0    0 -0.84476038527E+01  0.39010997324E+02 -0.99946811366E+02  0.16494721891E+03  0.12500000000E+03 0.  0.
          1    1    1    2  502    0  0.56290461756E+02 -0.74112572413E+02 -0.49596362688E+03  0.50461986550E+03  0.00000000000E+00 0. -1.
         -1    1    1    2    0  501 -0.47842857903E+02  0.35101575089E+02  0.11149856657E+03  0.12630514627E+03  0.00000000000E+00 0.  1.
<mgrwt>
<rscale>  0 0.71603232E+02</rscale>
<asrwt>0</asrwt>
<pdfrwt beam="2">  1        2 0.98483390E-01 0.86402949E+02</pdfrwt>
<pdfrwt beam="1">  1       -2 0.23958490E-01 0.59338517E+02</pdfrwt>
<totfact> 0.70951608E+02</totfact>
</mgrwt>
</event>
<event>
 5    1  0.9399923E-003  0.4595366E+02  0.7546771E-02  0.1513033E+00
          1   -1    0    0  501    0 -0.00000000000E+00  0.00000000000E+00  0.38779072844E+03  0.38779072844E+03  0.00000000000E+00 0. -1.
          2   -1    0    0  502    0  0.00000000000E+00 -0.00000000000E+00 -0.13519391466E+03  0.13519391466E+03  0.00000000000E+00 0. -1.
         25    1    1    2    0    0  0.56254252167E+02 -0.21062968720E+02  0.58355549534E+02  0.15046115678E+03  0.12500000000E+03 0.  0.
          2    1    1    2  501    0 -0.29622861373E+02 -0.16066259197E+02  0.27643577981E+03  0.27848227764E+03  0.00000000000E+00 0. -1.
          1    1    1    2  502    0 -0.26631390794E+02  0.37129227917E+02 -0.82194515562E+02  0.94041208679E+02  0.00000000000E+00 0. -1.
<mgrwt>
<rscale>  0 0.39352299E+02</rscale>
<asrwt>0</asrwt>
<pdfrwt beam="2">  1        2 0.20799064E-01 0.45953664E+02</pdfrwt>
<pdfrwt beam="1">  1        1 0.59660112E-01 0.33699237E+02</pdfrwt>
<totfact> 0.21765457E+03</totfact>
</mgrwt>
</event>
<event>
 5    1  0.9399923E-003  0.6537546E+02  0.7546771E-02  0.1500379E+00
          2   -1    0    0  502    0  0.00000000000E+00  0.00000000000E+00  0.71237379939E+03  0.71237379939E+03  0.00000000000E+00 0. -1.
          1   -1    0    0  501    0 -0.00000000000E+00 -0.00000000000E+00 -0.51678322420E+03  0.51678322420E+03  0.00000000000E+00 0. -1.
         25    1    1    2    0    0 -0.27989992427E+02  0.42554224574E+02 -0.13522691705E+03  0.19106444148E+03  0.12500000000E+03 0.  0.
          2    1    1    2  501    0  0.15998795148E+02 -0.65419780751E+02 -0.35018422439E+03  0.35660159866E+03  0.00000000000E+00 0. -1.
          1    1    1    2  502    0  0.11991197279E+02  0.22865556177E+02  0.68100171662E+03  0.68149098344E+03  0.00000000000E+00 0. -1.
<mgrwt>
<rscale>  0 0.41084440E+02</rscale>
<asrwt>0</asrwt>
<pdfrwt beam="1">  1        2 0.10959597E+00 0.25819033E+02</pdfrwt>
<pdfrwt beam="2">  1        1 0.79505112E-01 0.65375462E+02</pdfrwt>
<totfact> 0.27042642E+02</totfact>
</mgrwt>
</event>
<event>
 5    1  0.9399923E-003  0.1873516E+03  0.7546771E-02  0.1260223E+00
          1   -1    0    0  501    0 -0.00000000000E+00  0.00000000000E+00  0.28369105605E+03  0.28369105605E+03  0.00000000000E+00 0. -1.
          2   -1    0    0  502    0  0.00000000000E+00 -0.00000000000E+00 -0.30918528670E+04  0.30918528670E+04  0.00000000000E+00 0. -1.
         25    1    1    2    0    0 -0.68164715325E+02  0.12953107430E+03 -0.14318845132E+02  0.19301491380E+03  0.12500000000E+03 0.  0.
          2    1    1    2  501    0  0.84272858869E+02 -0.19230186515E+03  0.13717382365E+03  0.25079589306E+03  0.00000000000E+00 0. -1.
          1    1    1    2  502    0 -0.16108143544E+02  0.62770790855E+02 -0.29310167895E+04  0.29317331162E+04  0.00000000000E+00 0. -1.
<mgrwt>
<rscale>  0 0.11018736E+03</rscale>
<asrwt>0</asrwt>
<pdfrwt beam="2">  1        2 0.47566964E+00 0.64804664E+02</pdfrwt>
<pdfrwt beam="1">  1        1 0.43644781E-01 0.18735156E+03</pdfrwt>
<totfact> 0.29774087E+01</totfact>
</mgrwt>
</event>
<event>
 5    1  0.9399923E-003  0.5460309E+02  0.7546771E-02  0.1435704E+00
          1   -1    0    0  501    0 -0.00000000000E+00  0.00000000000E+00  0.51760346790E+02  0.51760346790E+02  0.00000000000E+00 0. -1.
          2   -1    0    0  502    0  0.00000000000E+00 -0.00000000000E+00 -0.17815136950E+04  0.17815136950E+04  0.00000000000E+00 0. -1.
         25    1    1    2    0    0 -0.74959237308E+02 -0.89255884045E+01 -0.51620952421E+03  0.53646605324E+03  0.12500000000E+03 0.  0.
          2    1    1    2  501    0  0.38140765148E+02 -0.31081370973E+02  0.26288551571E+02  0.55784025773E+02  0.00000000000E+00 0. -1.
          1    1    1    2  502    0  0.36818472160E+02  0.40006959378E+02 -0.12398323756E+04  0.12410239628E+04  0.00000000000E+00 0. -1.
<mgrwt>
<rscale>  0 0.51831880E+02</rscale>
<asrwt>0</asrwt>
<pdfrwt beam="2">  1        2 0.27407900E+00 0.54603087E+02</pdfrwt>
<pdfrwt beam="1">  1        1 0.79631311E-02 0.49201317E+02</pdfrwt>
<totfact> 0.11869448E+03</totfact>
</mgrwt>
</event>
<event>
 5    1  0.9426820E-003  0.5399274E+02  0.7546771E-02  0.1467968E+00
          2   -1    0    0  502    0  0.00000000000E+00  0.00000000000E+00  0.87943218537E+03  0.87943218537E+03  0.00000000000E+00 0. -1.
          1   -1    0    0  501    0 -0.00000000000E+00 -0.00000000000E+00 -0.78167429560E+03  0.78167429560E+03  0.00000000000E+00 0. -1.
         25    1    1    2    0    0  0.78710769356E+01  0.14571008070E+02 -0.39285253430E+03  0.41259227070E+03  0.12500000000E+03 0.  0.
          2    1    1    2  501    0  0.33946121526E+02  0.19711207829E+02 -0.37709147176E+03  0.37912906636E+03  0.00000000000E+00 0. -1.
          1    1    1    2  502    0 -0.41817198461E+02 -0.34282215899E+02  0.86770189584E+03  0.86938514391E+03  0.00000000000E+00 0. -1.
<mgrwt>
<rscale>  0 0.46037236E+02</rscale>
<asrwt>0</asrwt>
<pdfrwt beam="1">  1        2 0.13529726E+00 0.53992739E+02</pdfrwt>
<pdfrwt beam="2">  1        1 0.12025758E+00 0.39253928E+02</pdfrwt>
<totfact> 0.12082564E+02</totfact>
</mgrwt>
</event>
<event>
 5    1  0.9399923E-003  0.2111809E+03  0.7546771E-02  0.1315773E+00
         -2   -1    0    0    0  501 -0.00000000000E+00  0.00000000000E+00  0.17996489452E+04  0.17996489452E+04  0.00000000000E+00 0.  1.
          2   -1    0    0  502    0  0.00000000000E+00 -0.00000000000E+00 -0.11705239488E+04  0.11705239488E+04  0.00000000000E+00 0. -1.
         25    1    1    2    0    0 -0.41616148259E+02 -0.24100323085E+03 -0.77153770020E+03  0.81896879300E+03  0.12500000000E+03 0.  0.
          1    1    1    2  502    0  0.64996827120E+00  0.34101428300E+02 -0.36821734668E+03  0.36979365093E+03  0.00000000000E+00 0. -1.
         -1    1    1    2    0  501  0.40966179988E+02  0.20690180255E+03  0.17688800433E+04  0.17814104501E+04  0.00000000000E+00 0.  1.
<mgrwt>
<rscale>  0 0.84869773E+02</rscale>
<asrwt>0</asrwt>
<pdfrwt beam="2">  1        2 0.18008061E+00 0.34107622E+02</pdfrwt>
<pdfrwt beam="1">  1       -2 0.27686907E+00 0.21118090E+03</pdfrwt>
<totfact> 0.12293879E+00</totfact>
</mgrwt>
</event>
<event>
 5    1  0.9399923E-003  0.9147488E+02  0.7546771E-02  0.1470607E+00
          2   -1    0    0  502    0  0.00000000000E+00  0.00000000000E+00  0.12721059752E+04  0.12721059752E+04  0.00000000000E+00 0. -1.
          1   -1    0    0  501    0 -0.00000000000E+00 -0.00000000000E+00 -0.24922370088E+04  0.24922370088E+04  0.00000000000E+00 0. -1.
         25    1    1    2    0    0 -0.32258809505E+02 -0.85835651089E+02 -0.43757196295E+03  0.46422258945E+03  0.12500000000E+03 0.  0.
          2    1    1    2  501    0  0.52367540194E+02  0.75227663451E+02 -0.20402080126E+04  0.20422659708E+04  0.00000000000E+00 0. -1.
          1    1    1    2  502    0 -0.20108730689E+02  0.10607987638E+02  0.12576489419E+04  0.12578544238E+04  0.00000000000E+00 0. -1.
<mgrwt>
<rscale>  0 0.45603749E+02</rscale>
<asrwt>0</asrwt>
<pdfrwt beam="1">  1        2 0.19570861E+00 0.22735225E+02</pdfrwt>
<pdfrwt beam="2">  1        1 0.38342108E+00 0.91474878E+02</pdfrwt>
<totfact> 0.55694448E+00</totfact>
</mgrwt>
</event>
<event>
 5    1  0.9399923E-003  0.5727698E+02  0.7546771E-02  0.1485495E+00
         -2   -1    0    0    0  501 -0.00000000000E+00  0.00000000000E+00  0.27876734476E+03  0.27876734476E+03  0.00000000000E+00 0.  1.
          2   -1    0    0  502    0  0.00000000000E+00 -0.00000000000E+00 -0.38508339507E+03  0.38508339507E+03  0.00000000000E+00 0. -1.
         25    1    1    2    0    0 -0.30037631192E+02  0.41885927070E+02 -0.10852730498E+03  0.17337781317E+03  0.12500000000E+03 0.  0.
          1    1    1    2  502    0 -0.24079913822E+02 -0.22087662839E+02 -0.23963686087E+03  0.24185436152E+03  0.00000000000E+00 0. -1.
         -1    1    1    2    0  501  0.54117545014E+02 -0.19798264231E+02  0.24184811553E+03  0.24861856514E+03  0.00000000000E+00 0.  1.
<mgrwt>
<rscale>  0 0.43261652E+02</rscale>
<asrwt>0</asrwt>
<pdfrwt beam="2">  1        2 0.59243599E-01 0.32675788E+02</pdfrwt>
<pdfrwt beam="1">  1       -2 0.42887284E-01 0.57276984E+02</pdfrwt>
<totfact> 0.43402119E+02</totfact>
</mgrwt>
</event>
<event>
 5    1  0.9399923E-003  0.1363956E+03  0.7546771E-02  0.1361031E+00
          1   -1    0    0  501    0 -0.00000000000E+00  0.00000000000E+00  0.71373321739E+02  0.71373321739E+02  0.00000000000E+00 0. -1.
          2   -1    0    0  502    0  0.00000000000E+00 -0.00000000000E+00 -0.32250987621E+04  0.32250987621E+04  0.00000000000E+00 0. -1.
         25    1    1    2    0    0 -0.28123227470E+02  0.10252130732E+03 -0.39497657901E+03  0.42770671300E+03  0.12500000000E+03 0.  0.
          2    1    1    2  501    0  0.53068992564E+01  0.35245815359E+02  0.47309982604E+02  0.59233986309E+02  0.00000000000E+00 0. -1.
          1    1    1    2  502    0  0.22816328214E+02 -0.13776712268E+03 -0.28060588440E+04  0.28095313846E+04  0.00000000000E+00 0. -1.
<mgrwt>
<rscale>  0 0.69724911E+02</rscale>
<asrwt>0</asrwt>
<pdfrwt beam="2">  1        2 0.49616908E+00 0.13639563E+03</pdfrwt>
<pdfrwt beam="1">  1        1 0.10980510E-01 0.35643101E+02</pdfrwt>
<totfact> 0.11549777E+02</totfact>
</mgrwt>
</event>
<event>
 5    1  0.9399923E-003  0.6511444E+02  0.7546771E-02  0.1500113E+00
         -2   -1    0    0    0  501 -0.00000000000E+00  0.00000000000E+00  0.32146471871E+03  0.32146471871E+03  0.00000000000E+00 0.  1.
          2   -1    0    0  502    0  0.00000000000E+00 -0.00000000000E+00 -0.96258576048E+03  0.96258576048E+03  0.00000000000E+00 0. -1.
         25    1    1    2    0    0  0.35282101424E+02 -0.18502404790E+02 -0.18665100072E+03  0.22814636033E+03  0.12500000000E+03 0.  0.
          1    1    1    2  502    0  0.20452339338E+02 -0.16004355242E+02 -0.75138775074E+03  0.75183641142E+03  0.00000000000E+00 0. -1.
         -1    1    1    2    0  501 -0.55734440762E+02  0.34506760031E+02  0.29691770969E+03  0.30406770743E+03  0.00000000000E+00 0.  1.
<mgrwt>
<rscale>  0 0.41121986E+02</rscale>
<asrwt>0</asrwt>
<pdfrwt beam="2">  1        2 0.14809012E+00 0.25969936E+02</pdfrwt>
<pdfrwt beam="1">  1       -2 0.49456111E-01 0.65114438E+02</pdfrwt>
<totfact> 0.12359889E+02</totfact>
</mgrwt>
</event>
<event>
 5    1  0.9399923E-003  0.7267446E+02  0.7546771E-02  0.1369167E+00
          1   -1    0    0  501    0 -0.00000000000E+00  0.00000000000E+00  0.34490239366E+03  0.34490239366E+03  0.00000000000E+00 0. -1.
          2   -1    0    0  502    0  0.00000000000E+00 -0.00000000000E+00 -0.78413312186E+03  0.78413312186E+03  0.00000000000E+00 0. -1.
         25    1    1    2    0    0  0.71471885251E+02  0.80485315642E+02  0.98641375964E+02  0.19220103399E+03  0.12500000000E+03 0.  0.
          2    1    1    2  501    0 -0.61905322787E+02 -0.86527276996E+01  0.19274764876E+03  0.20262969868E+03  0.00000000000E+00 0. -1.
          1    1    1    2  502    0 -0.95665624635E+01 -0.71832587943E+02 -0.73061975292E+03  0.73420478285E+03  0.00000000000E+00 0. -1.
<mgrwt>
<rscale>  0 0.67399336E+02</rscale>
<asrwt>0</asrwt>
<pdfrwt beam="2">  1        2 0.12063586E+00 0.72674462E+02</pdfrwt>
<pdfrwt beam="1">  1        1 0.53061907E-01 0.62507109E+02</pdfrwt>
<totfact> 0.38597062E+02</totfact>
</mgrwt>
</event>
<event>
 5    1  0.9399923E-003  0.5708044E+02  0.7546771E-02  0.1445761E+00
          2   -1    0    0  502    0  0.00000000000E+00  0.00000000000E+00  0.31573971312E+03  0.31573971312E+03  0.00000000000E+00 0. -1.
          1   -1    0    0  501    0 -0.00000000000E+00 -0.00000000000E+00 -0.41900795705E+03  0.41900795705E+03  0.00000000000E+00 0. -1.
         25    1    1    2    0    0 -0.54179911743E+02  0.15784078152E+02  0.15228012184E+03  0.20493617413E+03  0.12500000000E+03 0.  0.
          2    1    1    2  501    0  0.50144723342E+02  0.27690949705E+02 -0.38704227098E+03  0.39125822867E+03  0.00000000000E+00 0. -1.
          1    1    1    2  502    0  0.40351884012E+01 -0.43475027857E+02  0.13149390521E+03  0.13855326737E+03  0.00000000000E+00 0. -1.
<mgrwt>
<rscale>  0 0.49922340E+02</rscale>
<asrwt>0</asrwt>
<pdfrwt beam="1">  1        2 0.48575341E-01 0.43661892E+02</pdfrwt>
<pdfrwt beam="2">  1        1 0.64462763E-01 0.57080441E+02</pdfrwt>
<totfact> 0.81437761E+02</totfact>
</mgrwt>
</event>
<event>
 5    1  0.9399923E-003  0.9473665E+02  0.7546771E-02  0.1358685E+00
         -2   -1    0    0    0  501 -0.00000000000E+00  0.00000000000E+00  0.44069622103E+02  0.44069622103E+02  0.00000000000E+00 0.  1.
          2   -1    0    0  502    0  0.00000000000E+00 -0.00000000000E+00 -0.12262405138E+04  0.12262405138E+04  0.00000000000E+00 0. -1.
         25    1    1    2    0    0 -0.30390476043E+02  0.10130871500E+03 -0.51381824754E+03  0.53927843298E+03  0.12500000000E+03 0.  0.
          1    1    1    2  502    0 -0.21164591179E+02 -0.92286909720E+02 -0.67193277924E+03  0.67857090525E+03  0.00000000000E+00 0. -1.
         -3    1    1    2    0  501  0.51555067222E+02 -0.90218052842E+01  0.35801350781E+01  0.52460797688E+02  0.00000000000E+00 0.  1.
<mgrwt>
<rscale>  0 0.70415719E+02</rscale>
<asrwt>0</asrwt>
<pdfrwt beam="2">  1        2 0.18865234E+00 0.94736648E+02</pdfrwt>
<pdfrwt beam="1">  1       -2 0.67799434E-02 0.52338494E+02</pdfrwt>
<totfact> 0.22152371E+03</totfact>
</mgrwt>
</event>
<event>
 5    1  0.9399923E-003  0.7223157E+02  0.7546771E-02  0.1400505E+00
         -2   -1    0    0    0  501 -0.00000000000E+00  0.00000000000E+00  0.19256881588E+03  0.19256881588E+03  0.00000000000E+00 0.  1.
          2   -1    0    0  502    0  0.00000000000E+00 -0.00000000000E+00 -0.74442187549E+03  0.74442187549E+03  0.00000000000E+00 0. -1.
         25    1    1    2    0    0  0.96074598460E+02  0.13173068321E+01 -0.99939198002E+02  0.18666790582E+03  0.12500000000E+03 0.  0.
          1    1    1    2  502    0 -0.33349853103E+02 -0.35618655637E+02 -0.59149195493E+03  0.59350116603E+03  0.00000000000E+00 0. -1.
         -1    1    1    2    0  501 -0.62724745356E+02  0.34301348805E+02  0.13957809332E+03  0.15682161951E+03  0.00000000000E+00 0.  1.
<mgrwt>
<rscale>  0 0.59367516E+02</rscale>
<asrwt>0</asrwt>
<pdfrwt beam="2">  1        2 0.11452644E+00 0.48794481E+02</pdfrwt>
<pdfrwt beam="1">  1       -2 0.29625972E-01 0.72231570E+02</pdfrwt>
<totfact> 0.42278971E+02</totfact>
</mgrwt>
</event>
<event>
 5    1  0.9399923E-003  0.1357814E+03  0.7546771E-02  0.1260251E+00
         -1   -1    0    0    0  502 -0.00000000000E+00  0.00000000000E+00  0.16521383344E+04  0.16521383344E+04  0.00000000000E+00 0.  1.
         -2   -1    0    0    0  501  0.00000000000E+00 -0.00000000000E+00 -0.15602504758E+03  0.15602504758E+03  0.00000000000E+00 0.  1.
         25    1    1    2    0    0 -0.20351989079E+03  0.20249973459E+02  0.38950025653E+03  0.45734653952E+03  0.12500000000E+03 0.  0.
         -2    1    1    2    0  502  0.11936558474E+03 -0.50401976166E+02  0.12084124579E+04  0.12153391175E+04  0.00000000000E+00 0.  1.
         -1    1    1    2    0  501  0.84154306053E+02  0.30152002706E+02 -0.10179942764E+03  0.13547772497E+03  0.00000000000E+00 0.  1.
<mgrwt>
<rscale>  0 0.11017212E+03</rscale>
<asrwt>0</asrwt>
<pdfrwt beam="2">  1       -2 0.24003855E-01 0.89392900E+02</pdfrwt>
<pdfrwt beam="1">  1       -1 0.25417512E+00 0.13578142E+03</pdfrwt>
<totfact> 0.88783393E+00</totfact>
</mgrwt>
</event>
<event>
 5    1  0.9399923E-003  0.6438681E+02  0.7546771E-02  0.1469397E+00
          1   -1    0    0  501    0 -0.00000000000E+00  0.00000000000E+00  0.96527508385E+03  0.96527508385E+03  0.00000000000E+00 0. -1.
          2   -1    0    0  502    0  0.00000000000E+00 -0.00000000000E+00 -0.14113650049E+03  0.14113650049E+03  0.00000000000E+00 0. -1.
         25    1    1    2    0    0 -0.58917641827E+01  0.74226683073E+02  0.33120035760E+03  0.36174990013E+03  0.12500000000E+03 0.  0.
          2    1    1    2  501    0 -0.23243962496E+02 -0.59643887158E+02  0.61500196225E+03  0.61832442022E+03  0.00000000000E+00 0. -1.
          1    1    1    2  502    0  0.29135726679E+02 -0.14582795915E+02 -0.12206373650E+03  0.12633726399E+03  0.00000000000E+00 0. -1.
<mgrwt>
<rscale>  0 0.45801892E+02</rscale>
<asrwt>0</asrwt>
<pdfrwt beam="2">  1        2 0.21713308E-01 0.32581414E+02</pdfrwt>
<pdfrwt beam="1">  1        1 0.14850385E+00 0.64386812E+02</pdfrwt>
<totfact> 0.59103267E+02</totfact>
</mgrwt>
</event>
<event>
 5    1  0.9399923E-003  0.7502385E+02  0.7546771E-02  0.1346033E+00
          1   -1    0    0  501    0 -0.00000000000E+00  0.00000000000E+00  0.60768816893E+03  0.60768816893E+03  0.00000000000E+00 0. -1.
          2   -1    0    0  502    0  0.00000000000E+00 -0.00000000000E+00 -0.24972395583E+03  0.24972395583E+03  0.00000000000E+00 0. -1.
         25    1    1    2    0    0 -0.10091757802E+03 -0.13137995196E+02 -0.10197406765E+03  0.19073718815E+03  0.12500000000E+03 0.  0.
          2    1    1    2  501    0  0.43392747809E+02  0.59442370821E+02  0.54733305736E+03  0.55225881767E+03  0.00000000000E+00 0. -1.
          1    1    1    2  502    0  0.57524830213E+02 -0.46304375626E+02 -0.87394776618E+02  0.11441611894E+03  0.00000000000E+00 0. -1.
<mgrwt>
<rscale>  0 0.74306342E+02</rscale>
<asrwt>0</asrwt>
<pdfrwt beam="2">  1        2 0.38419070E-01 0.75023854E+02</pdfrwt>
<pdfrwt beam="1">  1        1 0.93490487E-01 0.73595693E+02</pdfrwt>
<totfact> 0.64656463E+02</totfact>
</mgrwt>
</event>
<event>
 5    1  0.9399923E-003  0.1900264E+03  0.7546771E-02  0.1297539E+00
          2   -1    0    0  502    0  0.00000000000E+00  0.00000000000E+00  0.28378241171E+03  0.28378241171E+03  0.00000000000E+00 0. -1.
          1   -1    0    0  501    0 -0.00000000000E+00 -0.00000000000E+00 -0.29671262277E+04  0.29671262277E+04  0.00000000000E+00 0. -1.
         25    1    1    2    0    0  0.18400223353E+03 -0.99264538151E+02 -0.13636511945E+03  0.27916073556E+03  0.12500000000E+03 0.  0.
          2    1    1    2  501    0 -0.53100892658E+01  0.44448125658E+02 -0.27180201065E+04  0.27183887015E+04  0.00000000000E+00 0. -1.
          1    1    1    2  502    0 -0.17869214426E+03  0.54816412493E+02  0.17104140998E+03  0.25335920237E+03  0.00000000000E+00 0. -1.
<mgrwt>
<rscale>  0 0.92230031E+02</rscale>
<asrwt>0</asrwt>
<pdfrwt beam="1">  1        2 0.43658833E-01 0.19002641E+03</pdfrwt>
<pdfrwt beam="2">  1        1 0.45648095E+00 0.44764192E+02</pdfrwt>
<totfact> 0.16412717E+01</totfact>
</mgrwt>
</event>
<event>
 5    1  0.9399923E-003  0.7710558E+02  0.7546771E-02  0.1379286E+00
          1   -1    0    0  501    0 -0.00000000000E+00  0.00000000000E+00  0.90057183729E+03  0.90057183729E+03  0.00000000000E+00 0. -1.
          2   -1    0    0  502    0  0.00000000000E+00 -0.00000000000E+00 -0.60292173576E+03  0.60292173576E+03  0.00000000000E+00 0. -1.
         25    1    1    2    0    0  0.45186611190E+02  0.20491564118E+02  0.13873265431E+02  0.13520059735E+03  0.12500000000E+03 0.  0.
          2    1    1    2  501    0 -0.74147414856E+02  0.25333529090E+02  0.82281418560E+03  0.82653663612E+03  0.00000000000E+00 0. -1.
          1    1    1    2  502    0  0.28960803667E+02 -0.45825093208E+02 -0.53903734950E+03  0.54175633958E+03  0.00000000000E+00 0. -1.
<mgrwt>
<rscale>  0 0.64651784E+02</rscale>
<asrwt>0</asrwt>
<pdfrwt beam="2">  1        2 0.92757190E-01 0.54209476E+02</pdfrwt>
<pdfrwt beam="1">  1        1 0.13854951E+00 0.77105582E+02</pdfrwt>
<totfact> 0.14609759E+02</totfact>
</mgrwt>
</event>
<event>
 5    1  0.9399923E-003  0.4688942E+02  0.7546771E-02  0.1475972E+00
          1   -1    0    0  501    0 -0.00000000000E+00  0.00000000000E+00  0.15677505057E+03  0.15677505057E+03  0.00000000000E+00 0. -1.
          2   -1    0    0  502    0  0.00000000000E+00 -0.00000000000E+00 -0.28486666230E+03  0.28486666230E+03  0.00000000000E+00 0. -1.
         25    1    1    2    0    0  0.41733536120E+02 -0.59552185034E+02 -0.20660596245E+02  0.14608220637E+03  0.12500000000E+03 0.  0.
          2    1    1    2  501    0 -0.13052245543E+01  0.45844598383E+02  0.86004779855E+02  0.97469241148E+02  0.00000000000E+00 0. -1.
          1    1    1    2  502    0 -0.40428311565E+02  0.13707586651E+02 -0.19343579534E+03  0.19809026535E+03  0.00000000000E+00 0. -1.
<mgrwt>
<rscale>  0 0.44739913E+02</rscale>
<asrwt>0</asrwt>
<pdfrwt beam="2">  1        2 0.43825640E-01 0.42688948E+02</pdfrwt>
<pdfrwt beam="1">  1        1 0.24119239E-01 0.46889416E+02</pdfrwt>
<totfact> 0.29418922E+03</totfact>
</mgrwt>
</event>
<event>
 5    1  0.9399923E-003  0.7405302E+02  0.7546771E-02  0.1459024E+00
          1   -1    0    0  501    0 -0.00000000000E+00  0.00000000000E+00  0.90247868384E+03  0.90247868384E+03  0.00000000000E+00 0. -1.
          2   -1    0    0  502    0  0.00000000000E+00 -0.00000000000E+00 -0.17101628328E+03  0.17101628328E+03  0.00000000000E+00 0. -1.
         25    1    1    2    0    0 -0.67040256952E+02 -0.34901265658E+02  0.17017431910E+03  0.22426946577E+03  0.12500000000E+03 0.  0.
          2    1    1    2  501    0  0.74183298435E+02  0.52166299531E+01  0.70165065176E+03  0.70558062056E+03  0.00000000000E+00 0. -1.
          1    1    1    2  502    0 -0.71430414826E+01  0.29684635705E+02 -0.14036257030E+03  0.14364488080E+03  0.00000000000E+00 0. -1.
<mgrwt>
<rscale>  0 0.47549803E+02</rscale>
<asrwt>0</asrwt>
<pdfrwt beam="2">  1        2 0.26310198E-01 0.30531961E+02</pdfrwt>
<pdfrwt beam="1">  1        1 0.13884287E+00 0.74053015E+02</pdfrwt>
<totfact> 0.53081349E+02</totfact>
</mgrwt>
</event>
<event>
 5    1  0.9399923E-003  0.1066665E+03  0.7546771E-02  0.1312941E+00
         -2   -1    0    0    0  501 -0.00000000000E+00  0.00000000000E+00  0.47881943897E+03  0.47881943897E+03  0.00000000000E+00 0.  1.
          2   -1    0    0  502    0  0.00000000000E+00 -0.00000000000E+00 -0.27457228014E+03  0.27457228014E+03  0.00000000000E+00 0. -1.
         25    1    1    2    0    0  0.54071702819E+02  0.31921516488E+02 -0.21703335804E+02  0.14155835209E+03  0.12500000000E+03 0.  0.
          1    1    1    2  502    0  0.57400968739E+02 -0.38779997166E+02 -0.17890896453E+03  0.19185196632E+03  0.00000000000E+00 0. -1.
         -1    1    1    2    0  501 -0.11147267156E+03  0.68584806775E+01  0.40485945917E+03  0.41998140071E+03  0.00000000000E+00 0.  1.
<mgrwt>
<rscale>  0 0.85959959E+02</rscale>
<asrwt>0</asrwt>
<pdfrwt beam="2">  1        2 0.42241889E-01 0.69273078E+02</pdfrwt>
<pdfrwt beam="1">  1       -2 0.73664529E-01 0.10666647E+03</pdfrwt>
<totfact> 0.20810653E+02</totfact>
</mgrwt>
</event>
<event>
 5    1  0.9399923E-003  0.2955175E+03  0.7546771E-02  0.1255213E+00
          1   -1    0    0  501    0 -0.00000000000E+00  0.00000000000E+00  0.59468704234E+03  0.59468704234E+03  0.00000000000E+00 0. -1.
          2   -1    0    0  502    0  0.00000000000E+00 -0.00000000000E+00 -0.18883352628E+04  0.18883352628E+04  0.00000000000E+00 0. -1.
         25    1    1    2    0    0 -0.13187567314E+03 -0.29373001646E+03  0.12706559032E+03  0.36802062439E+03  0.12500000000E+03 0.  0.
          2    1    1    2  501    0  0.99791594578E+02  0.26485200596E+03  0.28913766682E+03  0.40460540998E+03  0.00000000000E+00 0. -1.
          1    1    1    2  502    0  0.32084078564E+02  0.28878010497E+02 -0.17098514776E+04  0.17103962707E+04  0.00000000000E+00 0. -1.
<mgrwt>
<rscale>  0 0.11294419E+03</rscale>
<asrwt>0</asrwt>
<pdfrwt beam="2">  1        2 0.29051311E+00 0.43166278E+02</pdfrwt>
<pdfrwt beam="1">  1        1 0.91490315E-01 0.29551748E+03</pdfrwt>
<totfact> 0.50138686E+01</totfact>
</mgrwt>
</event>
<event>
 5    1  0.9399923E-003  0.2658168E+02  0.7546771E-02  0.1639368E+00
          1   -1    0    0  501    0 -0.00000000000E+00  0.00000000000E+00  0.60611203871E+03  0.60611203871E+03  0.00000000000E+00 0. -1.
          2   -1    0    0  502    0  0.00000000000E+00 -0.00000000000E+00 -0.44996450711E+03  0.44996450711E+03  0.00000000000E+00 0. -1.
         25    1    1    2    0    0  0.33577500237E+01  0.54548060077E+00  0.16145650042E+03  0.20421746635E+03  0.12500000000E+03 0.  0.
          2    1    1    2  501    0 -0.98941218169E+01  0.25220027631E+02  0.42242856102E+03  0.42329638860E+03  0.00000000000E+00 0. -1.
          1    1    1    2  502    0  0.65363717932E+01 -0.25765508231E+02 -0.42773752984E+03  0.42856269087E+03  0.00000000000E+00 0. -1.
<mgrwt>
<rscale>  0 0.26574280E+02</rscale>
<asrwt>0</asrwt>
<pdfrwt beam="2">  1        2 0.69225309E-01 0.26581677E+02</pdfrwt>
<pdfrwt beam="1">  1        1 0.93248006E-01 0.26566885E+02</pdfrwt>
<totfact> 0.36560701E+02</totfact>
</mgrwt>
</event>
<event>
 5    1  0.9399923E-003  0.6035162E+02  0.7546771E-02  0.1456267E+00
          2   -1    0    0  502    0  0.00000000000E+00  0.00000000000E+00  0.22801371755E+02  0.22801371755E+02  0.00000000000E+00 0. -1.
          1   -1    0    0  501    0 -0.00000000000E+00 -0.00000000000E+00 -0.19196136017E+04  0.19196136017E+04  0.00000000000E+00 0. -1.
         25    1    1    2    0    0 -0.79367468786E+02 -0.13450542444E+02 -0.40315143540E+03  0.42969313708E+03  0.12500000000E+03 0.  0.
          2    1    1    2  501    0  0.32646184170E+02 -0.19881826285E+02 -0.14141218760E+04  0.14146383780E+04  0.00000000000E+00 0. -1.
          1    1    1    2  502    0  0.46721284616E+02  0.33332368729E+02 -0.79538918563E+02  0.98083458378E+02  0.00000000000E+00 0. -1.
<mgrwt>
<rscale>  0 0.48029881E+02</rscale>
<asrwt>0</asrwt>
<pdfrwt beam="1">  1        2 0.35079039E-02 0.60351622E+02</pdfrwt>
<pdfrwt beam="2">  1        1 0.29532513E+00 0.38223819E+02</pdfrwt>
<totfact> 0.14219260E+03</totfact>
</mgrwt>
</event>
<event>
 5    1  0.9399923E-003  0.6257436E+02  0.7546771E-02  0.1389409E+00
          2   -1    0    0  502    0  0.00000000000E+00  0.00000000000E+00  0.11012790491E+04  0.11012790491E+04  0.00000000000E+00 0. -1.
          1   -1    0    0  501    0 -0.00000000000E+00 -0.00000000000E+00 -0.74373637374E+02  0.74373637374E+02  0.00000000000E+00 0. -1.
         25    1    1    2    0    0  0.33896379310E+02 -0.25905611751E+02  0.26200360433E+03  0.29341260016E+03  0.12500000000E+03 0.  0.
          2    1    1    2  501    0 -0.57862912442E+02 -0.30773235829E+02 -0.38816252346E+02  0.76169614190E+02  0.00000000000E+00 0. -1.
          1    1    1    2  502    0  0.23966533133E+02  0.56678847580E+02  0.80371805977E+03  0.80607047215E+03  0.00000000000E+00 0. -1.
<mgrwt>
<rscale>  0 0.62053857E+02</rscale>
<asrwt>0</asrwt>
<pdfrwt beam="1">  1        2 0.16942753E+00 0.61537683E+02</pdfrwt>
<pdfrwt beam="2">  1        1 0.11442099E-01 0.62574361E+02</pdfrwt>
<totfact> 0.16621846E+03</totfact>
</mgrwt>
</event>
<event>
 5    1  0.9399923E-003  0.6006232E+02  0.7546771E-02  0.1501176E+00
         -1   -1    0    0    0  502 -0.00000000000E+00  0.00000000000E+00  0.55917645987E+03  0.55917645987E+03  0.00000000000E+00 0.  1.
         -2   -1    0    0    0  501  0.00000000000E+00 -0.00000000000E+00 -0.68574894157E+02  0.68574894157E+02  0.00000000000E+00 0.  1.
         25    1    1    2    0    0  0.52838147590E+02  0.23445186626E+02  0.78140033363E+02  0.15834270249E+03  0.12500000000E+03 0.  0.
         -2    1    1    2    0  502  0.92329314348E+01 -0.26380797421E+02  0.40596893405E+03  0.40692993120E+03  0.00000000000E+00 0.  1.
         -1    1    1    2    0  501 -0.62071079024E+02  0.29356107950E+01  0.64925982962E+01  0.62478720334E+02  0.00000000000E+00 0.  1.
<mgrwt>
<rscale>  0 0.40972334E+02</rscale>
<asrwt>0</asrwt>
<pdfrwt beam="2">  1       -2 0.10549984E-01 0.60062320E+02</pdfrwt>
<pdfrwt beam="1">  1       -1 0.86027145E-01 0.27949839E+02</pdfrwt>
<totfact> 0.61994452E+02</totfact>
</mgrwt>
</event>
<event>
 5    1  0.9399923E-003  0.8965500E+02  0.7546771E-02  0.1321623E+00
          2   -1    0    0  502    0  0.00000000000E+00  0.00000000000E+00  0.14892606967E+04  0.14892606967E+04  0.00000000000E+00 0. -1.
          1   -1    0    0  501    0 -0.00000000000E+00 -0.00000000000E+00 -0.18481841131E+03  0.18481841131E+03  0.00000000000E+00 0. -1.
         25    1    1    2    0    0  0.90233961749E+02 -0.62305360378E+02  0.17200639540E+03  0.23923905585E+03  0.12500000000E+03 0.  0.
          2    1    1    2  501    0 -0.89110859517E+02 -0.13927484952E+02 -0.13650529073E+03  0.16361055747E+03  0.00000000000E+00 0. -1.
          1    1    1    2  502    0 -0.11231022315E+01  0.76232845330E+02  0.12689411807E+04  0.12712294947E+04  0.00000000000E+00 0. -1.
<mgrwt>
<rscale>  0 0.82676461E+02</rscale>
<asrwt>0</asrwt>
<pdfrwt beam="1">  1        2 0.22911702E+00 0.76241118E+02</pdfrwt>
<pdfrwt beam="2">  1        1 0.28433603E-01 0.89654997E+02</pdfrwt>
<totfact> 0.33159932E+02</totfact>
</mgrwt>
</event>
<event>
 5    1  0.9399923E-003  0.1325226E+03  0.7546771E-02  0.1327652E+00
          1   -1    0    0  501    0 -0.00000000000E+00  0.00000000000E+00  0.70521317206E+03  0.70521317206E+03  0.00000000000E+00 0. -1.
          2   -1    0    0  502    0  0.00000000000E+00 -0.00000000000E+00 -0.17977702596E+04  0.17977702596E+04  0.00000000000E+00 0. -1.
         25    1    1    2    0    0 -0.11349143747E+03  0.12502620076E+03 -0.72096241296E+03  0.75094850566E+03  0.12500000000E+03 0.  0.
          2    1    1    2  501    0  0.43239267139E+02 -0.22823576505E+02  0.68572538509E+03  0.68746625635E+03  0.00000000000E+00 0. -1.
          1    1    1    2  502    0  0.70252170331E+02 -0.10220262426E+03 -0.10573200597E+04  0.10645686697E+04  0.00000000000E+00 0. -1.
<mgrwt>
<rscale>  0 0.80495101E+02</rscale>
<asrwt>0</asrwt>
<pdfrwt beam="2">  1        2 0.27658004E+00 0.13252261E+03</pdfrwt>
<pdfrwt beam="1">  1        1 0.10849434E+00 0.48893250E+02</pdfrwt>
<totfact> 0.41781390E+01</totfact>
</mgrwt>
</event>
<event>
 5    1  0.9399923E-003  0.8937092E+02  0.7546771E-02  0.1366585E+00
         -2   -1    0    0    0  501 -0.00000000000E+00  0.00000000000E+00  0.87890762659E+02  0.87890762659E+02  0.00000000000E+00 0.  1.
          2   -1    0    0  502    0  0.00000000000E+00 -0.00000000000E+00 -0.70662553355E+03  0.70662553355E+03  0.00000000000E+00 0. -1.
         25    1    1    2    0    0  0.69026536176E+02  0.81395183216E+01 -0.40933575666E+03  0.43360313206E+03  0.12500000000E+03 0.  0.
          1    1    1    2  502    0 -0.10671000205E+03  0.27592762379E+02 -0.26368133158E+03  0.28579053465E+03  0.00000000000E+00 0. -1.
         -1    1    1    2    0  501  0.37683465875E+02 -0.35732280701E+02  0.54282317351E+02  0.75122629490E+02  0.00000000000E+00 0.  1.
<mgrwt>
<rscale>  0 0.68125845E+02</rscale>
<asrwt>0</asrwt>
<pdfrwt beam="2">  1        2 0.10871162E+00 0.89370925E+02</pdfrwt>
<pdfrwt beam="1">  1       -2 0.13521656E-01 0.51931103E+02</pdfrwt>
<totfact> 0.15995259E+03</totfact>
</mgrwt>
</event>
<event>
 5    1  0.9399923E-003  0.1204178E+03  0.7546771E-02  0.1381995E+00
         -2   -1    0    0    0  501 -0.00000000000E+00  0.00000000000E+00  0.46504060039E+02  0.46504060039E+02  0.00000000000E+00 0.  1.
          2   -1    0    0  502    0  0.00000000000E+00 -0.00000000000E+00 -0.58573204589E+03  0.58573204589E+03  0.00000000000E+00 0. -1.
         25    1    1    2    0    0 -0.23418579362E+02  0.12274679928E+03 -0.27492384555E+03  0.32683838123E+03  0.12500000000E+03 0.  0.
          1    1    1    2  502    0  0.33699202184E+02 -0.41474979574E+01 -0.60064431172E+02  0.68996911954E+02  0.00000000000E+00 0. -1.
         -1    1    1    2    0  501 -0.10280622822E+02 -0.11859930133E+03 -0.20423970913E+03  0.23640081275E+03  0.00000000000E+00 0.  1.
<mgrwt>
<rscale>  0 0.63942175E+02</rscale>
<asrwt>0</asrwt>
<pdfrwt beam="2">  1        2 0.90112617E-01 0.33953468E+02</pdfrwt>
<pdfrwt beam="1">  1       -2 0.71544712E-02 0.12041780E+03</pdfrwt>
<totfact> 0.57479508E+03</totfact>
</mgrwt>
</event>
<event>
 5    1  0.9399923E-003  0.1033661E+03  0.7546771E-02  0.1422495E+00
          1   -1    0    0  502    0  0.00000000000E+00  0.00000000000E+00  0.20988893004E+04  0.20988893004E+04  0.00000000000E+00 0. -1.
         -1   -1    0    0    0  501 -0.00000000000E+00 -0.00000000000E+00 -0.16755438163E+02  0.16755438163E+02  0.00000000000E+00 0.  1.
         25    1    1    2    0    0 -0.11254229720E+03  0.52721754855E+02  0.83258438721E+03  0.85103884395E+03  0.12500000000E+03 0.  0.
          2    1    1    2  502    0  0.26648472450E+02 -0.10740408217E+02  0.94425470759E+03  0.94469172234E+03  0.00000000000E+00 0. -1.
         -2    1    1    2    0  501  0.85893824747E+02 -0.41981346637E+02  0.30529476749E+03  0.31991417232E+03  0.00000000000E+00 0.  1.
<mgrwt>
<rscale>  0 0.54496429E+02</rscale>
<asrwt>0</asrwt>
<pdfrwt beam="1">  1        1 0.32290584E+00 0.28731471E+02</pdfrwt>
<pdfrwt beam="2">  1       -1 0.25777614E-02 0.10336612E+03</pdfrwt>
<totfact> 0.16624621E+03</totfact>
</mgrwt>
</event>
<event>
 5    1  0.9399923E-003  0.1277796E+03  0.7546771E-02  0.1294689E+00
          2   -1    0    0  502    0  0.00000000000E+00  0.00000000000E+00  0.10617984901E+04  0.10617984901E+04  0.00000000000E+00 0. -1.
          1   -1    0    0  501    0 -0.00000000000E+00 -0.00000000000E+00 -0.23116546473E+03  0.23116546473E+03  0.00000000000E+00 0. -1.
         25    1    1    2    0    0  0.15607151037E+03  0.96863029271E+02  0.40257305239E+03  0.45981607768E+03  0.12500000000E+03 0.  0.
          2    1    1    2  501    0 -0.63748822497E+02 -0.24665632213E+02 -0.19111880921E+03  0.20297464131E+03  0.00000000000E+00 0. -1.
          1    1    1    2  502    0 -0.92322687870E+02 -0.72197397059E+02  0.61917878220E+03  0.63017323583E+03  0.00000000000E+00 0. -1.
<mgrwt>
<rscale>  0 0.93457361E+02</rscale>
<asrwt>0</asrwt>
<pdfrwt beam="1">  1        2 0.16335361E+00 0.12777956E+03</pdfrwt>
<pdfrwt beam="2">  1        1 0.35563918E-01 0.68354267E+02</pdfrwt>
<totfact> 0.41155435E+02</totfact>
</mgrwt>
</event>
<event>
 5    1  0.9399923E-003  0.1196367E+03  0.7546771E-02  0.1324944E+00
          1   -1    0    0  501    0 -0.00000000000E+00  0.00000000000E+00  0.90365887753E+03  0.90365887753E+03  0.00000000000E+00 0. -1.
          2   -1    0    0  502    0  0.00000000000E+00 -0.00000000000E+00 -0.52961977716E+02  0.52961977716E+02  0.00000000000E+00 0. -1.
         25    1    1    2    0    0 -0.41965724324E+02  0.64419970158E+02  0.10604426029E+03  0.18105645450E+03  0.12500000000E+03 0.  0.
          2    1    1    2  501    0  0.41016863274E+02 -0.11988474904E+03  0.67364164449E+03  0.68545444876E+03  0.00000000000E+00 0. -1.
          1    1    1    2  502    0  0.94886104911E+00  0.55464778883E+02  0.71010995034E+02  0.90109952000E+02  0.00000000000E+00 0. -1.
<mgrwt>
<rscale>  0 0.81465308E+02</rscale>
<asrwt>0</asrwt>
<pdfrwt beam="2">  1        2 0.81479972E-02 0.55472895E+02</pdfrwt>
<pdfrwt beam="1">  1        1 0.13902443E+00 0.11963674E+03</pdfrwt>
<totfact> 0.20068271E+03</totfact>
</mgrwt>
</event>
<event>
 5    1  0.9399923E-003  0.7961844E+02  0.7546771E-02  0.1358810E+00
          2   -1    0    0  502    0  0.00000000000E+00  0.00000000000E+00  0.13341344691E+04  0.13341344691E+04  0.00000000000E+00 0. -1.
          1   -1    0    0  501    0 -0.00000000000E+00 -0.00000000000E+00 -0.38793240472E+03  0.38793240472E+03  0.00000000000E+00 0. -1.
         25    1    1    2    0    0 -0.54696051977E+02 -0.70781423923E+01  0.46141256026E+03  0.48121544963E+03  0.12500000000E+03 0.  0.
          2    1    1    2  501    0  0.58085372508E+02 -0.55040591011E+02 -0.37265667238E+03  0.38115137758E+03  0.00000000000E+00 0. -1.
          1    1    1    2  502    0 -0.33893205307E+01  0.62118733403E+02  0.85744617653E+03  0.85970004663E+03  0.00000000000E+00 0. -1.
<mgrwt>
<rscale>  0 0.70378642E+02</rscale>
<asrwt>0</asrwt>
<pdfrwt beam="1">  1        2 0.20525145E+00 0.62211129E+02</pdfrwt>
<pdfrwt beam="2">  1        1 0.59681909E-01 0.79618443E+02</pdfrwt>
<totfact> 0.16333295E+02</totfact>
</mgrwt>
</event>
<event>
 5    1  0.9399923E-003  0.7789731E+02  0.7546771E-02  0.1373184E+00
          1   -1    0    0  502    0  0.00000000000E+00  0.00000000000E+00  0.74612404317E+03  0.74612404317E+03  0.00000000000E+00 0. -1.
         -1   -1    0    0    0  501 -0.00000000000E+00 -0.00000000000E+00 -0.16475927441E+03  0.16475927441E+03  0.00000000000E+00 0.  1.
         25    1    1    2    0    0 -0.72259961971E+02  0.56807647688E+02  0.23950923766E+03  0.28537394041E+03  0.12500000000E+03 0.  0.
          2    1    1    2  502    0  0.19170220169E+02 -0.75881492995E+02  0.47473916911E+03  0.48114735477E+03  0.00000000000E+00 0. -1.
         -2    1    1    2    0  501  0.53089741802E+02  0.19073845307E+02 -0.13288363801E+03  0.14436202239E+03  0.00000000000E+00 0.  1.
<mgrwt>
<rscale>  0 0.66289939E+02</rscale>
<asrwt>0</asrwt>
<pdfrwt beam="1">  1        1 0.11478831E+00 0.77897314E+02</pdfrwt>
<pdfrwt beam="2">  1       -1 0.25347581E-01 0.56412164E+02</pdfrwt>
<totfact> 0.35776321E+02</totfact>
</mgrwt>
</event>
<event>
 5    1  0.9399923E-003  0.2348165E+03  0.7546771E-02  0.1258786E+00
         -2   -1    0    0    0  501 -0.00000000000E+00  0.00000000000E+00  0.45509929483E+03  0.45509929483E+03  0.00000000000E+00 0.  1.
          2   -1    0    0  502    0  0.00000000000E+00 -0.00000000000E+00 -0.11398534088E+04  0.11398534088E+04  0.00000000000E+00 0. -1.
         25    1    1    2    0    0  0.18336989823E+03  0.13262625525E+03  0.13312958975E+03  0.29079671736E+03  0.12500000000E+03 0.  0.
          1    1    1    2  502    0 -0.20207049880E+02  0.48392175894E+02 -0.99909256083E+03  0.10004679269E+04  0.00000000000E+00 0. -1.
         -1    1    1    2    0  501 -0.16316284835E+03 -0.18101843114E+03  0.18120885716E+03  0.30368805938E+03  0.00000000000E+00 0.  1.
<mgrwt>
<rscale>  0 0.11096921E+03</rscale>
<asrwt>0</asrwt>
<pdfrwt beam="2">  1        2 0.17536206E+00 0.52441659E+02</pdfrwt>
<pdfrwt beam="1">  1       -2 0.70015277E-01 0.23481648E+03</pdfrwt>
<totfact> 0.46297536E+01</totfact>
</mgrwt>
</event>
<event>
 5    1  0.9399923E-003  0.8164077E+02  0.7546771E-02  0.1374605E+00
          2   -1    0    0  502    0  0.00000000000E+00  0.00000000000E+00  0.50898526367E+03  0.50898526367E+03  0.00000000000E+00 0. -1.
          1   -1    0    0  501    0 -0.00000000000E+00 -0.00000000000E+00 -0.15281286597E+04  0.15281286597E+04  0.00000000000E+00 0. -1.
         25    1    1    2    0    0 -0.52900833929E+02  0.92671265890E+02 -0.81467642571E+03  0.83108912902E+03  0.12500000000E+03 0.  0.
          2    1    1    2  501    0  0.18905170369E+01 -0.77565839406E+02 -0.70168858953E+03  0.70596523298E+03  0.00000000000E+00 0. -1.
          1    1    1    2  502    0  0.51010316892E+02 -0.15105426484E+02  0.49722161920E+03  0.50005956139E+03  0.00000000000E+00 0. -1.
<mgrwt>
<rscale>  0 0.65903555E+02</rscale>
<asrwt>0</asrwt>
<pdfrwt beam="1">  1        2 0.78305424E-01 0.53199872E+02</pdfrwt>
<pdfrwt beam="2">  1        1 0.23509672E+00 0.81640770E+02</pdfrwt>
<totfact> 0.65825909E+01</totfact>
</mgrwt>
</event>
<event>
 5    1  0.9399923E-003  0.3941198E+02  0.7546771E-02  0.1513281E+00
          2   -1    0    0  502    0  0.00000000000E+00  0.00000000000E+00  0.16440322318E+04  0.16440322318E+04  0.00000000000E+00 0. -1.
          1   -1    0    0  501    0 -0.00000000000E+00 -0.00000000000E+00 -0.19345245012E+02  0.19345245012E+02  0.00000000000E+00 0. -1.
         25    1    1    2    0    0  0.10229686671E+02  0.42139028161E+02  0.10364850736E+04  0.10448955221E+04  0.12500000000E+03 0.  0.
          2    1    1    2  501    0  0.26860949419E+02 -0.29370376361E+02  0.12893041561E+02  0.41837305505E+02  0.00000000000E+00 0. -1.
          1    1    1    2  502    0 -0.37090636089E+02 -0.12768651800E+02  0.57530887157E+03  0.57664464921E+03  0.00000000000E+00 0. -1.
<mgrwt>
<rscale>  0 0.39319356E+02</rscale>
<asrwt>0</asrwt>
<pdfrwt beam="1">  1        2 0.25292793E+00 0.39226952E+02</pdfrwt>
<pdfrwt beam="2">  1        1 0.29761928E-02 0.39411978E+02</pdfrwt>
<totfact> 0.51013304E+03</totfact>
</mgrwt>
</event>
<event>
 5    1  0.9399923E-003  0.8151044E+02  0.7546771E-02  0.1384992E+00
          2   -1    0    0  502    0  0.00000000000E+00  0.00000000000E+00  0.61554957650E+03  0.61554957650E+03  0.00000000000E+00 0. -1.
          1   -1    0    0  501    0 -0.00000000000E+00 -0.00000000000E+00 -0.55855385574E+03  0.55855385574E+03  0.00000000000E+00 0. -1.
         25    1    1    2    0    0  0.11292162343E+02  0.11789901078E+03  0.27338888710E+02  0.17435625744E+03  0.12500000000E+03 0.  0.
          2    1    1    2  501    0 -0.32328903389E+02 -0.73693834111E+02 -0.48052757779E+03  0.48721934711E+03  0.00000000000E+00 0. -1.
          1    1    1    2  502    0  0.21036741046E+02 -0.44205176671E+02  0.51018440983E+03  0.51252782769E+03  0.00000000000E+00 0. -1.
<mgrwt>
<rscale>  0 0.63169498E+02</rscale>
<asrwt>0</asrwt>
<pdfrwt beam="1">  1        2 0.94699935E-01 0.48955512E+02</pdfrwt>
<pdfrwt beam="2">  1        1 0.85931362E-01 0.81510445E+02</pdfrwt>
<totfact> 0.28062085E+02</totfact>
</mgrwt>
</event>
<event>
 5    1  0.9399923E-003  0.1290685E+03  0.7546771E-02  0.1268042E+00
          1   -1    0    0  501    0 -0.00000000000E+00  0.00000000000E+00  0.12969248676E+04  0.12969248676E+04  0.00000000000E+00 0. -1.
          2   -1    0    0  502    0  0.00000000000E+00 -0.00000000000E+00 -0.15206951048E+04  0.15206951048E+04  0.00000000000E+00 0. -1.
         25    1    1    2    0    0  0.60048890102E+02 -0.44516554856E+02  0.12067476048E+03  0.18914277855E+03  0.12500000000E+03 0.  0.
          2    1    1    2  501    0  0.70139287676E+02  0.51736195845E+02  0.11374865046E+04  0.11408206265E+04  0.00000000000E+00 0. -1.
          1    1    1    2  502    0 -0.13018817778E+03 -0.72196409889E+01 -0.14819315023E+04  0.14876565674E+04  0.00000000000E+00 0. -1.
<mgrwt>
<rscale>  0 0.10606170E+03</rscale>
<asrwt>0</asrwt>
<pdfrwt beam="2">  1        2 0.23395309E+00 0.12906852E+03</pdfrwt>
<pdfrwt beam="1">  1        1 0.19952690E+00 0.87155916E+02</pdfrwt>
<totfact> 0.20903156E+01</totfact>
</mgrwt>
</event>
<event>
 5    1  0.9399923E-003  0.6436687E+02  0.7546771E-02  0.1437024E+00
          1   -1    0    0  501    0 -0.00000000000E+00  0.00000000000E+00  0.19152399433E+04  0.19152399433E+04  0.00000000000E+00 0. -1.
          2   -1    0    0  502    0  0.00000000000E+00 -0.00000000000E+00 -0.18407908973E+03  0.18407908973E+03  0.00000000000E+00 0. -1.
         25    1    1    2    0    0 -0.80164401287E+02 -0.51241220218E+02  0.54961438473E+03  0.57162309766E+03  0.12500000000E+03 0.  0.
          2    1    1    2  501    0  0.17574827266E+02  0.37402957180E+02  0.13483585171E+04  0.13489916777E+04  0.00000000000E+00 0. -1.
          1    1    1    2  502    0  0.62589574021E+02  0.13838263038E+02 -0.16681204823E+03  0.17870425774E+03  0.00000000000E+00 0. -1.
<mgrwt>
<rscale>  0 0.51575564E+02</rscale>
<asrwt>0</asrwt>
<pdfrwt beam="2">  1        2 0.28319861E-01 0.64366868E+02</pdfrwt>
<pdfrwt beam="1">  1        1 0.29465229E+00 0.41326212E+02</pdfrwt>
<totfact> 0.11824017E+02</totfact>
</mgrwt>
</event>
<event>
 5    1  0.9399923E-003  0.1888969E+03  0.7546771E-02  0.1278319E+00
          2   -1    0    0  502    0  0.00000000000E+00  0.00000000000E+00  0.23109224500E+04  0.23109224500E+04  0.00000000000E+00 0. -1.
          1   -1    0    0  501    0 -0.00000000000E+00 -0.00000000000E+00 -0.30923790006E+04  0.30923790006E+04  0.00000000000E+00 0. -1.
         25    1    1    2    0    0  0.11681237294E+03 -0.14514192246E+03 -0.26182760068E+03  0.34480429319E+03  0.12500000000E+03 0.  0.
          2    1    1    2  501    0 -0.45018758504E+02 -0.29722552519E+02 -0.27848651675E+04  0.27853876068E+04  0.00000000000E+00 0. -1.
          1    1    1    2  502    0 -0.71793614438E+02  0.17486447498E+03  0.22652362176E+04  0.22731095507E+04  0.00000000000E+00 0. -1.
<mgrwt>
<rscale>  0 0.10094622E+03</rscale>
<asrwt>0</asrwt>
<pdfrwt beam="1">  1        2 0.35552653E+00 0.18889686E+03</pdfrwt>
<pdfrwt beam="2">  1        1 0.47575061E+00 0.53945516E+02</pdfrwt>
<totfact> 0.60213232E-01</totfact>
</mgrwt>
</event>
<event>
 5    1  0.9399923E-003  0.5795768E+02  0.7546771E-02  0.1407226E+00
          1   -1    0    0  501    0 -0.00000000000E+00  0.00000000000E+00  0.10155296292E+03  0.10155296292E+03  0.00000000000E+00 0. -1.
          2   -1    0    0  502    0  0.00000000000E+00 -0.00000000000E+00 -0.42519533854E+03  0.42519533854E+03  0.00000000000E+00 0. -1.
         25    1    1    2    0    0 -0.77511822762E+02  0.27939750432E+02 -0.77114596792E+02  0.16840538400E+03  0.12500000000E+03 0.  0.
          2    1    1    2  501    0  0.52397144716E+02  0.24108817840E+02  0.37302489748E+02  0.68688948263E+02  0.00000000000E+00 0. -1.
          1    1    1    2  502    0  0.25114678046E+02 -0.52048568272E+02 -0.28383026858E+03  0.28965396920E+03  0.00000000000E+00 0. -1.
<mgrwt>
<rscale>  0 0.57817428E+02</rscale>
<asrwt>0</asrwt>
<pdfrwt beam="2">  1        2 0.65414667E-01 0.57957679E+02</pdfrwt>
<pdfrwt beam="1">  1        1 0.15623533E-01 0.57677516E+02</pdfrwt>
<totfact> 0.33732406E+03</totfact>
</mgrwt>
</event>
<event>
 5    1  0.9399923E-003  0.1098006E+03  0.7546771E-02  0.1357552E+00
         -2   -1    0    0    0  501 -0.00000000000E+00  0.00000000000E+00  0.17392245717E+02  0.17392245717E+02  0.00000000000E+00 0.  1.
          2   -1    0    0  502    0  0.00000000000E+00 -0.00000000000E+00 -0.30391083985E+04  0.30391083985E+04  0.00000000000E+00 0. -1.
         25    1    1    2    0    0  0.17922188430E+01  0.74618063525E+02 -0.89268187739E+03  0.90447609237E+03  0.12500000000E+03 0.  0.
          1    1    1    2  502    0  0.12414673847E+01 -0.12010808158E+03 -0.20855989918E+04  0.20890549651E+04  0.00000000000E+00 0. -1.
         -1    1    1    2    0  501 -0.30336862277E+01  0.45490018051E+02 -0.43435283517E+02  0.62969586695E+02  0.00000000000E+00 0.  1.
<mgrwt>
<rscale>  0 0.70752570E+02</rscale>
<asrwt>0</asrwt>
<pdfrwt beam="2">  1        2 0.46755512E+00 0.10980060E+03</pdfrwt>
<pdfrwt beam="1">  1       -2 0.26757302E-02 0.45591063E+02</pdfrwt>
<totfact> 0.92263751E+02</totfact>
</mgrwt>
</event>
<event>
 5    1  0.9399923E-003  0.2275071E+03  0.7546771E-02  0.1171962E+00
          2   -1    0    0  502    0  0.00000000000E+00  0.00000000000E+00  0.40911276894E+03  0.40911276894E+03  0.00000000000E+00 0. -1.
          1   -1    0    0  501    0 -0.00000000000E+00 -0.00000000000E+00 -0.10210226721E+04  0.10210226721E+04  0.00000000000E+00 0. -1.
         25    1    1    2    0    0  0.32502692441E+03 -0.10878286802E+02 -0.36078059985E+03  0.50154608955E+03  0.12500000000E+03 0.  0.
          2    1    1    2  501    0 -0.11851535986E+03 -0.66294691566E+02 -0.54474758065E+03  0.56141856335E+03  0.00000000000E+00 0. -1.
          1    1    1    2  502    0 -0.20651156455E+03  0.77172978368E+02  0.29361827733E+03  0.36717078814E+03  0.00000000000E+00 0. -1.
<mgrwt>
<rscale>  0 0.17576922E+03</rscale>
<asrwt>0</asrwt>
<pdfrwt beam="1">  1        2 0.62940426E-01 0.22750706E+03</pdfrwt>
<pdfrwt beam="2">  1        1 0.15708041E+00 0.13579719E+03</pdfrwt>
<totfact> 0.17196649E+02</totfact>
</mgrwt>
</event>
<event>
 5    1  0.9399923E-003  0.1339335E+03  0.7546771E-02  0.1308505E+00
          1   -1    0    0  502    0  0.00000000000E+00  0.00000000000E+00  0.30940983007E+03  0.30940983007E+03  0.00000000000E+00 0. -1.
         -1   -1    0    0    0  501 -0.00000000000E+00 -0.00000000000E+00 -0.60773757605E+03  0.60773757605E+03  0.00000000000E+00 0.  1.
         25    1    1    2    0    0  0.48144360468E+02 -0.14099843414E+03 -0.17511706257E+03  0.26170484038E+03  0.12500000000E+03 0.  0.
          2    1    1    2  502    0  0.87708231490E+01  0.13329842013E+03  0.24699628003E+03  0.28080697729E+03  0.00000000000E+00 0. -1.
         -2    1    1    2    0  501 -0.56915183617E+02  0.77000140163E+01 -0.37020696344E+03  0.37463558844E+03  0.00000000000E+00 0.  1.
<mgrwt>
<rscale>  0 0.87705713E+02</rscale>
<asrwt>0</asrwt>
<pdfrwt beam="1">  1        1 0.47601513E-01 0.13393346E+03</pdfrwt>
<pdfrwt beam="2">  1       -1 0.93498087E-01 0.57433686E+02</pdfrwt>
<totfact> 0.10590062E+02</totfact>
</mgrwt>
</event>
<event>
 5    1  0.9399923E-003  0.7349058E+02  0.7546771E-02  0.1352015E+00
          1   -1    0    0  502    0  0.00000000000E+00  0.00000000000E+00  0.25345550688E+04  0.25345550688E+04  0.00000000000E+00 0. -1.
         -1   -1    0    0    0  501 -0.00000000000E+00 -0.00000000000E+00 -0.29925019297E+03  0.29925019297E+03  0.00000000000E+00 0.  1.
         25    1    1    2    0    0 -0.13115247559E+03 -0.31841665422E+02  0.34888633217E+03  0.39441290075E+03  0.12500000000E+03 0.  0.
          2    1    1    2  502    0  0.60190898768E+02  0.39629454430E+02  0.21576858458E+04  0.21588889844E+04  0.00000000000E+00 0. -1.
         -2    1    1    2    0  501  0.70961576818E+02 -0.77877890085E+01 -0.27126730216E+03  0.28050337656E+03  0.00000000000E+00 0.  1.
<mgrwt>
<rscale>  0 0.72431478E+02</rscale>
<asrwt>0</asrwt>
<pdfrwt beam="1">  1        1 0.38993154E+00 0.73490579E+02</pdfrwt>
<pdfrwt beam="2">  1       -1 0.46038493E-01 0.71387639E+02</pdfrwt>
<totfact> 0.88554808E+00</totfact>
</mgrwt>
</event>
<event>
 5    1  0.9399923E-003  0.9825093E+02  0.7546771E-02  0.1340415E+00
          2   -1    0    0  502    0  0.00000000000E+00  0.00000000000E+00  0.29008279154E+04  0.29008279154E+04  0.00000000000E+00 0. -1.
          1   -1    0    0  501    0 -0.00000000000E+00 -0.00000000000E+00 -0.46488866580E+02  0.46488866580E+02  0.00000000000E+00 0. -1.
         25    1    1    2    0    0 -0.14794270351E+02  0.14655327102E+03  0.79088577893E+03  0.81413883767E+03  0.12500000000E+03 0.  0.
          2    1    1    2  501    0 -0.11651421259E+02 -0.93828628253E+02  0.30467974100E+02  0.99337125703E+02  0.00000000000E+00 0. -1.
          1    1    1    2  502    0  0.26445691610E+02 -0.52724642764E+02  0.20329852958E+04  0.20338408187E+04  0.00000000000E+00 0. -1.
<mgrwt>
<rscale>  0 0.76127250E+02</rscale>
<asrwt>0</asrwt>
<pdfrwt beam="1">  1        2 0.44628108E+00 0.58985274E+02</pdfrwt>
<pdfrwt beam="2">  1        1 0.71521356E-02 0.98250933E+02</pdfrwt>
<totfact> 0.38567346E+02</totfact>
</mgrwt>
</event>
<event>
 5    1  0.9399923E-003  0.1626570E+03  0.7546771E-02  0.1212375E+00
          1   -1    0    0  501    0 -0.00000000000E+00  0.00000000000E+00  0.32560162943E+03  0.32560162943E+03  0.00000000000E+00 0. -1.
          2   -1    0    0  502    0  0.00000000000E+00 -0.00000000000E+00 -0.12167927823E+04  0.12167927823E+04  0.00000000000E+00 0. -1.
         25    1    1    2    0    0 -0.11368225658E+03 -0.19512908428E+03  0.89551493386E+02  0.27320959896E+03  0.12500000000E+03 0.  0.
          2    1    1    2  501    0  0.12400000148E+03  0.73840970655E+02  0.10383822393E+03  0.17779444891E+03  0.00000000000E+00 0. -1.
          1    1    1    2  502    0 -0.10317744904E+02  0.12128811363E+03 -0.10845808702E+04  0.10913903639E+04  0.00000000000E+00 0. -1.
<mgrwt>
<rscale>  0 0.14071110E+03</rscale>
<asrwt>0</asrwt>
<pdfrwt beam="2">  1        2 0.18719889E+00 0.12172618E+03</pdfrwt>
<pdfrwt beam="1">  1        1 0.50092559E-01 0.16265699E+03</pdfrwt>
<totfact> 0.22248913E+02</totfact>
</mgrwt>
</event>
<event>
 5    1  0.9399923E-003  0.7371009E+02  0.7546771E-02  0.1416944E+00
          2   -1    0    0  502    0  0.00000000000E+00  0.00000000000E+00  0.84407263326E+03  0.84407263326E+03  0.00000000000E+00 0. -1.
          1   -1    0    0  501    0 -0.00000000000E+00 -0.00000000000E+00 -0.28663235873E+03  0.28663235873E+03  0.00000000000E+00 0. -1.
         25    1    1    2    0    0 -0.49927384481E+02 -0.74484427188E+02  0.16177086638E+03  0.22323863201E+03  0.12500000000E+03 0.  0.
          2    1    1    2  501    0 -0.14450697227E+02  0.39488125293E+02 -0.25209138098E+03  0.25557425350E+03  0.00000000000E+00 0. -1.
          1    1    1    2  502    0  0.64378081708E+02  0.34996301895E+02  0.64776078913E+03  0.65189210648E+03  0.00000000000E+00 0. -1.
<mgrwt>
<rscale>  0 0.55672703E+02</rscale>
<asrwt>0</asrwt>
<pdfrwt beam="1">  1        2 0.12985733E+00 0.73710089E+02</pdfrwt>
<pdfrwt beam="2">  1        1 0.44097287E-01 0.42049194E+02</pdfrwt>
<totfact> 0.43976664E+02</totfact>
</mgrwt>
</event>
<event>
 5    1  0.9399923E-003  0.9013782E+02  0.7546771E-02  0.1420986E+00
          1   -1    0    0  501    0 -0.00000000000E+00  0.00000000000E+00  0.83757668467E+03  0.83757668467E+03  0.00000000000E+00 0. -1.
          2   -1    0    0  502    0  0.00000000000E+00 -0.00000000000E+00 -0.74273483614E+03  0.74273483614E+03  0.00000000000E+00 0. -1.
         25    1    1    2    0    0  0.63220703362E+02  0.56281609667E+02 -0.61659786779E+02  0.16306871627E+03  0.12500000000E+03 0.  0.
          2    1    1    2  501    0  0.22069472758E+02 -0.24978842195E+02  0.78324234029E+03  0.78395125346E+03  0.00000000000E+00 0. -1.
          1    1    1    2  502    0 -0.85290176120E+02 -0.31302767471E+02 -0.62674070498E+03  0.63329155108E+03  0.00000000000E+00 0. -1.
<mgrwt>
<rscale>  0 0.54812858E+02</rscale>
<asrwt>0</asrwt>
<pdfrwt beam="2">  1        2 0.11426690E+00 0.90137818E+02</pdfrwt>
<pdfrwt beam="1">  1        1 0.12885795E+00 0.33331729E+02</pdfrwt>
<totfact> 0.13288432E+02</totfact>
</mgrwt>
</event>
<event>
 5    1  0.9399923E-003  0.6181070E+02  0.7546771E-02  0.1432788E+00
          2   -1    0    0  502    0  0.00000000000E+00  0.00000000000E+00  0.28297700824E+04  0.28297700824E+04  0.00000000000E+00 0.  1.
         -2   -1    0    0    0  501 -0.00000000000E+00 -0.00000000000E+00 -0.93872326974E+01  0.93872326974E+01  0.00000000000E+00 0. -1.
         25    1    1    2    0    0  0.38191952554E+01 -0.70754385495E+02  0.23739193101E+04  0.23782637911E+04  0.12500000000E+03 0.  0.
          1    1    1    2  502    0 -0.29087469254E+02  0.34209950065E+02  0.79953827231E+02  0.91700687238E+02  0.00000000000E+00 0. -1.
         -1    1    1    2    0  501  0.25268273999E+02  0.36544435430E+02  0.36650971233E+03  0.36919283669E+03  0.00000000000E+00 0.  1.
<mgrwt>
<rscale>  0 0.52404380E+02</rscale>
<asrwt>0</asrwt>
<pdfrwt beam="1">  1        2 0.43534856E+00 0.61810697E+02</pdfrwt>
<pdfrwt beam="2">  1       -2 0.14441919E-02 0.44429511E+02</pdfrwt>
<totfact> 0.31431697E+03</totfact>
</mgrwt>
</event>
<event>
 5    1  0.9399923E-003  0.6329166E+02  0.7546771E-02  0.1393549E+00
          2   -1    0    0  502    0  0.00000000000E+00  0.00000000000E+00  0.11912109688E+04  0.11912109688E+04  0.00000000000E+00 0. -1.
          1   -1    0    0  501    0 -0.00000000000E+00 -0.00000000000E+00 -0.23164213816E+03  0.23164213816E+03  0.00000000000E+00 0. -1.
         25    1    1    2    0    0 -0.11070368530E+02 -0.20771237592E+02  0.33835773951E+03  0.36147608117E+03  0.12500000000E+03 0.  0.
          2    1    1    2  501    0 -0.51437688966E+02  0.36878147671E+02 -0.21426176233E+03  0.22341427085E+03  0.00000000000E+00 0. -1.
          1    1    1    2  502    0  0.62508057496E+02 -0.16106910079E+02  0.83547285349E+03  0.83796275498E+03  0.00000000000E+00 0. -1.
<mgrwt>
<rscale>  0 0.61032569E+02</rscale>
<asrwt>0</asrwt>
<pdfrwt beam="1">  1        2 0.18326322E+00 0.58854118E+02</pdfrwt>
<pdfrwt beam="2">  1        1 0.35637253E-01 0.63291655E+02</pdfrwt>
<totfact> 0.36397612E+02</totfact>
</mgrwt>
</event>
<event>
 5    1  0.9399923E-003  0.1010116E+03  0.7546771E-02  0.1278671E+00
          2   -1    0    0  502    0  0.00000000000E+00  0.00000000000E+00  0.57111293089E+03  0.57111293089E+03  0.00000000000E+00 0. -1.
         -2   -1    0    0    0  501 -0.00000000000E+00 -0.00000000000E+00 -0.16286514228E+03  0.16286514228E+03  0.00000000000E+00 0.  1.
         25    1    1    2    0    0 -0.30251434664E+02 -0.65414077323E+02  0.14012770814E+03  0.20113409805E+03  0.12500000000E+03 0.  0.
          1    1    1    2  502    0 -0.64241589145E+02  0.99762700529E+02  0.37068806117E+03  0.38921615702E+03  0.00000000000E+00 0. -1.
         -1    1    1    2    0  501  0.94493023809E+02 -0.34348623206E+02 -0.10256798070E+03  0.14362781809E+03  0.00000000000E+00 0.  1.
<mgrwt>
<rscale>  0 0.10077669E+03</rscale>
<asrwt>0</asrwt>
<pdfrwt beam="1">  1        2 0.87863527E-01 0.10101161E+03</pdfrwt>
<pdfrwt beam="2">  1       -2 0.25056176E-01 0.10054233E+03</pdfrwt>
<totfact> 0.75730415E+02</totfact>
</mgrwt>
</event>
<event>
 5    1  0.9399923E-003  0.2401929E+03  0.7546771E-02  0.1336144E+00
          1   -1    0    0  501    0 -0.00000000000E+00  0.00000000000E+00  0.64846083973E+03  0.64846083973E+03  0.00000000000E+00 0. -1.
          2   -1    0    0  502    0  0.00000000000E+00 -0.00000000000E+00 -0.81711253422E+03  0.81711253422E+03  0.00000000000E+00 0. -1.
         25    1    1    2    0    0 -0.17872357104E+03  0.13776473619E+03  0.98606987078E+02  0.27616946841E+03  0.12500000000E+03 0.  0.
          2    1    1    2  501    0 -0.88584009584E-01  0.25039609367E+02  0.44063441263E+03  0.44134530186E+03  0.00000000000E+00 0. -1.
          1    1    1    2  502    0  0.17881215505E+03 -0.16280434556E+03 -0.70789309420E+03  0.74805860368E+03  0.00000000000E+00 0. -1.
<mgrwt>
<rscale>  0 0.77552401E+02</rscale>
<asrwt>0</asrwt>
<pdfrwt beam="2">  1        2 0.12570962E+00 0.24019293E+03</pdfrwt>
<pdfrwt beam="1">  1        1 0.99763207E-01 0.25039766E+02</pdfrwt>
<totfact> 0.16372221E+02</totfact>
</mgrwt>
</event>
<event>
 5    1  0.9399923E-003  0.7557530E+02  0.7546771E-02  0.1478166E+00
          2   -1    0    0  502    0  0.00000000000E+00  0.00000000000E+00  0.15633838461E+04  0.15633838461E+04  0.00000000000E+00 0. -1.
         -2   -1    0    0    0  501 -0.00000000000E+00 -0.00000000000E+00 -0.17539254827E+02  0.17539254827E+02  0.00000000000E+00 0.  1.
         25    1    1    2    0    0  0.44201987319E+02 -0.65224958940E+02  0.35953503597E+03  0.38871397330E+03  0.12500000000E+03 0.  0.
          1    1    1    2  502    0  0.15014914321E+02  0.21319965409E+02  0.68623745004E+03  0.68673271833E+03  0.00000000000E+00 0. -1.
         -1    1    1    2    0  501 -0.59216901640E+02  0.43904993531E+02  0.50007210529E+03  0.50547640933E+03  0.00000000000E+00 0.  1.
<mgrwt>
<rscale>  0 0.44393087E+02</rscale>
<asrwt>0</asrwt>
<pdfrwt beam="1">  1        2 0.24052048E+00 0.26076591E+02</pdfrwt>
<pdfrwt beam="2">  1       -2 0.26983481E-02 0.75575299E+02</pdfrwt>
<totfact> 0.66597364E+03</totfact>
</mgrwt>
</event>
<event>
 5    1  0.9399923E-003  0.9623303E+02  0.7546771E-02  0.1439511E+00
          1   -1    0    0  502    0  0.00000000000E+00  0.00000000000E+00  0.15004308138E+03  0.15004308138E+03  0.00000000000E+00 0. -1.
         -1   -1    0    0    0  501 -0.00000000000E+00 -0.00000000000E+00 -0.41569491800E+03  0.41569491800E+03  0.00000000000E+00 0.  1.
         25    1    1    2    0    0  0.69246638265E+02  0.88791694517E+02 -0.15499049208E+03  0.22874902090E+03  0.12500000000E+03 0.  0.
          2    1    1    2  502    0 -0.26177268403E+02 -0.71316669183E+01  0.10179067466E+03  0.10534444220E+03  0.00000000000E+00 0. -1.
         -2    1    1    2    0  501 -0.43069369862E+02 -0.81660027598E+02 -0.21245201920E+03  0.23164453628E+03  0.00000000000E+00 0.  1.
<mgrwt>
<rscale>  0 0.51097279E+02</rscale>
<asrwt>0</asrwt>
<pdfrwt beam="1">  1        1 0.23083551E-01 0.27131348E+02</pdfrwt>
<pdfrwt beam="2">  1       -1 0.63953063E-01 0.96233034E+02</pdfrwt>
<totfact> 0.51859548E+02</totfact>
</mgrwt>
</event>
<event>
 5    1  0.9399923E-003  0.1242806E+03  0.7546771E-02  0.1316137E+00
          1   -1    0    0  501    0 -0.00000000000E+00  0.00000000000E+00  0.91467190984E+03  0.91467190984E+03  0.00000000000E+00 0. -1.
          2   -1    0    0  502    0  0.00000000000E+00 -0.00000000000E+00 -0.55810790287E+02  0.55810790287E+02  0.00000000000E+00 0. -1.
         25    1    1    2    0    0 -0.91162817292E+02 -0.84263834370E+02  0.34024962802E+03  0.38315253152E+03  0.12500000000E+03 0.  0.
          2    1    1    2  501    0  0.45828338341E+02 -0.35168665325E+02  0.42511942418E+03  0.42902633536E+03  0.00000000000E+00 0. -1.
          1    1    1    2  502    0  0.45334478951E+02  0.11943249969E+03  0.93492067356E+02  0.15830383326E+03  0.00000000000E+00 0. -1.
<mgrwt>
<rscale>  0 0.84731130E+02</rscale>
<asrwt>0</asrwt>
<pdfrwt beam="2">  1        2 0.85862761E-02 0.12428057E+03</pdfrwt>
<pdfrwt beam="1">  1        1 0.14071874E+00 0.57767392E+02</pdfrwt>
<totfact> 0.20416635E+03</totfact>
</mgrwt>
</event>
<event>
 5    1  0.9399923E-003  0.6553995E+02  0.7546771E-02  0.1396338E+00
         -1   -1    0    0    0  501 -0.00000000000E+00  0.00000000000E+00  0.16390954167E+03  0.16390954167E+03  0.00000000000E+00 0.  1.
          1   -1    0    0  502    0  0.00000000000E+00 -0.00000000000E+00 -0.14974033841E+03  0.14974033841E+03  0.00000000000E+00 0. -1.
         25    1    1    2    0    0 -0.72537760194E+01 -0.63315458712E+02  0.35643859983E+02  0.14476515234E+03  0.12500000000E+03 0.  0.
          2    1    1    2  502    0  0.57104275069E+02  0.38727326038E+02 -0.67644999574E+02  0.96625824605E+02  0.00000000000E+00 0. -1.
         -2    1    1    2    0  501 -0.49850499049E+02  0.24588132674E+02  0.46170342849E+02  0.72258903137E+02  0.00000000000E+00 0.  1.
<mgrwt>
<rscale>  0 0.60357372E+02</rscale>
<asrwt>0</asrwt>
<pdfrwt beam="2">  1        1 0.23036975E-01 0.65539949E+02</pdfrwt>
<pdfrwt beam="1">  1       -1 0.25216853E-01 0.55584607E+02</pdfrwt>
<totfact> 0.26968602E+03</totfact>
</mgrwt>
</event>
<event>
 5    1  0.9399923E-003  0.1110845E+03  0.7546771E-02  0.1281792E+00
         -1   -1    0    0    0  501 -0.00000000000E+00  0.00000000000E+00  0.11027020200E+03  0.11027020200E+03  0.00000000000E+00 0.  1.
          1   -1    0    0  502    0  0.00000000000E+00 -0.00000000000E+00 -0.28724093790E+04  0.28724093790E+04  0.00000000000E+00 0. -1.
         25    1    1    2    0    0  0.31675397301E+02 -0.11084986791E+03 -0.83552082962E+03  0.85264944774E+03  0.12500000000E+03 0.  0.
          2    1    1    2  502    0  0.56550567011E+02  0.10120851833E+03 -0.20069658758E+04  0.20103117065E+04  0.00000000000E+00 0. -1.
         -2    1    1    2    0  501 -0.88225964312E+02  0.96413495772E+01  0.80347528356E+02  0.11971842679E+03  0.00000000000E+00 0.  1.
<mgrwt>
<rscale>  0 0.99291903E+02</rscale>
<asrwt>0</asrwt>
<pdfrwt beam="2">  1        1 0.44190904E+00 0.11108449E+03</pdfrwt>
<pdfrwt beam="1">  1       -1 0.16964650E-01 0.88751205E+02</pdfrwt>
<totfact> 0.25931138E+01</totfact>
</mgrwt>
</event>
<event>
 5    1  0.9399923E-003  0.5216023E+02  0.7546771E-02  0.1437141E+00
          2   -1    0    0  502    0  0.00000000000E+00  0.00000000000E+00  0.69486667023E+02  0.69486667023E+02  0.00000000000E+00 0. -1.
          1   -1    0    0  501    0 -0.00000000000E+00 -0.00000000000E+00 -0.35609708846E+04  0.35609708846E+04  0.00000000000E+00 0. -1.
         25    1    1    2    0    0 -0.51277189442E+02  0.44775260565E+02 -0.16036022391E+04  0.16099066169E+04  0.12500000000E+03 0.  0.
          2    1    1    2  501    0  0.50409611977E+02  0.74187618258E+01 -0.19435608107E+04  0.19442285853E+04  0.00000000000E+00 0. -1.
          1    1    1    2  502    0  0.86757746496E+00 -0.52194022391E+02  0.55678832182E+02  0.76322349395E+02  0.00000000000E+00 0. -1.
<mgrwt>
<rscale>  0 0.51552877E+02</rscale>
<asrwt>0</asrwt>
<pdfrwt beam="1">  1        2 0.10690253E-01 0.52160230E+02</pdfrwt>
<pdfrwt beam="2">  1        1 0.54784185E+00 0.50952596E+02</pdfrwt>
<totfact> 0.28448355E+01</totfact>
</mgrwt>
</event>
<event>
 5    1  0.9399923E-003  0.1324200E+03  0.7546771E-02  0.1329574E+00
          1   -1    0    0  501    0 -0.00000000000E+00  0.00000000000E+00  0.33897876059E+03  0.33897876059E+03  0.00000000000E+00 0. -1.
          2   -1    0    0  502    0  0.00000000000E+00 -0.00000000000E+00 -0.15942769408E+04  0.15942769408E+04  0.00000000000E+00 0. -1.
         25    1    1    2    0    0  0.17813580548E+03  0.29748414838E+01 -0.83610042287E+01  0.21779835001E+03  0.12500000000E+03 0.  0.
          2    1    1    2  501    0 -0.47142642273E+02 -0.95955887336E+01  0.22885053842E+03  0.23385267366E+03  0.00000000000E+00 0. -1.
          1    1    1    2  502    0 -0.13099316320E+03  0.66207472498E+01 -0.14757877144E+04  0.14816046777E+04  0.00000000000E+00 0. -1.
<mgrwt>
<rscale>  0 0.79816248E+02</rscale>
<asrwt>0</asrwt>
<pdfrwt beam="2">  1        2 0.24527338E+00 0.13242002E+03</pdfrwt>
<pdfrwt beam="1">  1        1 0.52150578E-01 0.48109293E+02</pdfrwt>
<totfact> 0.13359058E+02</totfact>
</mgrwt>
</event>
<event>
 5    1  0.9399923E-003  0.1310615E+03  0.7546771E-02  0.1245974E+00
          2   -1    0    0  502    0  0.00000000000E+00  0.00000000000E+00  0.41715427248E+03  0.41715427248E+03  0.00000000000E+00 0. -1.
          1   -1    0    0  501    0 -0.00000000000E+00 -0.00000000000E+00 -0.27290904649E+04  0.27290904649E+04  0.00000000000E+00 0. -1.
         25    1    1    2    0    0 -0.40572443374E+02  0.19817617821E+03 -0.18865789487E+04  0.19015059954E+04  0.12500000000E+03 0.  0.
          2    1    1    2  501    0 -0.43100140043E+02 -0.97642619612E+02 -0.82106554556E+03  0.82797363083E+03  0.00000000000E+00 0. -1.
          1    1    1    2  502    0  0.83672583417E+02 -0.10053355859E+03  0.39570830192E+03  0.41676511110E+03  0.00000000000E+00 0. -1.
<mgrwt>
<rscale>  0 0.11827274E+03</rscale>
<asrwt>0</asrwt>
<pdfrwt beam="1">  1        2 0.64177583E-01 0.13106145E+03</pdfrwt>
<pdfrwt beam="2">  1        1 0.41986005E+00 0.10673192E+03</pdfrwt>
<totfact> 0.13434980E+01</totfact>
</mgrwt>
</event>
<event>
 5    1  0.9399923E-003  0.7529548E+02  0.7546771E-02  0.1380244E+00
         -1   -1    0    0    0  501 -0.00000000000E+00  0.00000000000E+00  0.15005666616E+03  0.15005666616E+03  0.00000000000E+00 0.  1.
          1   -1    0    0  502    0  0.00000000000E+00 -0.00000000000E+00 -0.61166023785E+03  0.61166023785E+03  0.00000000000E+00 0. -1.
         25    1    1    2    0    0  0.55197484873E+02 -0.22147828409E+02  0.39617108256E+02  0.14398542949E+03  0.12500000000E+03 0.  0.
          2    1    1    2  502    0 -0.69687082951E+02 -0.30992927666E+02 -0.54316811822E+03  0.54849654123E+03  0.00000000000E+00 0. -1.
         -2    1    1    2    0  501  0.14489598078E+02  0.53140756075E+02  0.41947438271E+02  0.69234933279E+02  0.00000000000E+00 0.  1.
<mgrwt>
<rscale>  0 0.64399775E+02</rscale>
<asrwt>0</asrwt>
<pdfrwt beam="2">  1        1 0.94101575E-01 0.75295478E+02</pdfrwt>
<pdfrwt beam="1">  1       -1 0.23085641E-01 0.55080744E+02</pdfrwt>
<totfact> 0.54674034E+02</totfact>
</mgrwt>
</event>
<event>
 5    1  0.9653996E-003  0.8842257E+02  0.7546771E-02  0.1324997E+00
          1   -1    0    0  501    0 -0.00000000000E+00  0.00000000000E+00  0.89015548023E+03  0.89015548023E+03  0.00000000000E+00 0. -1.
          2   -1    0    0  502    0  0.00000000000E+00 -0.00000000000E+00 -0.98416594855E+03  0.98416594855E+03  0.00000000000E+00 0. -1.
         25    1    1    2    0    0 -0.41103918202E+02  0.54337136773E+02  0.25604366123E+03  0.29295974635E+03  0.12500000000E+03 0.  0.
          2    1    1    2  501    0  0.68742058988E+02  0.30042909915E+02  0.61131495125E+03  0.61590097965E+03  0.00000000000E+00 0. -1.
          1    1    1    2  502    0 -0.27638140786E+02 -0.84380046688E+02 -0.96136908079E+03  0.96546070278E+03  0.00000000000E+00 0. -1.
<mgrwt>
<rscale>  0 0.81446232E+02</rscale>
<asrwt>0</asrwt>
<pdfrwt beam="2">  1        2 0.15141015E+00 0.88422569E+02</pdfrwt>
<pdfrwt beam="1">  1        1 0.13694700E+00 0.75020311E+02</pdfrwt>
<totfact> 0.81411380E+01</totfact>
</mgrwt>
</event>
<event>
 5    1  0.9399923E-003  0.3523643E+02  0.7546771E-02  0.1600761E+00
          2   -1    0    0  502    0  0.00000000000E+00  0.00000000000E+00  0.19707156793E+02  0.19707156793E+02  0.00000000000E+00 0.  1.
         -2   -1    0    0    0  501 -0.00000000000E+00 -0.00000000000E+00 -0.47828077140E+03  0.47828077140E+03  0.00000000000E+00 0. -1.
         25    1    1    2    0    0 -0.17679689934E+02 -0.17715574653E+01 -0.31502644699E+03  0.33938528571E+03  0.12500000000E+03 0.  0.
          1    1    1    2  502    0 -0.22684045189E+02 -0.10823913786E+02 -0.55778663424E+02  0.61179917532E+02  0.00000000000E+00 0. -1.
         -1    1    1    2    0  501  0.40363735123E+02  0.12595471251E+02 -0.87768504191E+02  0.97422724952E+02  0.00000000000E+00 0.  1.
<mgrwt>
<rscale>  0 0.29759637E+02</rscale>
<asrwt>0</asrwt>
<pdfrwt beam="1">  1        2 0.30318709E-02 0.25134101E+02</pdfrwt>
<pdfrwt beam="2">  1       -2 0.73581643E-01 0.35236431E+02</pdfrwt>
<totfact> 0.41042960E+03</totfact>
</mgrwt>
</event>
<event>
 5    1  0.9399923E-003  0.2742063E+03  0.7546771E-02  0.1236889E+00
          1   -1    0    0  501    0 -0.00000000000E+00  0.00000000000E+00  0.99548508225E+03  0.99548508225E+03  0.00000000000E+00 0. -1.
          2   -1    0    0  502    0  0.00000000000E+00 -0.00000000000E+00 -0.35049991789E+03  0.35049991789E+03  0.00000000000E+00 0. -1.
         25    1    1    2    0    0 -0.31345476580E+03  0.51884931138E+02  0.55557649603E+03  0.65210135656E+03  0.12500000000E+03 0.  0.
          2    1    1    2  501    0  0.52805717583E+02  0.18438641915E+02  0.32852080121E+03  0.33324817201E+03  0.00000000000E+00 0. -1.
          1    1    1    2  502    0  0.26064904822E+03 -0.70323573054E+02 -0.23911213288E+03  0.36063547157E+03  0.00000000000E+00 0. -1.
<mgrwt>
<rscale>  0 0.12384265E+03</rscale>
<asrwt>0</asrwt>
<pdfrwt beam="2">  1        2 0.53923065E-01 0.27420633E+03</pdfrwt>
<pdfrwt beam="1">  1        1 0.15315155E+00 0.55932346E+02</pdfrwt>
<totfact> 0.22460709E+02</totfact>
</mgrwt>
</event>
<event>
 5    1  0.9399923E-003  0.5593089E+02  0.7546771E-02  0.1455432E+00
          2   -1    0    0  502    0  0.00000000000E+00  0.00000000000E+00  0.11302820536E+04  0.11302820536E+04  0.00000000000E+00 0. -1.
         -2   -1    0    0    0  501 -0.00000000000E+00 -0.00000000000E+00 -0.67243095764E+02  0.67243095764E+02  0.00000000000E+00 0.  1.
         25    1    1    2    0    0  0.36806334883E+01  0.54298408967E+02  0.66701322594E+03  0.68080357509E+03  0.12500000000E+03 0.  0.
          1    1    1    2  502    0 -0.43084475725E+02 -0.41284355463E+02  0.44701501413E+03  0.45098014692E+03  0.00000000000E+00 0. -1.
         -1    1    1    2    0  501  0.39403842236E+02 -0.13014053504E+02 -0.50989282219E+02  0.65741427371E+02  0.00000000000E+00 0.  1.
<mgrwt>
<rscale>  0 0.48176575E+02</rscale>
<asrwt>0</asrwt>
<pdfrwt beam="1">  1        2 0.17388953E+00 0.55930885E+02</pdfrwt>
<pdfrwt beam="2">  1       -2 0.10345092E-01 0.41497330E+02</pdfrwt>
<totfact> 0.13379460E+03</totfact>
</mgrwt>
</event>
<event>
 5    1  0.9399923E-003  0.8181157E+02  0.7546771E-02  0.1430074E+00
          2   -1    0    0  502    0  0.00000000000E+00  0.00000000000E+00  0.25801560323E+03  0.25801560323E+03  0.00000000000E+00 0. -1.
          1   -1    0    0  501    0 -0.00000000000E+00 -0.00000000000E+00 -0.45857565416E+03  0.45857565416E+03  0.00000000000E+00 0. -1.
         25    1    1    2    0    0 -0.72416952903E+02  0.87424426758E+02 -0.19681056903E+02  0.16999879253E+03  0.12500000000E+03 0.  0.
          2    1    1    2  501    0  0.55348667246E+02 -0.57714339744E+02 -0.35767598649E+03  0.36650584073E+03  0.00000000000E+00 0. -1.
          1    1    1    2  502    0  0.17068285657E+02 -0.29710087014E+02  0.17679699246E+03  0.18008662413E+03  0.00000000000E+00 0. -1.
<mgrwt>
<rscale>  0 0.52945108E+02</rscale>
<asrwt>0</asrwt>
<pdfrwt beam="1">  1        2 0.39694708E-01 0.34263912E+02</pdfrwt>
<pdfrwt beam="2">  1        1 0.70550100E-01 0.81811570E+02</pdfrwt>
<totfact> 0.88417312E+02</totfact>
</mgrwt>
</event>
<event>
 5    1  0.9399923E-003  0.1413675E+03  0.7546771E-02  0.1280331E+00
          2   -1    0    0  502    0  0.00000000000E+00  0.00000000000E+00  0.84074087295E+03  0.84074087295E+03  0.00000000000E+00 0. -1.
          1   -1    0    0  501    0 -0.00000000000E+00 -0.00000000000E+00 -0.94957982773E+03  0.94957982773E+03  0.00000000000E+00 0. -1.
         25    1    1    2    0    0 -0.14958698116E+03  0.63345107483E+02 -0.11849604218E+03  0.23675975078E+03  0.12500000000E+03 0.  0.
          2    1    1    2  501    0  0.92886062810E+02 -0.10560025803E+03 -0.76392026339E+03  0.77675826612E+03  0.00000000000E+00 0. -1.
          1    1    1    2  502    0  0.56700918348E+02  0.42255150544E+02  0.77357735079E+03  0.77680268379E+03  0.00000000000E+00 0. -1.
<mgrwt>
<rscale>  0 0.99983402E+02</rscale>
<asrwt>0</asrwt>
<pdfrwt beam="1">  1        2 0.12934475E+00 0.70714156E+02</pdfrwt>
<pdfrwt beam="2">  1        1 0.14608920E+00 0.14136746E+03</pdfrwt>
<totfact> 0.87523312E+01</totfact>
</mgrwt>
</event>
<event>
 5    1  0.9399923E-003  0.4695903E+02  0.7546771E-02  0.1473005E+00
          1   -1    0    0  502    0  0.00000000000E+00  0.00000000000E+00  0.65372195980E+03  0.65372195980E+03  0.00000000000E+00 0. -1.
         -1   -1    0    0    0  501 -0.00000000000E+00 -0.00000000000E+00 -0.20685294371E+02  0.20685294371E+02  0.00000000000E+00 0.  1.
         25    1    1    2    0    0  0.12969922809E+00 -0.20857298589E+02  0.34588415390E+03  0.36836923276E+03  0.12500000000E+03 0.  0.
          2    1    1    2  502    0 -0.36687818112E+02 -0.23437879824E+02  0.17109659021E+03  0.17654850153E+03  0.00000000000E+00 0.  1.
         -2    1    1    2    0  501  0.36558118884E+02  0.44295178413E+02  0.11605592132E+03  0.12948951988E+03  0.00000000000E+00 0. -1.
<mgrwt>
<rscale>  0 0.45214817E+02</rscale>
<asrwt>0</asrwt>
<pdfrwt beam="1">  1        1 0.10057259E+00 0.43535390E+02</pdfrwt>
<pdfrwt beam="2">  1       -1 0.31823535E-02 0.46959030E+02</pdfrwt>
<totfact> 0.94663140E+03</totfact>
</mgrwt>
</event>
<event>
 5    1  0.9399923E-003  0.7688201E+02  0.7546771E-02  0.1459405E+00
          2   -1    0    0  502    0  0.00000000000E+00  0.00000000000E+00  0.13619017402E+02  0.13619017402E+02  0.00000000000E+00 0. -1.
         -2   -1    0    0    0  501 -0.00000000000E+00 -0.00000000000E+00 -0.14161149884E+04  0.14161149884E+04  0.00000000000E+00 0.  1.
         25    1    1    2    0    0  0.70998108081E+02  0.93807553121E+01 -0.73907386694E+03  0.75298334027E+03  0.12500000000E+03 0.  0.
          1    1    1    2  502    0 -0.70072188211E+02 -0.38693161663E+02 -0.25479648959E+03  0.26707400366E+03  0.00000000000E+00 0. -1.
         -1    1    1    2    0  501 -0.92591986920E+00  0.29312406351E+02 -0.40862561442E+03  0.40967666184E+03  0.00000000000E+00 0.  1.
<mgrwt>
<rscale>  0 0.47483901E+02</rscale>
<asrwt>0</asrwt>
<pdfrwt beam="1">  1        2 0.20952336E-02 0.76882013E+02</pdfrwt>
<pdfrwt beam="2">  1       -2 0.21786383E+00 0.29327027E+02</pdfrwt>
<totfact> 0.58661309E+02</totfact>
</mgrwt>
</event>
<event>
 5    1  0.9399923E-003  0.9701895E+02  0.7546771E-02  0.1342548E+00
          1   -1    0    0  501    0 -0.00000000000E+00  0.00000000000E+00  0.12777037991E+04  0.12777037991E+04  0.00000000000E+00 0. -1.
          2   -1    0    0  502    0  0.00000000000E+00 -0.00000000000E+00 -0.32352545451E+04  0.32352545451E+04  0.00000000000E+00 0. -1.
         25    1    1    2    0    0 -0.83875540559E+01  0.84826000654E+02 -0.90886011730E+02  0.17649665316E+03  0.12500000000E+03 0.  0.
          2    1    1    2  501    0 -0.50240284624E+02 -0.83475743526E+02  0.12326989988E+04  0.12365432089E+04  0.00000000000E+00 0. -1.
          1    1    1    2  502    0  0.58627838680E+02 -0.13502571280E+01 -0.30993637330E+04  0.30999184821E+04  0.00000000000E+00 0. -1.
<mgrwt>
<rscale>  0 0.75428905E+02</rscale>
<asrwt>0</asrwt>
<pdfrwt beam="2">  1        2 0.49773147E+00 0.58643385E+02</pdfrwt>
<pdfrwt beam="1">  1        1 0.19656981E+00 0.97018951E+02</pdfrwt>
<totfact> 0.29442765E+00</totfact>
</mgrwt>
</event>
<event>
 5    1  0.9399923E-003  0.3711679E+02  0.7546771E-02  0.1536392E+00
          2   -1    0    0  502    0  0.00000000000E+00  0.00000000000E+00  0.11455517622E+04  0.11455517622E+04  0.00000000000E+00 0. -1.
         -2   -1    0    0    0  501 -0.00000000000E+00 -0.00000000000E+00 -0.12185470422E+03  0.12185470422E+03  0.00000000000E+00 0.  1.
         25    1    1    2    0    0 -0.21680141771E+01  0.24320986988E+02  0.22502663650E+03  0.25856952223E+03  0.12500000000E+03 0.  0.
          1    1    1    2  502    0 -0.33439548224E+02 -0.12570423094E+02  0.90004311131E+03  0.90075180885E+03  0.00000000000E+00 0. -1.
         -1    1    1    2    0  501  0.35607562401E+02 -0.11750563895E+02 -0.10137268980E+03  0.10808513537E+03  0.00000000000E+00 0.  1.
<mgrwt>
<rscale>  0 0.36413840E+02</rscale>
<asrwt>0</asrwt>
<pdfrwt beam="1">  1        2 0.17623873E+00 0.35724206E+02</pdfrwt>
<pdfrwt beam="2">  1       -2 0.18746878E-01 0.37116786E+02</pdfrwt>
<totfact> 0.52735958E+02</totfact>
</mgrwt>
</event>
<event>
 5    1  0.9399923E-003  0.1066429E+03  0.7546771E-02  0.1339026E+00
          2   -1    0    0  502    0  0.00000000000E+00  0.00000000000E+00  0.17196300113E+03  0.17196300113E+03  0.00000000000E+00 0. -1.
          1   -1    0    0  501    0 -0.00000000000E+00 -0.00000000000E+00 -0.90035706799E+03  0.90035706799E+03  0.00000000000E+00 0. -1.
         25    1    1    2    0    0  0.10559829103E+03  0.95765393553E+02 -0.19513291589E+03  0.27207327052E+03  0.12500000000E+03 0.  0.
          2    1    1    2  501    0 -0.54779711627E+02 -0.49367948285E+01 -0.64511793861E+03  0.64745837200E+03  0.00000000000E+00 0. -1.
          1    1    1    2  502    0 -0.50818579407E+02 -0.90828598724E+02  0.11185678765E+03  0.15278842660E+03  0.00000000000E+00 0. -1.
<mgrwt>
<rscale>  0 0.76586847E+02</rscale>
<asrwt>0</asrwt>
<pdfrwt beam="1">  1        2 0.26455847E-01 0.10664295E+03</pdfrwt>
<pdfrwt beam="2">  1        1 0.13851647E+00 0.55001716E+02</pdfrwt>
<totfact> 0.56189059E+02</totfact>
</mgrwt>
</event>
<event>
 5    1  0.9399923E-003  0.8386486E+02  0.7546771E-02  0.1398882E+00
          1   -1    0    0  501    0 -0.00000000000E+00  0.00000000000E+00  0.81364052545E+03  0.81364052545E+03  0.00000000000E+00 0. -1.
          2   -1    0    0  502    0  0.00000000000E+00 -0.00000000000E+00 -0.13278490280E+03  0.13278490280E+03  0.00000000000E+00 0. -1.
         25    1    1    2    0    0  0.80889521715E+01  0.12370196470E+03  0.22156703435E+01  0.17606111556E+03  0.12500000000E+03 0.  0.
          2    1    1    2  501    0  0.33846864920E+01 -0.82707426033E+02  0.71167952639E+03  0.71647730090E+03  0.00000000000E+00 0. -1.
          1    1    1    2  502    0 -0.11473638664E+02 -0.40994538669E+02 -0.33039574074E+02  0.53887011791E+02  0.00000000000E+00 0. -1.
<mgrwt>
<rscale>  0 0.59750470E+02</rscale>
<asrwt>0</asrwt>
<pdfrwt beam="2">  1        2 0.20428447E-01 0.42569902E+02</pdfrwt>
<pdfrwt beam="1">  1        1 0.12517546E+00 0.83864855E+02</pdfrwt>
<totfact> 0.81963389E+02</totfact>
</mgrwt>
</event>
<event>
 5    1  0.9399923E-003  0.2164723E+03  0.7546771E-02  0.1244351E+00
         -2   -1    0    0    0  501 -0.00000000000E+00  0.00000000000E+00  0.90882506146E+03  0.90882506146E+03  0.00000000000E+00 0.  1.
          2   -1    0    0  502    0  0.00000000000E+00 -0.00000000000E+00 -0.10939249203E+04  0.10939249203E+04  0.00000000000E+00 0. -1.
         25    1    1    2    0    0  0.15290487727E+03 -0.81672544832E+02  0.64132689728E+02  0.22313293787E+03  0.12500000000E+03 0.  0.
          1    1    1    2  502    0  0.63617548469E+02  0.16349597500E+02 -0.99660885347E+03  0.99877109921E+03  0.00000000000E+00 0. -1.
         -1    1    1    2    0  501 -0.21652242574E+03  0.65322947331E+02  0.74737630487E+03  0.78084594471E+03  0.00000000000E+00 0.  1.
<mgrwt>
<rscale>  0 0.11924327E+03</rscale>
<asrwt>0</asrwt>
<pdfrwt beam="2">  1        2 0.16829614E+00 0.65684867E+02</pdfrwt>
<pdfrwt beam="1">  1       -2 0.13981924E+00 0.21647233E+03</pdfrwt>
<totfact> 0.97350988E+00</totfact>
</mgrwt>
</event>
<event>
 5    1  0.9399923E-003  0.4557237E+02  0.7546771E-02  0.1524578E+00
          2   -1    0    0  502    0  0.00000000000E+00  0.00000000000E+00  0.41920485463E+03  0.41920485463E+03  0.00000000000E+00 0. -1.
         -2   -1    0    0    0  501 -0.00000000000E+00 -0.00000000000E+00 -0.50030320984E+03  0.50030320984E+03  0.00000000000E+00 0.  1.
         25    1    1    2    0    0 -0.44805717845E+02  0.56466481574E+02 -0.22492951448E+03  0.26723454563E+03  0.12500000000E+03 0.  0.
          1    1    1    2  502    0  0.26330970749E+02 -0.17203101296E+02  0.39557188879E+03  0.39682034464E+03  0.00000000000E+00 0. -1.
         -1    1    1    2    0  501  0.18474747096E+02 -0.39263380278E+02 -0.25174072952E+03  0.25545317420E+03  0.00000000000E+00 0.  1.
<mgrwt>
<rscale>  0 0.37859875E+02</rscale>
<asrwt>0</asrwt>
<pdfrwt beam="1">  1        2 0.64493054E-01 0.31452611E+02</pdfrwt>
<pdfrwt beam="2">  1       -2 0.76969725E-01 0.45572374E+02</pdfrwt>
<totfact> 0.12381667E+02</totfact>
</mgrwt>
</event>
<event>
 5    1  0.9399923E-003  0.1996671E+03  0.7546771E-02  0.1156808E+00
          2   -1    0    0  502    0  0.00000000000E+00  0.00000000000E+00  0.11986100935E+04  0.11986100935E+04  0.00000000000E+00 0. -1.
          1   -1    0    0  501    0 -0.00000000000E+00 -0.00000000000E+00 -0.19178732917E+03  0.19178732917E+03  0.00000000000E+00 0. -1.
         25    1    1    2    0    0  0.17628470161E+03  0.17180108262E+03  0.11584905399E+03  0.29939591066E+03  0.12500000000E+03 0.  0.
          2    1    1    2  501    0 -0.20116234300E+03  0.10841047280E+02  0.21953036106E+02  0.20264686610E+03  0.00000000000E+00 0. -1.
          1    1    1    2  502    0  0.24877641389E+02 -0.18264212990E+03  0.86902067428E+03  0.88835464595E+03  0.00000000000E+00 0. -1.
<mgrwt>
<rscale>  0 0.19184462E+03</rscale>
<asrwt>0</asrwt>
<pdfrwt beam="1">  1        2 0.18440155E+00 0.18432863E+03</pdfrwt>
<pdfrwt beam="2">  1        1 0.29505744E-01 0.19966708E+03</pdfrwt>
<totfact> 0.43030468E+02</totfact>
</mgrwt>
</event>
<event>
 5    1  0.9399923E-003  0.1073351E+03  0.7546771E-02  0.1272360E+00
          1   -1    0    0  501    0 -0.00000000000E+00  0.00000000000E+00  0.59098841352E+02  0.59098841352E+02  0.00000000000E+00 0. -1.
          2   -1    0    0  502    0  0.00000000000E+00 -0.00000000000E+00 -0.20716671133E+04  0.20716671133E+04  0.00000000000E+00 0. -1.
         25    1    1    2    0    0 -0.16507765100E+02 -0.21163149853E+00 -0.10372382277E+04  0.10448735293E+04  0.12500000000E+03 0.  0.
          2    1    1    2  501    0  0.86794881294E+02  0.72070822146E+02 -0.77254260267E+01  0.11308066604E+03  0.00000000000E+00 0. -1.
          1    1    1    2  502    0 -0.70287116194E+02 -0.71859190648E+02 -0.96760461816E+03  0.97281175932E+03  0.00000000000E+00 0. -1.
<mgrwt>
<rscale>  0 0.10387103E+03</rscale>
<asrwt>0</asrwt>
<pdfrwt beam="2">  1        2 0.31871798E+00 0.10051876E+03</pdfrwt>
<pdfrwt beam="1">  1        1 0.90921304E-02 0.10733510E+03</pdfrwt>
<totfact> 0.71029108E+02</totfact>
</mgrwt>
</event>
<event>
 5    1  0.9399923E-003  0.5900418E+02  0.7546771E-02  0.1413520E+00
          2   -1    0    0  502    0  0.00000000000E+00  0.00000000000E+00  0.41556220708E+03  0.41556220708E+03  0.00000000000E+00 0. -1.
          1   -1    0    0  501    0 -0.00000000000E+00 -0.00000000000E+00 -0.70035861550E+03  0.70035861550E+03  0.00000000000E+00 0. -1.
         25    1    1    2    0    0 -0.76955503783E+02  0.46283246569E+02 -0.17175552836E+03  0.23062794713E+03  0.12500000000E+03 0.  0.
          2    1    1    2  501    0  0.53397245690E+02  0.76373162549E+01 -0.49545275501E+03  0.49838040380E+03  0.00000000000E+00 0. -1.
          1    1    1    2  502    0  0.23558258093E+02 -0.53920562824E+02  0.38241187494E+03  0.38691247165E+03  0.00000000000E+00 0. -1.
<mgrwt>
<rscale>  0 0.56415637E+02</rscale>
<asrwt>0</asrwt>
<pdfrwt beam="1">  1        2 0.63932647E-01 0.59004178E+02</pdfrwt>
<pdfrwt beam="2">  1        1 0.10774748E+00 0.53940657E+02</pdfrwt>
<totfact> 0.31822589E+02</totfact>
</mgrwt>
</event>
<event>
 5    1  0.9399923E-003  0.8284377E+02  0.7546771E-02  0.1348050E+00
          2   -1    0    0  502    0  0.00000000000E+00  0.00000000000E+00  0.94283890047E+03  0.94283890047E+03  0.00000000000E+00 0. -1.
          1   -1    0    0  501    0 -0.00000000000E+00 -0.00000000000E+00 -0.15728030975E+03  0.15728030975E+03  0.00000000000E+00 0. -1.
         25    1    1    2    0    0 -0.34675267507E+02 -0.14073059953E+03  0.21061999794E+03  0.28459314706E+03  0.12500000000E+03 0.  0.
          2    1    1    2  501    0  0.21266616963E+02  0.76611447407E+02 -0.10540869021E+03  0.13203247647E+03  0.00000000000E+00 0. -1.
          1    1    1    2  502    0  0.13408650544E+02  0.64119152124E+02  0.68034728299E+03  0.68349358669E+03  0.00000000000E+00 0. -1.
<mgrwt>
<rscale>  0 0.73666666E+02</rscale>
<asrwt>0</asrwt>
<pdfrwt beam="1">  1        2 0.14505214E+00 0.65506164E+02</pdfrwt>
<pdfrwt beam="2">  1        1 0.24196971E-01 0.82843770E+02</pdfrwt>
<totfact> 0.80387591E+02</totfact>
</mgrwt>
</event>
<event>
 5    1  0.9399923E-003  0.5459810E+02  0.7546771E-02  0.1449389E+00
          2   -1    0    0  502    0  0.00000000000E+00  0.00000000000E+00  0.39797030048E+03  0.39797030048E+03  0.00000000000E+00 0. -1.
          1   -1    0    0  501    0 -0.00000000000E+00 -0.00000000000E+00 -0.13060356461E+03  0.13060356461E+03  0.00000000000E+00 0. -1.
         25    1    1    2    0    0 -0.56298529000E+02 -0.35783088783E+01 -0.14721545389E+02  0.13792770773E+03  0.12500000000E+03 0.  0.
          2    1    1    2  501    0  0.37531838753E+02  0.43860198960E+02 -0.36942364130E+02  0.68535350298E+02  0.00000000000E+00 0. -1.
          1    1    1    2  502    0  0.18766690247E+02 -0.40281890082E+02  0.31903064538E+03  0.32211080706E+03  0.00000000000E+00 0. -1.
<mgrwt>
<rscale>  0 0.49257300E+02</rscale>
<asrwt>0</asrwt>
<pdfrwt beam="1">  1        2 0.61226199E-01 0.44438939E+02</pdfrwt>
<pdfrwt beam="2">  1        1 0.20092856E-01 0.54598099E+02</pdfrwt>
<totfact> 0.26351901E+03</totfact>
</mgrwt>
</event>
<event>
 5    1  0.9399923E-003  0.3876301E+02  0.7546771E-02  0.1563479E+00
          1   -1    0    0  502    0  0.00000000000E+00  0.00000000000E+00  0.26371514313E+04  0.26371514313E+04  0.00000000000E+00 0. -1.
         -1   -1    0    0    0  501 -0.00000000000E+00 -0.00000000000E+00 -0.88095294021E+02  0.88095294021E+02  0.00000000000E+00 0.  1.
         25    1    1    2    0    0 -0.77537945495E+01 -0.68458610032E+01  0.18072800141E+03  0.21998772156E+03  0.12500000000E+03 0.  0.
          2    1    1    2  502    0  0.32062647751E+02  0.22185131969E+02  0.24336136165E+04  0.24339259290E+04  0.00000000000E+00 0. -1.
         -2    1    1    2    0  501 -0.24308853202E+02 -0.15339270966E+02 -0.65285480615E+02  0.71333074775E+02  0.00000000000E+00 0.  1.
<mgrwt>
<rscale>  0 0.33379653E+02</rscale>
<asrwt>0</asrwt>
<pdfrwt beam="1">  1        1 0.40571554E+00 0.38763009E+02</pdfrwt>
<pdfrwt beam="2">  1       -1 0.13553124E-01 0.28743931E+02</pdfrwt>
<totfact> 0.58095939E+01</totfact>
</mgrwt>
</event>
<event>
 5    1  0.9399923E-003  0.3751011E+02  0.7546771E-02  0.1575131E+00
          2   -1    0    0  502    0  0.00000000000E+00  0.00000000000E+00  0.16782061159E+04  0.16782061159E+04  0.00000000000E+00 0. -1.
          1   -1    0    0  501    0 -0.00000000000E+00 -0.00000000000E+00 -0.11837950298E+02  0.11837950298E+02  0.00000000000E+00 0. -1.
         25    1    1    2    0    0 -0.31252034436E+01  0.16618692691E+02  0.72269082079E+03  0.73361636453E+03  0.12500000000E+03 0.  0.
          2    1    1    2  501    0 -0.25657656020E+02  0.10208684684E+02  0.26066331578E+02  0.37973493352E+02  0.00000000000E+00 0. -1.
          1    1    1    2  502    0  0.28782859463E+02 -0.26827377376E+02  0.91761101327E+03  0.91845420835E+03  0.00000000000E+00 0. -1.
<mgrwt>
<rscale>  0 0.32183908E+02</rscale>
<asrwt>0</asrwt>
<pdfrwt beam="1">  1        2 0.25818537E+00 0.37510112E+02</pdfrwt>
<pdfrwt beam="2">  1        1 0.18212245E-02 0.27613992E+02</pdfrwt>
<totfact> 0.89372447E+03</totfact>
</mgrwt>
</event>
<event>
 5    1  0.9399923E-003  0.1592552E+03  0.7546771E-02  0.1226120E+00
          2   -1    0    0  502    0  0.00000000000E+00  0.00000000000E+00  0.57996048485E+03  0.57996048485E+03  0.00000000000E+00 0. -1.
         -2   -1    0    0    0  501 -0.00000000000E+00 -0.00000000000E+00 -0.71907933348E+03  0.71907933348E+03  0.00000000000E+00 0.  1.
         25    1    1    2    0    0 -0.79956073925E+01  0.12753356266E+03 -0.36411040658E+03  0.40562313484E+03  0.12500000000E+03 0.  0.
          1    1    1    2  502    0 -0.99601493897E+02 -0.12674163103E+03  0.53842050838E+03  0.56203251016E+03  0.00000000000E+00 0. -1.
         -1    1    1    2    0  501  0.10759710129E+03 -0.79193162990E+00 -0.31342895044E+03  0.33138417333E+03  0.00000000000E+00 0.  1.
<mgrwt>
<rscale>  0 0.13090400E+03</rscale>
<asrwt>0</asrwt>
<pdfrwt beam="1">  1        2 0.89224690E-01 0.15925517E+03</pdfrwt>
<pdfrwt beam="2">  1       -2 0.11062759E+00 0.10760002E+03</pdfrwt>
<totfact> 0.37503212E+01</totfact>
</mgrwt>
</event>
<event>
 5    1  0.9399923E-003  0.2717315E+02  0.7546771E-02  0.1646457E+00
          1   -1    0    0  501    0 -0.00000000000E+00  0.00000000000E+00  0.27155516916E+04  0.27155516916E+04  0.00000000000E+00 0. -1.
          2   -1    0    0  502    0  0.00000000000E+00 -0.00000000000E+00 -0.71052507515E+01  0.71052507515E+01  0.00000000000E+00 0. -1.
         25    1    1    2    0    0 -0.31055576696E+01 -0.17561957548E+02  0.19573680226E+04  0.19614363724E+04  0.12500000000E+03 0.  0.
          2    1    1    2  501    0  0.26931237707E+02  0.44960853524E+01  0.71752382477E+03  0.71804313622E+03  0.00000000000E+00 0. -1.
          1    1    1    2  502    0 -0.23825680038E+02  0.13065872196E+02  0.33554593451E+02  0.43177433772E+02  0.00000000000E+00 0. -1.
<mgrwt>
<rscale>  0 0.26043058E+02</rscale>
<asrwt>0</asrwt>
<pdfrwt beam="2">  1        2 0.10931177E-02 0.27173149E+02</pdfrwt>
<pdfrwt beam="1">  1        1 0.41777635E+00 0.24959966E+02</pdfrwt>
<totfact> 0.20147025E+03</totfact>
</mgrwt>
</event>
<event>
 5    1  0.9399923E-003  0.2207712E+03  0.7546771E-02  0.1266398E+00
          1   -1    0    0  501    0 -0.00000000000E+00  0.00000000000E+00  0.21331554407E+03  0.21331554407E+03  0.00000000000E+00 0. -1.
          2   -1    0    0  502    0  0.00000000000E+00 -0.00000000000E+00 -0.16879587816E+04  0.16879587816E+04  0.00000000000E+00 0. -1.
         25    1    1    2    0    0  0.75471987376E+02  0.15570824043E+03 -0.30374028130E+01  0.21348372967E+03  0.12500000000E+03 0.  0.
          2    1    1    2  501    0  0.15778026047E+02  0.49310677268E+02  0.93393404500E+02  0.10678397353E+03  0.00000000000E+00 0. -1.
          1    1    1    2  502    0 -0.91250013423E+02 -0.20501891770E+03 -0.15649992392E+04  0.15810066225E+04  0.00000000000E+00 0. -1.
<mgrwt>
<rscale>  0 0.10691158E+03</rscale>
<asrwt>0</asrwt>
<pdfrwt beam="2">  1        2 0.25968596E+00 0.22077122E+03</pdfrwt>
<pdfrwt beam="1">  1        1 0.32817777E-01 0.51773439E+02</pdfrwt>
<totfact> 0.19911273E+02</totfact>
</mgrwt>
</event>
<event>
 5    1  0.9399923E-003  0.5593879E+02  0.7546771E-02  0.1430042E+00
         -1   -1    0    0    0  501 -0.00000000000E+00  0.00000000000E+00  0.35362687502E+03  0.35362687502E+03  0.00000000000E+00 0.  1.
          1   -1    0    0  502    0  0.00000000000E+00 -0.00000000000E+00 -0.24803973631E+03  0.24803973631E+03  0.00000000000E+00 0. -1.
         25    1    1    2    0    0  0.78879914991E+02  0.46813484910E+02  0.64762400667E+02  0.16802592627E+03  0.12500000000E+03 0.  0.
          2    1    1    2  502    0 -0.28756346851E+02 -0.46970691342E+02 -0.18980148573E+03  0.19763040585E+03  0.00000000000E+00 0. -1.
         -2    1    1    2    0  501 -0.50123568140E+02  0.15720643200E+00  0.23062622378E+03  0.23601027921E+03  0.00000000000E+00 0.  1.
<mgrwt>
<rscale>  0 0.52951538E+02</rscale>
<asrwt>0</asrwt>
<pdfrwt beam="2">  1        1 0.38159959E-01 0.55938786E+02</pdfrwt>
<pdfrwt beam="1">  1       -1 0.54404135E-01 0.50123815E+02</pdfrwt>
<totfact> 0.39596867E+02</totfact>
</mgrwt>
</event>
<event>
 5    1  0.9399923E-003  0.3758718E+03  0.7546771E-02  0.1065727E+00
          1   -1    0    0  501    0 -0.00000000000E+00  0.00000000000E+00  0.13535992216E+04  0.13535992216E+04  0.00000000000E+00 0. -1.
          2   -1    0    0  502    0  0.00000000000E+00 -0.00000000000E+00 -0.10990146855E+04  0.10990146855E+04  0.00000000000E+00 0. -1.
         25    1    1    2    0    0 -0.30166974092E+03 -0.18609015609E+03 -0.38916368638E+03  0.54102454064E+03  0.12500000000E+03 0.  0.
          2    1    1    2  501    0  0.36597288183E+03 -0.11934279701E+03  0.12074040701E+04  0.12672819109E+04  0.00000000000E+00 0. -1.
          1    1    1    2  502    0 -0.64303140913E+02  0.30543295310E+03 -0.56365584756E+03  0.64430745553E+03  0.00000000000E+00 0. -1.
<mgrwt>
<rscale>  0 0.34252052E+03</rscale>
<asrwt>0</asrwt>
<pdfrwt beam="2">  1        2 0.16907918E+00 0.31212847E+03</pdfrwt>
<pdfrwt beam="1">  1        1 0.20824603E+00 0.37587185E+03</pdfrwt>
<totfact> 0.27408630E+01</totfact>
</mgrwt>
</event>
<event>
 5    1  0.9399923E-003  0.3795716E+02  0.7546771E-02  0.1544025E+00
          1   -1    0    0  501    0 -0.00000000000E+00  0.00000000000E+00  0.13254575969E+03  0.13254575969E+03  0.00000000000E+00 0. -1.
          2   -1    0    0  502    0  0.00000000000E+00 -0.00000000000E+00 -0.11566754016E+03  0.11566754016E+03  0.00000000000E+00 0. -1.
         25    1    1    2    0    0  0.11397569904E+01 -0.65065448935E+01  0.67048079971E+02  0.14200027887E+03  0.12500000000E+03 0.  0.
          2    1    1    2  501    0  0.11158089079E+02 -0.31311901520E+02  0.94403594163E+01  0.34555151781E+02  0.00000000000E+00 0. -1.
          1    1    1    2  502    0 -0.12297846069E+02  0.37818446414E+02 -0.59610219856E+02  0.71657869201E+02  0.00000000000E+00 0. -1.
<mgrwt>
<rscale>  0 0.35520688E+02</rscale>
<asrwt>0</asrwt>
<pdfrwt beam="2">  1        2 0.17795006E-01 0.37957164E+02</pdfrwt>
<pdfrwt beam="1">  1        1 0.20391655E-01 0.33240610E+02</pdfrwt>
<totfact> 0.91043477E+03</totfact>
</mgrwt>
</event>
<event>
 5    1  0.9399923E-003  0.6071990E+02  0.7546771E-02  0.1507087E+00
          2   -1    0    0  502    0  0.00000000000E+00  0.00000000000E+00  0.18736857473E+04  0.18736857473E+04  0.00000000000E+00 0. -1.
         -2   -1    0    0    0  501 -0.00000000000E+00 -0.00000000000E+00 -0.11706157065E+03  0.11706157065E+03  0.00000000000E+00 0.  1.
         25    1    1    2    0    0 -0.41330857278E+02 -0.31797923412E+02 -0.12573744460E+02  0.13602369921E+03  0.12500000000E+03 0.  0.
          1    1    1    2  502    0  0.88562407122E+01 -0.25032314370E+02  0.17867574941E+04  0.17869547819E+04  0.00000000000E+00 0. -1.
         -1    1    1    2    0  501  0.32474616566E+02  0.56830237782E+02 -0.17559572975E+02  0.67768836869E+02  0.00000000000E+00 0.  1.
<mgrwt>
<rscale>  0 0.40153227E+02</rscale>
<asrwt>0</asrwt>
<pdfrwt beam="1">  1        2 0.28825932E+00 0.26552773E+02</pdfrwt>
<pdfrwt beam="2">  1       -2 0.18009474E-01 0.60719898E+02</pdfrwt>
<totfact> 0.26335517E+02</totfact>
</mgrwt>
</event>
<event>
 5    1  0.9399923E-003  0.2143197E+03  0.7546771E-02  0.1281396E+00
          1   -1    0    0  502    0  0.00000000000E+00  0.00000000000E+00  0.52003190706E+03  0.52003190706E+03  0.00000000000E+00 0. -1.
         -1   -1    0    0    0  501 -0.00000000000E+00 -0.00000000000E+00 -0.74455019529E+03  0.74455019529E+03  0.00000000000E+00 0.  1.
         25    1    1    2    0    0  0.90929907323E+02  0.18818076013E+03  0.88638928458E+02  0.25915652831E+03  0.12500000000E+03 0.  0.
          2    1    1    2  502    0  0.42125546197E+02 -0.18906980115E+02  0.32688983768E+03  0.33013482324E+03  0.00000000000E+00 0. -1.
         -2    1    1    2    0  501 -0.13305545352E+03 -0.16927378002E+03 -0.64004705436E+03  0.67529075080E+03  0.00000000000E+00 0.  1.
<mgrwt>
<rscale>  0 0.99478592E+02</rscale>
<asrwt>0</asrwt>
<pdfrwt beam="1">  1        1 0.80004909E-01 0.46173970E+02</pdfrwt>
<pdfrwt beam="2">  1       -1 0.11454618E+00 0.21431967E+03</pdfrwt>
<totfact> 0.33948207E+01</totfact>
</mgrwt>
</event>
<event>
 5    1  0.9399923E-003  0.8427985E+02  0.7546771E-02  0.1349343E+00
          1   -1    0    0  502    0  0.00000000000E+00  0.00000000000E+00  0.21561635775E+04  0.21561635775E+04  0.00000000000E+00 0. -1.
         -1   -1    0    0    0  501 -0.00000000000E+00 -0.00000000000E+00 -0.87197518402E+02  0.87197518402E+02  0.00000000000E+00 0.  1.
         25    1    1    2    0    0  0.13104492075E+03 -0.29952042903E+02  0.29787359408E+03  0.34989080322E+03  0.12500000000E+03 0.  0.
          2    1    1    2  502    0 -0.50830979862E+02  0.38362347148E+02  0.18048960853E+04  0.18060191962E+04  0.00000000000E+00 0. -1.
         -2    1    1    2    0  501 -0.80213940888E+02 -0.84103042450E+01 -0.33803620311E+02  0.87451096485E+02  0.00000000000E+00 0.  1.
<mgrwt>
<rscale>  0 0.73260832E+02</rscale>
<asrwt>0</asrwt>
<pdfrwt beam="1">  1        1 0.33171743E+00 0.63682479E+02</pdfrwt>
<pdfrwt beam="2">  1       -1 0.13415004E-01 0.84279845E+02</pdfrwt>
<totfact> 0.11718221E+02</totfact>
</mgrwt>
</event>
<event>
 5    1  0.9399923E-003  0.1434902E+03  0.7546771E-02  0.1334836E+00
          2   -1    0    0  502    0  0.00000000000E+00  0.00000000000E+00  0.59969839444E+03  0.59969839444E+03  0.00000000000E+00 0. -1.
          1   -1    0    0  501    0 -0.00000000000E+00 -0.00000000000E+00 -0.72919984990E+03  0.72919984990E+03  0.00000000000E+00 0. -1.
         25    1    1    2    0    0 -0.23590103542E+02  0.14237497911E+03 -0.19272886982E+03  0.27128683146E+03  0.12500000000E+03 0.  0.
          2    1    1    2  501    0 -0.40158053866E+02 -0.13592540203E+02 -0.48704467015E+03  0.48888642563E+03  0.00000000000E+00 0. -1.
          1    1    1    2  502    0  0.63748157408E+02 -0.12878243891E+03  0.55027208451E+03  0.56872498726E+03  0.00000000000E+00 0. -1.
<mgrwt>
<rscale>  0 0.77996294E+02</rscale>
<asrwt>0</asrwt>
<pdfrwt beam="1">  1        2 0.92261291E-01 0.14349024E+03</pdfrwt>
<pdfrwt beam="2">  1        1 0.11218459E+00 0.42396066E+02</pdfrwt>
<totfact> 0.20200103E+02</totfact>
</mgrwt>
</event>
<event>
 5    1  0.9399923E-003  0.6219787E+02  0.7546771E-02  0.1494275E+00
          2   -1    0    0  502    0  0.00000000000E+00  0.00000000000E+00  0.11878482607E+04  0.11878482607E+04  0.00000000000E+00 0. -1.
          1   -1    0    0  501    0 -0.00000000000E+00 -0.00000000000E+00 -0.17343609927E+03  0.17343609927E+03  0.00000000000E+00 0. -1.
         25    1    1    2    0    0  0.37356230975E+02 -0.17047491149E+02  0.95491869609E+02  0.16257245187E+03  0.12500000000E+03 0.  0.
          2    1    1    2  501    0  0.70869347093E+01 -0.27403331103E+02 -0.13752029228E+03  0.14040298425E+03  0.00000000000E+00 0. -1.
          1    1    1    2  502    0 -0.44443165685E+02  0.44450822253E+02  0.10564405840E+04  0.10583089238E+04  0.00000000000E+00 0. -1.
<mgrwt>
<rscale>  0 0.41958362E+02</rscale>
<asrwt>0</asrwt>
<pdfrwt beam="1">  1        2 0.18274588E+00 0.62197866E+02</pdfrwt>
<pdfrwt beam="2">  1        1 0.26682478E-01 0.28304897E+02</pdfrwt>
<totfact> 0.50366916E+02</totfact>
</mgrwt>
</event>
<event>
 5    1  0.9399923E-003  0.5611937E+02  0.7546771E-02  0.1415276E+00
          1   -1    0    0  501    0 -0.00000000000E+00  0.00000000000E+00  0.12976372446E+03  0.12976372446E+03  0.00000000000E+00 0. -1.
          2   -1    0    0  502    0  0.00000000000E+00 -0.00000000000E+00 -0.89174351735E+03  0.89174351735E+03  0.00000000000E+00 0. -1.
         25    1    1    2    0    0 -0.47469768994E+02 -0.42299981016E+02 -0.48184116026E+02  0.14828815327E+03  0.12500000000E+03 0.  0.
          2    1    1    2  501    0 -0.63416397823E+01  0.57608866820E+02  0.68043513061E+02  0.89380745136E+02  0.00000000000E+00 0. -1.
          1    1    1    2  502    0  0.53811408776E+02 -0.15308885804E+02 -0.78183918993E+03  0.78383834341E+03  0.00000000000E+00 0. -1.
<mgrwt>
<rscale>  0 0.56032952E+02</rscale>
<asrwt>0</asrwt>
<pdfrwt beam="2">  1        2 0.13719131E+00 0.55946668E+02</pdfrwt>
<pdfrwt beam="1">  1        1 0.19963650E-01 0.56119369E+02</pdfrwt>
<totfact> 0.10875299E+03</totfact>
</mgrwt>
</event>
<event>
 5    1  0.9399923E-003  0.8061462E+02  0.7546771E-02  0.1354344E+00
         -2   -1    0    0    0  501 -0.00000000000E+00  0.00000000000E+00  0.14133527733E+02  0.14133527733E+02  0.00000000000E+00 0.  1.
          2   -1    0    0  502    0  0.00000000000E+00 -0.00000000000E+00 -0.34262645905E+04  0.34262645905E+04  0.00000000000E+00 0. -1.
         25    1    1    2    0    0 -0.17010238229E+02 -0.31647562099E+02 -0.79824707990E+03  0.80877334090E+03  0.12500000000E+03 0.  0.
          1    1    1    2  502    0  0.19045435254E+01 -0.63776178277E+02 -0.23457319480E+04  0.23465995397E+04  0.00000000000E+00 0. -1.
         -1    1    1    2    0  501  0.15105694704E+02  0.95423740376E+02 -0.26815203489E+03  0.28502523758E+03  0.00000000000E+00 0.  1.
<mgrwt>
<rscale>  0 0.71718788E+02</rscale>
<asrwt>0</asrwt>
<pdfrwt beam="2">  1        2 0.52711762E+00 0.63804610E+02</pdfrwt>
<pdfrwt beam="1">  1       -2 0.21743889E-02 0.80614623E+02</pdfrwt>
<totfact> 0.86991602E+02</totfact>
</mgrwt>
</event>
<event>
 5    1  0.9399923E-003  0.6038141E+02  0.7546771E-02  0.1456811E+00
          1   -1    0    0  501    0 -0.00000000000E+00  0.00000000000E+00  0.47620289182E+02  0.47620289182E+02  0.00000000000E+00 0. -1.
          2   -1    0    0  502    0  0.00000000000E+00 -0.00000000000E+00 -0.95702847986E+03  0.95702847986E+03  0.00000000000E+00 0. -1.
         25    1    1    2    0    0 -0.28178214413E+02  0.49854984435E+02 -0.41583306534E+03  0.43797450778E+03  0.12500000000E+03 0.  0.
          2    1    1    2  501    0  0.56274894496E+02 -0.24190636112E+02  0.96525376529E+01  0.62009854936E+02  0.00000000000E+00 0. -1.
          3    1    1    2  502    0 -0.28096680082E+02 -0.25664348323E+02 -0.50322766299E+03  0.50466440632E+03  0.00000000000E+00 0. -1.
<mgrwt>
<rscale>  0 0.47934690E+02</rscale>
<asrwt>0</asrwt>
<pdfrwt beam="2">  1        2 0.14723515E+00 0.38053675E+02</pdfrwt>
<pdfrwt beam="1">  1        1 0.73261984E-02 0.60381408E+02</pdfrwt>
<totfact> 0.36584236E+03</totfact>
</mgrwt>
</event>
<event>
 5    1  0.9399923E-003  0.6260619E+02  0.7546771E-02  0.1450101E+00
         -2   -1    0    0    0  501 -0.00000000000E+00  0.00000000000E+00  0.41767740514E+02  0.41767740514E+02  0.00000000000E+00 0.  1.
          2   -1    0    0  502    0  0.00000000000E+00 -0.00000000000E+00 -0.96260956993E+03  0.96260956993E+03  0.00000000000E+00 0. -1.
         25    1    1    2    0    0 -0.25725249007E+02 -0.31871263584E+02 -0.61140211723E+03  0.62539196895E+03  0.12500000000E+03 0.  0.
          1    1    1    2  502    0  0.61406350013E+02  0.46469341186E+02 -0.32748638978E+03  0.33641860083E+03  0.00000000000E+00 0. -1.
         -1    1    1    2    0  501 -0.35681101006E+02 -0.14598077602E+02  0.18046677591E+02  0.42566740664E+02  0.00000000000E+00 0.  1.
<mgrwt>
<rscale>  0 0.49128244E+02</rscale>
<asrwt>0</asrwt>
<pdfrwt beam="2">  1        2 0.14809378E+00 0.62606193E+02</pdfrwt>
<pdfrwt beam="1">  1       -2 0.64258064E-02 0.38551846E+02</pdfrwt>
<totfact> 0.33411269E+03</totfact>
</mgrwt>
</event>
<event>
 5    1  0.9399923E-003  0.2193743E+03  0.7546771E-02  0.1337213E+00
          1   -1    0    0  501    0 -0.00000000000E+00  0.00000000000E+00  0.18958279373E+04  0.18958279373E+04  0.00000000000E+00 0. -1.
          2   -1    0    0  502    0  0.00000000000E+00 -0.00000000000E+00 -0.35920596569E+02  0.35920596569E+02  0.00000000000E+00 0. -1.
         25    1    1    2    0    0  0.48666068631E+02 -0.19678410820E+03  0.72569026298E+03  0.76376942153E+03  0.12500000000E+03 0.  0.
          2    1    1    2  501    0 -0.57927305216E+02  0.22231865989E+03  0.11026730537E+04  0.11263520864E+04  0.00000000000E+00 0. -1.
          1    1    1    2  502    0  0.92612365846E+01 -0.25534551688E+02  0.31544024017E+02  0.41627025886E+02  0.00000000000E+00 0. -1.
<mgrwt>
<rscale>  0 0.77192508E+02</rscale>
<asrwt>0</asrwt>
<pdfrwt beam="2">  1        2 0.55262471E-02 0.27162177E+02</pdfrwt>
<pdfrwt beam="1">  1        1 0.29166576E+00 0.21937430E+03</pdfrwt>
<totfact> 0.61080277E+02</totfact>
</mgrwt>
</event>
<event>
 5    1  0.9399923E-003  0.1660261E+03  0.7546771E-02  0.1308951E+00
          1   -1    0    0  501    0 -0.00000000000E+00  0.00000000000E+00  0.52937441693E+03  0.52937441693E+03  0.00000000000E+00 0. -1.
          2   -1    0    0  502    0  0.00000000000E+00 -0.00000000000E+00 -0.13356673604E+04  0.13356673604E+04  0.00000000000E+00 0. -1.
         25    1    1    2    0    0 -0.10114829929E+03  0.11119116348E+03  0.10775077234E+03  0.22322563076E+03  0.12500000000E+03 0.  0.
          2    1    1    2  501    0 -0.40163049869E+02 -0.22720286639E+02  0.35695709536E+03  0.35992728422E+03  0.00000000000E+00 0. -1.
          1    1    1    2  502    0  0.14131134916E+03 -0.88470876845E+02 -0.12710008112E+04  0.12818888624E+04  0.00000000000E+00 0. -1.
<mgrwt>
<rscale>  0 0.87527900E+02</rscale>
<asrwt>0</asrwt>
<pdfrwt beam="2">  1        2 0.20548729E+00 0.16602612E+03</pdfrwt>
<pdfrwt beam="1">  1        1 0.81442218E-01 0.46144144E+02</pdfrwt>
<totfact> 0.10423969E+02</totfact>
</mgrwt>
</event>
<event>
 5    1  0.9399923E-003  0.6500700E+02  0.7546771E-02  0.1404458E+00
          2   -1    0    0  502    0  0.00000000000E+00  0.00000000000E+00  0.23819661666E+04  0.23819661666E+04  0.00000000000E+00 0. -1.
         -2   -1    0    0    0  501 -0.00000000000E+00 -0.00000000000E+00 -0.90743898189E+02  0.90743898189E+02  0.00000000000E+00 0.  1.
         25    1    1    2    0    0  0.53300521225E+02 -0.10337831294E+03  0.63895610134E+03  0.66137577865E+03  0.12500000000E+03 0.  0.
          1    1    1    2  502    0 -0.20769798138E+02  0.48274243967E+02  0.17184622830E+04  0.17192656588E+04  0.00000000000E+00 0. -1.
         -1    1    1    2    0  501 -0.32530723087E+02  0.55104068972E+02 -0.66196116021E+02  0.92068627328E+02  0.00000000000E+00 0.  1.
<mgrwt>
<rscale>  0 0.58449072E+02</rscale>
<asrwt>0</asrwt>
<pdfrwt beam="1">  1        2 0.36645629E+00 0.52552708E+02</pdfrwt>
<pdfrwt beam="2">  1       -2 0.13960602E-01 0.65007001E+02</pdfrwt>
<totfact> 0.20678528E+02</totfact>
</mgrwt>
</event>
<event>
 5    1  0.9399923E-003  0.1280587E+03  0.7546771E-02  0.1243507E+00
          2   -1    0    0  502    0  0.00000000000E+00  0.00000000000E+00  0.14431965011E+04  0.14431965011E+04  0.00000000000E+00 0. -1.
          1   -1    0    0  501    0 -0.00000000000E+00 -0.00000000000E+00 -0.14264553810E+04  0.14264553810E+04  0.00000000000E+00 0. -1.
         25    1    1    2    0    0 -0.21407870282E+03  0.10061797091E+03 -0.84798472341E+02  0.28065895315E+03  0.12500000000E+03 0.  0.
          2    1    1    2  501    0  0.94370380374E+02 -0.60288471630E+02 -0.12382289933E+04  0.12432825537E+04  0.00000000000E+00 0. -1.
          1    1    1    2  502    0  0.11970832244E+03 -0.40329499280E+02  0.13397685857E+04  0.13457103753E+04  0.00000000000E+00 0. -1.
<mgrwt>
<rscale>  0 0.11975204E+03</rscale>
<asrwt>0</asrwt>
<pdfrwt beam="1">  1        2 0.22203023E+00 0.12805867E+03</pdfrwt>
<pdfrwt beam="2">  1        1 0.21945468E+00 0.11198423E+03</pdfrwt>
<totfact> 0.18482701E+01</totfact>
</mgrwt>
</event>
<event>
 5    1  0.9399923E-003  0.3909928E+02  0.7546771E-02  0.1536068E+00
          1   -1    0    0  502    0  0.00000000000E+00  0.00000000000E+00  0.14670298802E+03  0.14670298802E+03  0.00000000000E+00 0. -1.
         -1   -1    0    0    0  501 -0.00000000000E+00 -0.00000000000E+00 -0.21362447432E+03  0.21362447432E+03  0.00000000000E+00 0.  1.
         25    1    1    2    0    0 -0.37796033517E+01 -0.10029048972E+02  0.28323100477E+02  0.12861596031E+03  0.12500000000E+03 0.  0.
          2    1    1    2  502    0 -0.33714899490E+02 -0.42749197322E+01  0.61307960324E+02  0.70097327948E+02  0.00000000000E+00 0. -1.
         -2    1    1    2    0  501  0.37494502842E+02  0.14303968704E+02 -0.15655254709E+03  0.16161417409E+03  0.00000000000E+00 0.  1.
<mgrwt>
<rscale>  0 0.36452474E+02</rscale>
<asrwt>0</asrwt>
<pdfrwt beam="1">  1        1 0.22569691E-01 0.33984841E+02</pdfrwt>
<pdfrwt beam="2">  1       -1 0.32865304E-01 0.39099283E+02</pdfrwt>
<totfact> 0.17367973E+03</totfact>
</mgrwt>
</event>
<event>
 5    1  0.9399923E-003  0.1200693E+03  0.7546771E-02  0.1259075E+00
          1   -1    0    0  501    0 -0.00000000000E+00  0.00000000000E+00  0.49705035754E+02  0.49705035754E+02  0.00000000000E+00 0. -1.
          2   -1    0    0  502    0  0.00000000000E+00 -0.00000000000E+00 -0.22203797101E+04  0.22203797101E+04  0.00000000000E+00 0. -1.
         25    1    1    2    0    0 -0.19790988099E+02  0.51076884232E+02 -0.45804151677E+03  0.47794096121E+03  0.12500000000E+03 0.  0.
          2    1    1    2  501    0 -0.98014765869E+02  0.29182996887E+02 -0.34444399739E+02  0.10791180801E+03  0.00000000000E+00 0. -1.
          1    1    1    2  502    0  0.11780575397E+03 -0.80259881119E+02 -0.16781887578E+04  0.16842319766E+04  0.00000000000E+00 0. -1.
<mgrwt>
<rscale>  0 0.11081124E+03</rscale>
<asrwt>0</asrwt>
<pdfrwt beam="2">  1        2 0.34159688E+00 0.12006933E+03</pdfrwt>
<pdfrwt beam="1">  1        1 0.76469285E-02 0.10226701E+03</pdfrwt>
<totfact> 0.73271788E+02</totfact>
</mgrwt>
</event>
<event>
 5    1  0.9399923E-003  0.1384056E+03  0.7546771E-02  0.1368791E+00
          1   -1    0    0  501    0 -0.00000000000E+00  0.00000000000E+00  0.36396206581E+03  0.36396206581E+03  0.00000000000E+00 0. -1.
          2   -1    0    0  502    0  0.00000000000E+00 -0.00000000000E+00 -0.93765976168E+03  0.93765976168E+03  0.00000000000E+00 0. -1.
         25    1    1    2    0    0 -0.26161056034E+02  0.14668576317E+03  0.20774234215E+03  0.28457511256E+03  0.12500000000E+03 0.  0.
          2    1    1    2  501    0 -0.20724852429E+01 -0.12974918315E+03  0.81658293385E+02  0.15332065289E+03  0.00000000000E+00 0. -1.
          1    1    1    2  502    0  0.28233541277E+02 -0.16936580014E+02 -0.86309833140E+03  0.86372606204E+03  0.00000000000E+00 0. -1.
<mgrwt>
<rscale>  0 0.67504424E+02</rscale>
<asrwt>0</asrwt>
<pdfrwt beam="2">  1        2 0.14425535E+00 0.32923861E+02</pdfrwt>
<pdfrwt beam="1">  1        1 0.55994164E-01 0.13840562E+03</pdfrwt>
<totfact> 0.29889754E+02</totfact>
</mgrwt>
</event>
<event>
 5    1  0.9399923E-003  0.5862993E+02  0.7546771E-02  0.1458073E+00
          2   -1    0    0  502    0  0.00000000000E+00  0.00000000000E+00  0.23597542350E+03  0.23597542350E+03  0.00000000000E+00 0. -1.
          1   -1    0    0  501    0 -0.00000000000E+00 -0.00000000000E+00 -0.36319107298E+03  0.36319107298E+03  0.00000000000E+00 0. -1.
         25    1    1    2    0    0 -0.45116096267E+01  0.30192364573E+02 -0.11549781904E+03  0.17290656351E+03  0.12500000000E+03 0.  0.
          2    1    1    2  501    0 -0.36580732179E+02  0.13027791704E+02 -0.21290638027E+03  0.21641857611E+03  0.00000000000E+00 0. -1.
          1    1    1    2  502    0  0.41092341806E+02 -0.43220156277E+02  0.20118854984E+03  0.20984135687E+03  0.00000000000E+00 0. -1.
<mgrwt>
<rscale>  0 0.47714557E+02</rscale>
<asrwt>0</asrwt>
<pdfrwt beam="1">  1        2 0.36303911E-01 0.58629929E+02</pdfrwt>
<pdfrwt beam="2">  1        1 0.55875550E-01 0.38831345E+02</pdfrwt>
<totfact> 0.13142988E+03</totfact>
</mgrwt>
</event>
<event>
 5    1  0.9399923E-003  0.5592868E+02  0.7546771E-02  0.1553069E+00
          2   -1    0    0  502    0  0.00000000000E+00  0.00000000000E+00  0.12935784699E+04  0.12935784699E+04  0.00000000000E+00 0. -1.
         -2   -1    0    0    0  501 -0.00000000000E+00 -0.00000000000E+00 -0.87102354215E+02  0.87102354215E+02  0.00000000000E+00 0.  1.
         25    1    1    2    0    0  0.13616466941E+02  0.37019220553E+02  0.17615749853E+03  0.21957298366E+03  0.12500000000E+03 0.  0.
          1    1    1    2  502    0  0.18850685522E+02  0.98821079894E+01  0.10831494713E+04  0.10833585656E+04  0.00000000000E+00 0. -1.
         -1    1    1    2    0  501 -0.32467152462E+02 -0.46901328542E+02 -0.52830854105E+02  0.77749274939E+02  0.00000000000E+00 0.  1.
<mgrwt>
<rscale>  0 0.34501892E+02</rscale>
<asrwt>0</asrwt>
<pdfrwt beam="1">  1        2 0.19901206E+00 0.21283900E+02</pdfrwt>
<pdfrwt beam="2">  1       -2 0.13400363E-01 0.55928685E+02</pdfrwt>
<totfact> 0.80866185E+02</totfact>
</mgrwt>
</event>
<event>
 5    1  0.9399923E-003  0.1920664E+03  0.7546771E-02  0.1220860E+00
          1   -1    0    0  501    0 -0.00000000000E+00  0.00000000000E+00  0.37009189752E+03  0.37009189752E+03  0.00000000000E+00 0. -1.
          2   -1    0    0  502    0  0.00000000000E+00 -0.00000000000E+00 -0.16150434812E+04  0.16150434812E+04  0.00000000000E+00 0. -1.
         25    1    1    2    0    0 -0.14271378079E+03  0.39319976015E+02 -0.15122458600E+03  0.24577867921E+03  0.12500000000E+03 0.  0.
          2    1    1    2  501    0 -0.54549311945E+02 -0.76864940070E+02  0.30862712880E+03  0.32269885509E+03  0.00000000000E+00 0. -1.
          1    1    1    2  502    0  0.19726309273E+03  0.37544964055E+02 -0.14023541265E+04  0.14166578444E+04  0.00000000000E+00 0. -1.
<mgrwt>
<rscale>  0 0.13454760E+03</rscale>
<asrwt>0</asrwt>
<pdfrwt beam="2">  1        2 0.24846823E+00 0.19206639E+03</pdfrwt>
<pdfrwt beam="1">  1        1 0.56937214E-01 0.94254159E+02</pdfrwt>
<totfact> 0.11315272E+02</totfact>
</mgrwt>
</event>
<event>
 5    1  0.9399923E-003  0.1440228E+03  0.7546771E-02  0.1338066E+00
         -2   -1    0    0    0  501 -0.00000000000E+00  0.00000000000E+00  0.88327805209E+02  0.88327805209E+02  0.00000000000E+00 0.  1.
          2   -1    0    0  502    0  0.00000000000E+00 -0.00000000000E+00 -0.15629851618E+04  0.15629851618E+04  0.00000000000E+00 0. -1.
         25    1    1    2    0    0  0.11734997404E+03 -0.85414129307E+02 -0.27334515863E+03  0.33378011570E+03  0.12500000000E+03 0.  0.
          1    1    1    2  502    0 -0.28701772248E+02 -0.29372772247E+02 -0.11680021749E+04  0.11687239333E+04  0.00000000000E+00 0. -1.
         -1    1    1    2    0  501 -0.88648201791E+02  0.11478690155E+03 -0.33310022972E+02  0.14880891801E+03  0.00000000000E+00 0.  1.
<mgrwt>
<rscale>  0 0.76906934E+02</rscale>
<asrwt>0</asrwt>
<pdfrwt beam="2">  1        2 0.24045925E+00 0.41067645E+02</pdfrwt>
<pdfrwt beam="1">  1       -2 0.13588893E-01 0.14402278E+03</pdfrwt>
<totfact> 0.58307219E+02</totfact>
</mgrwt>
</event>
<event>
 5    1  0.9399923E-003  0.1234003E+03  0.7546771E-02  0.1333142E+00
         -2   -1    0    0    0  501 -0.00000000000E+00  0.00000000000E+00  0.99455380042E+02  0.99455380042E+02  0.00000000000E+00 0.  1.
          2   -1    0    0  502    0  0.00000000000E+00 -0.00000000000E+00 -0.13701787616E+04  0.13701787616E+04  0.00000000000E+00 0. -1.
         25    1    1    2    0    0  0.52639207784E+02 -0.11984205152E+03 -0.16141003180E+03  0.24251020983E+03  0.12500000000E+03 0.  0.
          1    1    1    2  502    0 -0.89095643366E+02  0.85574082030E+02 -0.11536664221E+04  0.11602616819E+04  0.00000000000E+00 0. -1.
         -1    1    1    2    0  501  0.36456435582E+02  0.34267969487E+02  0.44353072334E+02  0.66862249839E+02  0.00000000000E+00 0.  1.
<mgrwt>
<rscale>  0 0.78575869E+02</rscale>
<asrwt>0</asrwt>
<pdfrwt beam="2">  1        2 0.21079674E+00 0.12340031E+03</pdfrwt>
<pdfrwt beam="1">  1       -2 0.15300827E-01 0.50033643E+02</pdfrwt>
<totfact> 0.52048463E+02</totfact>
</mgrwt>
</event>
<event>
 5    1  0.9399923E-003  0.1198705E+03  0.7546771E-02  0.1384264E+00
          2   -1    0    0  502    0  0.00000000000E+00  0.00000000000E+00  0.12220059354E+03  0.12220059354E+03  0.00000000000E+00 0. -1.
          1   -1    0    0  501    0 -0.00000000000E+00 -0.00000000000E+00 -0.72581124614E+03  0.72581124614E+03  0.00000000000E+00 0. -1.
         25    1    1    2    0    0  0.14036457170E+03 -0.54260081833E+02 -0.37162575046E+03  0.41997269896E+03  0.12500000000E+03 0.  0.
          2    1    1    2  501    0 -0.32102739786E+02  0.95254330162E+01 -0.29372281564E+03  0.29562545933E+03  0.00000000000E+00 0. -1.
          1    1    1    2  502    0 -0.10826183192E+03  0.44734648817E+02  0.61737913494E+02  0.13241368138E+03  0.00000000000E+00 0. -1.
<mgrwt>
<rscale>  0 0.63356110E+02</rscale>
<asrwt>0</asrwt>
<pdfrwt beam="1">  1        2 0.18800091E-01 0.11987049E+03</pdfrwt>
<pdfrwt beam="2">  1        1 0.11166327E+00 0.33486113E+02</pdfrwt>
<totfact> 0.11540343E+03</totfact>
</mgrwt>
</event>
<event>
 5    1  0.9399923E-003  0.4396431E+02  0.7546771E-02  0.1554464E+00
          1   -1    0    0  501    0 -0.00000000000E+00  0.00000000000E+00  0.95743367215E+03  0.95743367215E+03  0.00000000000E+00 0. -1.
          2   -1    0    0  502    0  0.00000000000E+00 -0.00000000000E+00 -0.88432893045E+02  0.88432893045E+02  0.00000000000E+00 0. -1.
         25    1    1    2    0    0 -0.86091556485E+01  0.15801372372E+02  0.17963535135E+03  0.21958520074E+03  0.12500000000E+03 0.  0.
          2    1    1    2  501    0  0.21762196463E+02 -0.39192768821E+02  0.75450234716E+03  0.75583295654E+03  0.00000000000E+00 0. -1.
          1    1    1    2  502    0 -0.13153040814E+02  0.23391396449E+02 -0.65136919396E+02  0.70448407923E+02  0.00000000000E+00 0. -1.
<mgrwt>
<rscale>  0 0.34348466E+02</rscale>
<asrwt>0</asrwt>
<pdfrwt beam="2">  1        2 0.13605061E-01 0.26835795E+02</pdfrwt>
<pdfrwt beam="1">  1        1 0.14729748E+00 0.43964306E+02</pdfrwt>
<totfact> 0.10096722E+03</totfact>
</mgrwt>
</event>
<event>
 5    1  0.9399923E-003  0.9956221E+02  0.7546771E-02  0.1316204E+00
          2   -1    0    0  502    0  0.00000000000E+00  0.00000000000E+00  0.10998272829E+04  0.10998272829E+04  0.00000000000E+00 0. -1.
          1   -1    0    0  501    0 -0.00000000000E+00 -0.00000000000E+00 -0.16108829432E+03  0.16108829432E+03  0.00000000000E+00 0. -1.
         25    1    1    2    0    0  0.64846593940E+02 -0.91029219570E+02 -0.72848129773E+02  0.18282026576E+03  0.12500000000E+03 0.  0.
          2    1    1    2  501    0  0.69848366714E+01  0.96838799097E+02  0.41919532577E+02  0.10575343099E+03  0.00000000000E+00 0. -1.
          1    1    1    2  502    0 -0.71831430611E+02 -0.58095795270E+01  0.96966758575E+03  0.97234188045E+03  0.00000000000E+00 0. -1.
<mgrwt>
<rscale>  0 0.84705655E+02</rscale>
<asrwt>0</asrwt>
<pdfrwt beam="1">  1        2 0.16920419E+00 0.72065981E+02</pdfrwt>
<pdfrwt beam="2">  1        1 0.24782815E-01 0.99562206E+02</pdfrwt>
<totfact> 0.63423407E+02</totfact>
</mgrwt>
</event>
<event>
 5    1  0.9399923E-003  0.2860375E+02  0.7546771E-02  0.1627555E+00
          2   -1    0    0  502    0  0.00000000000E+00  0.00000000000E+00  0.12951563995E+04  0.12951563995E+04  0.00000000000E+00 0. -1.
          1   -1    0    0  501    0 -0.00000000000E+00 -0.00000000000E+00 -0.12482684638E+03  0.12482684638E+03  0.00000000000E+00 0. -1.
         25    1    1    2    0    0 -0.51406555360E+02 -0.83306177118E-02  0.64514265230E+03  0.65914844748E+03  0.12500000000E+03 0.  0.
          2    1    1    2  501    0  0.26839909582E+02 -0.97363047163E+01 -0.11581799346E+03  0.11928530498E+03  0.00000000000E+00 0. -1.
          1    1    1    2  502    0  0.24566645778E+02  0.97446353340E+01  0.64100489432E+03  0.64154949344E+03  0.00000000000E+00 0. -1.
<mgrwt>
<rscale>  0 0.27494744E+02</rscale>
<asrwt>0</asrwt>
<pdfrwt beam="1">  1        2 0.19925482E+00 0.26428734E+02</pdfrwt>
<pdfrwt beam="2">  1        1 0.19204131E-01 0.28603751E+02</pdfrwt>
<totfact> 0.69867313E+02</totfact>
</mgrwt>
</event>
<event>
 5    1  0.9399923E-003  0.9934546E+02  0.7546771E-02  0.1369277E+00
          2   -1    0    0  502    0  0.00000000000E+00  0.00000000000E+00  0.85514238702E+03  0.85514238702E+03  0.00000000000E+00 0. -1.
          1   -1    0    0  501    0 -0.00000000000E+00 -0.00000000000E+00 -0.39281245293E+02  0.39281245293E+02  0.00000000000E+00 0. -1.
         25    1    1    2    0    0 -0.36860166232E+02 -0.61211798955E+02  0.26001095769E+03  0.29721415563E+03  0.12500000000E+03 0.  0.
          2    1    1    2  501    0  0.57466716845E+02  0.10198474108E+03  0.15744927143E+03  0.19619781862E+03  0.00000000000E+00 0. -1.
          1    1    1    2  502    0 -0.20606550613E+02 -0.40772942125E+02  0.39840091261E+03  0.40101165806E+03  0.00000000000E+00 0. -1.
<mgrwt>
<rscale>  0 0.67368658E+02</rscale>
<asrwt>0</asrwt>
<pdfrwt beam="1">  1        2 0.13156035E+00 0.45684382E+02</pdfrwt>
<pdfrwt beam="2">  1        1 0.60432692E-02 0.99345462E+02</pdfrwt>
<totfact> 0.56134301E+03</totfact>
</mgrwt>
</event>
<event>
 5    1  0.9399923E-003  0.5895429E+02  0.7546771E-02  0.1433040E+00
          1   -1    0    0  501    0 -0.00000000000E+00  0.00000000000E+00  0.17141310066E+04  0.17141310066E+04  0.00000000000E+00 0. -1.
          2   -1    0    0  502    0  0.00000000000E+00 -0.00000000000E+00 -0.67737642949E+02  0.67737642949E+02  0.00000000000E+00 0. -1.
         25    1    1    2    0    0 -0.38020093855E+02  0.61827891832E+02  0.49199506548E+03  0.51278880663E+03  0.12500000000E+03 0.  0.
          2    1    1    2  501    0  0.55971636944E+02 -0.18939481109E+02  0.12014674463E+04  0.12029195952E+04  0.00000000000E+00 0. -1.
          1    1    1    2  502    0 -0.17951543088E+02 -0.42888410723E+02 -0.47069148105E+02  0.66160247709E+02  0.00000000000E+00 0. -1.
<mgrwt>
<rscale>  0 0.52354648E+02</rscale>
<asrwt>0</asrwt>
<pdfrwt beam="2">  1        2 0.10421177E-01 0.46493803E+02</pdfrwt>
<pdfrwt beam="1">  1        1 0.26371243E+00 0.58954291E+02</pdfrwt>
<totfact> 0.45200043E+02</totfact>
</mgrwt>
</event>
<event>
 5    1  0.1193094E-002  0.3791319E+02  0.7546771E-02  0.1580322E+00
          2   -1    0    0  502    0  0.00000000000E+00  0.00000000000E+00  0.15054350851E+04  0.15054350851E+04  0.00000000000E+00 0. -1.
          1   -1    0    0  501    0 -0.00000000000E+00 -0.00000000000E+00 -0.14772192926E+04  0.14772192926E+04  0.00000000000E+00 0. -1.
         25    1    1    2    0    0  0.13390771208E+02 -0.29430800879E+02 -0.41723566557E+03  0.43675632270E+03  0.12500000000E+03 0.  0.
          2    1    1    2  501    0 -0.35444330625E+02  0.14816838493E+02 -0.10497549243E+04  0.10504576338E+04  0.00000000000E+00 0. -1.
          1    1    1    2  502    0  0.22053559418E+02  0.14613962386E+02  0.14952063824E+04  0.14954404212E+04  0.00000000000E+00 0. -1.
<mgrwt>
<rscale>  0 0.31670755E+02</rscale>
<asrwt>0</asrwt>
<pdfrwt beam="1">  1        2 0.23160540E+00 0.26456141E+02</pdfrwt>
<pdfrwt beam="2">  1        1 0.22726451E+00 0.37913190E+02</pdfrwt>
<totfact> 0.20284530E+01</totfact>
</mgrwt>
</event>
<event>
 5    1  0.9399923E-003  0.5089196E+02  0.7546771E-02  0.1482118E+00
          1   -1    0    0  501    0 -0.00000000000E+00  0.00000000000E+00  0.57210013614E+02  0.57210013614E+02  0.00000000000E+00 0. -1.
          2   -1    0    0  502    0  0.00000000000E+00 -0.00000000000E+00 -0.14900988467E+04  0.14900988467E+04  0.00000000000E+00 0. -1.
         25    1    1    2    0    0  0.75106396181E+02 -0.42791185015E+02 -0.39654862474E+03  0.42467383725E+03  0.12500000000E+03 0.  0.
          2    1    1    2  501    0 -0.39785104451E+02  0.29731120961E+02  0.28410579102E+02  0.57218485603E+02  0.00000000000E+00 0. -1.
          1    1    1    2  502    0 -0.35321291730E+02  0.13060064054E+02 -0.10647507874E+04  0.10654165375E+04  0.00000000000E+00 0. -1.
<mgrwt>
<rscale>  0 0.43777989E+02</rscale>
<asrwt>0</asrwt>
<pdfrwt beam="2">  1        2 0.22924598E+00 0.37658451E+02</pdfrwt>
<pdfrwt beam="1">  1        1 0.88015404E-02 0.50891959E+02</pdfrwt>
<totfact> 0.15026231E+03</totfact>
</mgrwt>
</event>
<event>
 5    1  0.9399923E-003  0.6218408E+02  0.7546771E-02  0.1535669E+00
         -1   -1    0    0    0  501 -0.00000000000E+00  0.00000000000E+00  0.68045805822E+02  0.68045805822E+02  0.00000000000E+00 0.  1.
          1   -1    0    0  502    0  0.00000000000E+00 -0.00000000000E+00 -0.38279358713E+03  0.38279358713E+03  0.00000000000E+00 0. -1.
         25    1    1    2    0    0 -0.72189543425E+02 -0.38366798338E+02 -0.90456197727E+02  0.17461576418E+03  0.12500000000E+03 0.  0.
          2    1    1    2  502    0  0.54293419497E+02  0.26588132299E+02 -0.24136967063E+03  0.24882528425E+03  0.00000000000E+00 0. -1.
         -2    1    1    2    0  501  0.17896123928E+02  0.11778666039E+02  0.17078087049E+02  0.27398344522E+02  0.00000000000E+00 0.  1.
<mgrwt>
<rscale>  0 0.36500156E+02</rscale>
<asrwt>0</asrwt>
<pdfrwt beam="2">  1        1 0.58891322E-01 0.62184078E+02</pdfrwt>
<pdfrwt beam="1">  1       -1 0.10468585E-01 0.21424477E+02</pdfrwt>
<totfact> 0.30764720E+03</totfact>
</mgrwt>
</event>
<event>
 5    1  0.9399923E-003  0.1075262E+03  0.7546771E-02  0.1294668E+00
          2   -1    0    0  502    0  0.00000000000E+00  0.00000000000E+00  0.46467368651E+03  0.46467368651E+03  0.00000000000E+00 0. -1.
          1   -1    0    0  501    0 -0.00000000000E+00 -0.00000000000E+00 -0.77006003858E+03  0.77006003858E+03  0.00000000000E+00 0. -1.
         25    1    1    2    0    0  0.64369273520E+01 -0.59216579482E+02  0.21534285374E+03  0.25601871412E+03  0.12500000000E+03 0.  0.
          2    1    1    2  501    0  0.10534245243E+03  0.21560412619E+02 -0.73033098052E+03  0.73820405362E+03  0.00000000000E+00 0. -1.
          1    1    1    2  502    0 -0.11177937978E+03  0.37656166863E+02  0.20960177470E+03  0.24051095735E+03  0.00000000000E+00 0. -1.
<mgrwt>
<rscale>  0 0.93466228E+02</rscale>
<asrwt>0</asrwt>
<pdfrwt beam="1">  1        2 0.71488260E-01 0.81244718E+02</pdfrwt>
<pdfrwt beam="2">  1        1 0.11847077E+00 0.10752620E+03</pdfrwt>
<totfact> 0.23925964E+02</totfact>
</mgrwt>
</event>
<event>
 5    1  0.9399923E-003  0.3591650E+02  0.7546771E-02  0.1611381E+00
          2   -1    0    0  502    0  0.00000000000E+00  0.00000000000E+00  0.45504273518E+02  0.45504273518E+02  0.00000000000E+00 0. -1.
         -2   -1    0    0    0  501 -0.00000000000E+00 -0.00000000000E+00 -0.15533011099E+04  0.15533011099E+04  0.00000000000E+00 0.  1.
         25    1    1    2    0    0 -0.51813345797E+02 -0.11797009535E+02 -0.54357805493E+03  0.56029090127E+03  0.12500000000E+03 0.  0.
          3    1    1    2  502    0  0.29958385825E+02  0.19411218610E+02  0.28405849917E+02  0.45620089858E+02  0.00000000000E+00 0. -1.
         -1    1    1    2    0  501  0.21854959972E+02 -0.76142090747E+01 -0.99262463132E+03  0.99289439225E+03  0.00000000000E+00 0.  1.
<mgrwt>
<rscale>  0 0.28831036E+02</rscale>
<asrwt>0</asrwt>
<pdfrwt beam="1">  1        2 0.70006586E-02 0.35916496E+02</pdfrwt>
<pdfrwt beam="2">  1       -2 0.23896936E+00 0.23143367E+02</pdfrwt>
<totfact> 0.88738232E+01</totfact>
</mgrwt>
</event>
<event>
 5    1  0.9399923E-003  0.9343861E+02  0.7546771E-02  0.1302338E+00
          2   -1    0    0  502    0  0.00000000000E+00  0.00000000000E+00  0.16508264935E+03  0.16508264935E+03  0.00000000000E+00 0. -1.
          1   -1    0    0  501    0 -0.00000000000E+00 -0.00000000000E+00 -0.57310054604E+03  0.57310054604E+03  0.00000000000E+00 0. -1.
         25    1    1    2    0    0  0.15447416862E+02 -0.14337167332E+03 -0.62756829508E+02  0.20089170975E+03  0.12500000000E+03 0.  0.
          2    1    1    2  501    0  0.42176818805E+02  0.76204473222E+02 -0.41536023494E+03  0.42439383897E+03  0.00000000000E+00 0. -1.
          1    1    1    2  502    0 -0.57624235666E+02  0.67167200093E+02  0.70099167758E+02  0.11289764668E+03  0.00000000000E+00 0. -1.
<mgrwt>
<rscale>  0 0.90212449E+02</rscale>
<asrwt>0</asrwt>
<pdfrwt beam="1">  1        2 0.25397331E-01 0.93438609E+02</pdfrwt>
<pdfrwt beam="2">  1        1 0.88169315E-01 0.87097680E+02</pdfrwt>
<totfact> 0.10849800E+03</totfact>
</mgrwt>
</event>
<event>
 5    1  0.9399923E-003  0.9264507E+02  0.7546771E-02  0.1476718E+00
          2   -1    0    0  502    0  0.00000000000E+00  0.00000000000E+00  0.45548173812E+03  0.45548173812E+03  0.00000000000E+00 0. -1.
          1   -1    0    0  501    0 -0.00000000000E+00 -0.00000000000E+00 -0.11794225283E+04  0.11794225283E+04  0.00000000000E+00 0. -1.
         25    1    1    2    0    0  0.60957028501E+01  0.87993649082E+02 -0.40079677512E+03  0.42900244151E+03  0.12500000000E+03 0.  0.
          2    1    1    2  501    0 -0.21205994499E+02  0.34917494190E+01 -0.75949932797E+03  0.75980334016E+03  0.00000000000E+00 0. -1.
          1    1    1    2  502    0  0.15110291648E+02 -0.91485398501E+02  0.43635531288E+03  0.44609848479E+03  0.00000000000E+00 0. -1.
<mgrwt>
<rscale>  0 0.44621584E+02</rscale>
<asrwt>0</asrwt>
<pdfrwt beam="1">  1        2 0.70074113E-01 0.92645072E+02</pdfrwt>
<pdfrwt beam="2">  1        1 0.18144962E+00 0.21491545E+02</pdfrwt>
<totfact> 0.13865060E+02</totfact>
</mgrwt>
</event>
<event>
 5    1  0.9399923E-003  0.6546151E+02  0.7546771E-02  0.1509136E+00
          2   -1    0    0  502    0  0.00000000000E+00  0.00000000000E+00  0.63111033757E+03  0.63111033757E+03  0.00000000000E+00 0. -1.
         -2   -1    0    0    0  501 -0.00000000000E+00 -0.00000000000E+00 -0.23257518325E+02  0.23257518325E+02  0.00000000000E+00 0.  1.
         25    1    1    2    0    0 -0.30054581111E+02  0.36090747123E+02  0.27395447755E+03  0.30476527959E+03  0.12500000000E+03 0.  0.
          1    1    1    2  502    0  0.50650268844E+02 -0.48965675038E+02  0.29830945225E+03  0.30651527917E+03  0.00000000000E+00 0. -1.
         -1    1    1    2    0  501 -0.20595687733E+02  0.12874927916E+02  0.35588889448E+02  0.43087297133E+02  0.00000000000E+00 0.  1.
<mgrwt>
<rscale>  0 0.39874577E+02</rscale>
<asrwt>0</asrwt>
<pdfrwt beam="1">  1        2 0.97093885E-01 0.65461508E+02</pdfrwt>
<pdfrwt beam="2">  1       -2 0.35780802E-02 0.24288807E+02</pdfrwt>
<totfact> 0.12020219E+04</totfact>
</mgrwt>
</event>
<event>
 5    1  0.9399923E-003  0.3819713E+02  0.7546771E-02  0.1546884E+00
         -2   -1    0    0    0  501 -0.00000000000E+00  0.00000000000E+00  0.91269066197E+02  0.91269066197E+02  0.00000000000E+00 0.  1.
          2   -1    0    0  502    0  0.00000000000E+00 -0.00000000000E+00 -0.99964526643E+03  0.99964526643E+03  0.00000000000E+00 0. -1.
         25    1    1    2    0    0 -0.31766823590E+02  0.59682773924E+02 -0.12079190363E+03  0.18651232819E+03  0.12500000000E+03 0.  0.
          1    1    1    2  502    0  0.75704766919E+01 -0.31530951016E+02 -0.83975042632E+03  0.84037627971E+03  0.00000000000E+00 0. -1.
         -1    1    1    2    0  501  0.24196346898E+02 -0.28151822908E+02  0.52166129722E+02  0.64025724724E+02  0.00000000000E+00 0.  1.
<mgrwt>
<rscale>  0 0.35194033E+02</rscale>
<asrwt>0</asrwt>
<pdfrwt beam="2">  1        2 0.15379157E+00 0.32427041E+02</pdfrwt>
<pdfrwt beam="1">  1       -2 0.14041395E-01 0.38197131E+02</pdfrwt>
<totfact> 0.10091280E+03</totfact>
</mgrwt>
</event>
<event>
 5    1  0.9399923E-003  0.6705912E+02  0.7546771E-02  0.1377020E+00
          2   -1    0    0  502    0  0.00000000000E+00  0.00000000000E+00  0.57203383390E+03  0.57203383390E+03  0.00000000000E+00 0. -1.
          1   -1    0    0  501    0 -0.00000000000E+00 -0.00000000000E+00 -0.55233694241E+03  0.55233694241E+03  0.00000000000E+00 0. -1.
         25    1    1    2    0    0 -0.98595694058E+02 -0.68564779078E+02 -0.23406948157E+03  0.29126579273E+03  0.12500000000E+03 0.  0.
          2    1    1    2  501    0  0.33507846792E+02  0.53935468685E+02 -0.28410405345E+03  0.29111324904E+03  0.00000000000E+00 0. -1.
          1    1    1    2  502    0  0.65087847266E+02  0.14629310393E+02  0.53787042651E+03  0.54199173453E+03  0.00000000000E+00 0. -1.
<mgrwt>
<rscale>  0 0.65253523E+02</rscale>
<asrwt>0</asrwt>
<pdfrwt beam="1">  1        2 0.88005205E-01 0.67059123E+02</pdfrwt>
<pdfrwt beam="2">  1        1 0.84974914E-01 0.63496540E+02</pdfrwt>
<totfact> 0.30864829E+02</totfact>
</mgrwt>
</event>
<event>
 5    1  0.9399923E-003  0.8275814E+02  0.7546771E-02  0.1411996E+00
          2   -1    0    0  502    0  0.00000000000E+00  0.00000000000E+00  0.72163927664E+03  0.72163927664E+03  0.00000000000E+00 0. -1.
         -2   -1    0    0    0  501 -0.00000000000E+00 -0.00000000000E+00 -0.20316470910E+03  0.20316470910E+03  0.00000000000E+00 0.  1.
         25    1    1    2    0    0 -0.91861391799E+02 -0.22707464812E+02  0.10827006140E+03  0.19052965768E+03  0.12500000000E+03 0.  0.
          1    1    1    2  502    0  0.26915305006E+02 -0.28108092587E+02  0.56102962577E+03  0.56237775516E+03  0.00000000000E+00 0. -1.
         -1    1    1    2    0  501  0.64946086793E+02  0.50815557400E+02 -0.15082511963E+03  0.17189657290E+03  0.00000000000E+00 0.  1.
<mgrwt>
<rscale>  0 0.56750876E+02</rscale>
<asrwt>0</asrwt>
<pdfrwt beam="1">  1        2 0.11102143E+00 0.38916558E+02</pdfrwt>
<pdfrwt beam="2">  1       -2 0.31256109E-01 0.82758139E+02</pdfrwt>
<totfact> 0.40248082E+02</totfact>
</mgrwt>
</event>
<event>
 5    1  0.9399923E-003  0.7414263E+02  0.7546771E-02  0.1437425E+00
          2   -1    0    0  502    0  0.00000000000E+00  0.00000000000E+00  0.60541695259E+03  0.60541695259E+03  0.00000000000E+00 0. -1.
         -2   -1    0    0    0  501 -0.00000000000E+00 -0.00000000000E+00 -0.93448225004E+02  0.93448225004E+02  0.00000000000E+00 0.  1.
         25    1    1    2    0    0 -0.49178146271E+02 -0.12102661424E+02  0.67105698445E+02  0.15064242181E+03  0.12500000000E+03 0.  0.
          1    1    1    2  502    0  0.60607299052E+02  0.45997164814E+02  0.48702464155E+03  0.49293202913E+03  0.00000000000E+00 0. -1.
         -1    1    1    2    0  501 -0.11429152781E+02 -0.33894503390E+02 -0.42161612406E+02  0.55290726655E+02  0.00000000000E+00 0.  1.
<mgrwt>
<rscale>  0 0.51498066E+02</rscale>
<asrwt>0</asrwt>
<pdfrwt beam="1">  1        2 0.93141067E-01 0.74142632E+02</pdfrwt>
<pdfrwt beam="2">  1       -2 0.14376650E-01 0.35769581E+02</pdfrwt>
<totfact> 0.16959483E+03</totfact>
</mgrwt>
</event>
<event>
 5    1  0.9399923E-003  0.8780216E+02  0.7546771E-02  0.1376785E+00
         -2   -1    0    0    0  501 -0.00000000000E+00  0.00000000000E+00  0.24790053584E+03  0.24790053584E+03  0.00000000000E+00 0.  1.
          2   -1    0    0  502    0  0.00000000000E+00 -0.00000000000E+00 -0.24026455082E+03  0.24026455082E+03  0.00000000000E+00 0. -1.
         25    1    1    2    0    0  0.20560735939E+02  0.10255497151E+03 -0.64190227351E+02  0.17517320381E+03  0.12500000000E+03 0.  0.
          1    1    1    2  502    0 -0.44842258452E+02 -0.18710819492E+02 -0.10505354237E+03  0.11574614323E+03  0.00000000000E+00 0. -1.
         -1    1    1    2    0  501  0.24281522513E+02 -0.83844152021E+02  0.17687975474E+03  0.19724573962E+03  0.00000000000E+00 0.  1.
<mgrwt>
<rscale>  0 0.65316521E+02</rscale>
<asrwt>0</asrwt>
<pdfrwt beam="2">  1        2 0.36963777E-01 0.48589329E+02</pdfrwt>
<pdfrwt beam="1">  1       -2 0.38138544E-01 0.87802158E+02</pdfrwt>
<totfact> 0.88102104E+02</totfact>
</mgrwt>
</event>
<event>
 5    1  0.9399923E-003  0.1126879E+03  0.7546771E-02  0.1407196E+00
          1   -1    0    0  501    0 -0.00000000000E+00  0.00000000000E+00  0.11502630169E+04  0.11502630169E+04  0.00000000000E+00 0. -1.
          2   -1    0    0  502    0  0.00000000000E+00 -0.00000000000E+00 -0.24784499149E+04  0.24784499149E+04  0.00000000000E+00 0. -1.
         25    1    1    2    0    0  0.35097302593E+02  0.12092983810E+03 -0.54164691737E+03  0.56996686701E+03  0.12500000000E+03 0.  0.
          2    1    1    2  501    0  0.18516095606E+02 -0.23185304286E+02  0.11342928143E+04  0.11346808329E+04  0.00000000000E+00 0. -1.
          1    1    1    2  502    0 -0.53613398199E+02 -0.97744533817E+02 -0.19208327949E+04  0.19240652319E+04  0.00000000000E+00 0. -1.
<mgrwt>
<rscale>  0 0.57824142E+02</rscale>
<asrwt>0</asrwt>
<pdfrwt beam="2">  1        2 0.38129998E+00 0.11268792E+03</pdfrwt>
<pdfrwt beam="1">  1        1 0.17696354E+00 0.29671605E+02</pdfrwt>
<totfact> 0.93206184E+00</totfact>
</mgrwt>
</event>
<event>
 5    1  0.9399923E-003  0.1238679E+03  0.7546771E-02  0.1239989E+00
         -2   -1    0    0    0  501 -0.00000000000E+00  0.00000000000E+00  0.11180975508E+04  0.11180975508E+04  0.00000000000E+00 0.  1.
          2   -1    0    0  502    0  0.00000000000E+00 -0.00000000000E+00 -0.18410817071E+04  0.18410817071E+04  0.00000000000E+00 0. -1.
         25    1    1    2    0    0 -0.21705077120E+02  0.27956579398E+02 -0.70413838778E+02  0.14776937909E+03  0.12500000000E+03 0.  0.
          1    1    1    2  502    0 -0.58950462822E+02 -0.11676912545E+03 -0.17261744358E+04  0.17311234412E+04  0.00000000000E+00 0. -1.
         -1    1    1    2    0  501  0.80655539942E+02  0.88812546053E+02  0.10736041184E+04  0.10802864377E+04  0.00000000000E+00 0.  1.
<mgrwt>
<rscale>  0 0.12190375E+03</rscale>
<asrwt>0</asrwt>
<pdfrwt beam="2">  1        2 0.28324334E+00 0.12386788E+03</pdfrwt>
<pdfrwt beam="1">  1       -2 0.17201501E+00 0.11997077E+03</pdfrwt>
<totfact> 0.22812687E+00</totfact>
</mgrwt>
</event>
<event>
 5    1  0.9399923E-003  0.2735769E+02  0.7546771E-02  0.1659649E+00
          1   -1    0    0  501    0 -0.00000000000E+00  0.00000000000E+00  0.84216334693E+03  0.84216334693E+03  0.00000000000E+00 0. -1.
          2   -1    0    0  502    0  0.00000000000E+00 -0.00000000000E+00 -0.15319514155E+04  0.15319514155E+04  0.00000000000E+00 0. -1.
         25    1    1    2    0    0 -0.11310962364E+02  0.47813242085E+02 -0.68713111217E+02  0.15086595256E+03  0.12500000000E+03 0.  0.
          2    1    1    2  501    0  0.11455474745E+02 -0.24795241930E+02  0.80076092376E+03  0.80122661523E+03  0.00000000000E+00 0. -1.
          3    1    1    2  502    0 -0.14451238139E+00 -0.23018000155E+02 -0.14218358812E+04  0.14220221947E+04  0.00000000000E+00 0. -1.
<mgrwt>
<rscale>  0 0.25094455E+02</rscale>
<asrwt>0</asrwt>
<pdfrwt beam="2">  1        2 0.23568483E+00 0.23018454E+02</pdfrwt>
<pdfrwt beam="1">  1        1 0.12956359E+00 0.27357687E+02</pdfrwt>
<totfact> 0.53627328E+01</totfact>
</mgrwt>
</event>
<event>
 5    1  0.9399923E-003  0.1039066E+03  0.7546771E-02  0.1392471E+00
         -1   -1    0    0    0  501 -0.00000000000E+00  0.00000000000E+00  0.40651548092E+02  0.40651548092E+02  0.00000000000E+00 0.  1.
          1   -1    0    0  502    0  0.00000000000E+00 -0.00000000000E+00 -0.13526293493E+04  0.13526293493E+04  0.00000000000E+00 0. -1.
         25    1    1    2    0    0  0.66296716561E+02 -0.58221410761E+02 -0.17155245490E+03  0.22987003302E+03  0.12500000000E+03 0.  0.
          2    1    1    2  502    0 -0.52516372069E+02  0.91652337842E+02 -0.11130659531E+04  0.11180670536E+04  0.00000000000E+00 0. -1.
         -2    1    1    2    0  501 -0.13780344492E+02 -0.33430927081E+02 -0.27359393206E+02  0.45343810784E+02  0.00000000000E+00 0.  1.
<mgrwt>
<rscale>  0 0.61296275E+02</rscale>
<asrwt>0</asrwt>
<pdfrwt beam="2">  1        1 0.20809677E+00 0.10390661E+03</pdfrwt>
<pdfrwt beam="1">  1       -1 0.62540858E-02 0.36159712E+02</pdfrwt>
<totfact> 0.10258835E+03</totfact>
</mgrwt>
</event>
<event>
 5    1  0.9399923E-003  0.1074781E+03  0.7546771E-02  0.1359616E+00
         -2   -1    0    0    0  501 -0.00000000000E+00  0.00000000000E+00  0.50702619793E+02  0.50702619793E+02  0.00000000000E+00 0.  1.
          2   -1    0    0  502    0  0.00000000000E+00 -0.00000000000E+00 -0.94128932894E+03  0.94128932894E+03  0.00000000000E+00 0. -1.
         25    1    1    2    0    0  0.13408624296E+03  0.60391798788E+02 -0.27204090351E+03  0.33355290899E+03  0.12500000000E+03 0.  0.
          1    1    1    2  502    0 -0.95513822197E+02 -0.35745808788E+02 -0.60072201009E+03  0.60931731182E+03  0.00000000000E+00 0. -1.
         -1    1    1    2    0  501 -0.38572420765E+02 -0.24645990001E+02 -0.17823795550E+02  0.49121727928E+02  0.00000000000E+00 0.  1.
<mgrwt>
<rscale>  0 0.70140583E+02</rscale>
<asrwt>0</asrwt>
<pdfrwt beam="2">  1        2 0.14481376E+00 0.10747814E+03</pdfrwt>
<pdfrwt beam="1">  1       -2 0.78004024E-02 0.45773971E+02</pdfrwt>
<totfact> 0.25605310E+03</totfact>
</mgrwt>
</event>
<event>
 5    1  0.9399923E-003  0.6030679E+02  0.7546771E-02  0.1472698E+00
          1   -1    0    0  501    0 -0.00000000000E+00  0.00000000000E+00  0.50578080973E+03  0.50578080973E+03  0.00000000000E+00 0. -1.
          2   -1    0    0  502    0  0.00000000000E+00 -0.00000000000E+00 -0.26431791768E+04  0.26431791768E+04  0.00000000000E+00 0. -1.
         25    1    1    2    0    0  0.26644999785E+02 -0.15107891575E+02 -0.14868752344E+04  0.14924346441E+04  0.12500000000E+03 0.  0.
          2    1    1    2  501    0 -0.59833542199E+02  0.78446334691E+01  0.50093972373E+03  0.50456139157E+03  0.00000000000E+00 0. -1.
          1    1    1    2  502    0  0.33188542414E+02  0.72632581064E+01 -0.11514628564E+04  0.11519639508E+04  0.00000000000E+00 0. -1.
<mgrwt>
<rscale>  0 0.45264383E+02</rscale>
<asrwt>0</asrwt>
<pdfrwt beam="2">  1        2 0.40664295E+00 0.33974023E+02</pdfrwt>
<pdfrwt beam="1">  1        1 0.77812432E-01 0.60306791E+02</pdfrwt>
<totfact> 0.28578781E+01</totfact>
</mgrwt>
</event>
<event>
 5    1  0.9399923E-003  0.1543624E+03  0.7546771E-02  0.1249618E+00
          1   -1    0    0  501    0 -0.00000000000E+00  0.00000000000E+00  0.41965593347E+03  0.41965593347E+03  0.00000000000E+00 0. -1.
          2   -1    0    0  502    0  0.00000000000E+00 -0.00000000000E+00 -0.33330731370E+04  0.33330731370E+04  0.00000000000E+00 0. -1.
         25    1    1    2    0    0 -0.53935441627E+02  0.20611770473E+03 -0.66748101632E+02  0.25587858281E+03  0.12500000000E+03 0.  0.
          2    1    1    2  501    0 -0.11957400001E+02 -0.14874468466E+03  0.30732939369E+03  0.34164208882E+03  0.00000000000E+00 0. -1.
          1    1    1    2  502    0  0.65892841628E+02 -0.57373020074E+02 -0.31539984956E+04  0.31552083989E+04  0.00000000000E+00 0. -1.
<mgrwt>
<rscale>  0 0.11613207E+03</rscale>
<asrwt>0</asrwt>
<pdfrwt beam="2">  1        2 0.51278049E+00 0.87370075E+02</pdfrwt>
<pdfrwt beam="1">  1        1 0.64562450E-01 0.15436242E+03</pdfrwt>
<totfact> 0.12444888E+01</totfact>
</mgrwt>
</event>
<event>
 5    1  0.9399923E-003  0.1361968E+03  0.7546771E-02  0.1340662E+00
          2   -1    0    0  502    0  0.00000000000E+00  0.00000000000E+00  0.72889535602E+03  0.72889535602E+03  0.00000000000E+00 0. -1.
          1   -1    0    0  501    0 -0.00000000000E+00 -0.00000000000E+00 -0.27951159703E+03  0.27951159703E+03  0.00000000000E+00 0. -1.
         25    1    1    2    0    0  0.98765692148E+02  0.13681985130E+03  0.67583416305E+02  0.22060564774E+03  0.12500000000E+03 0.  0.
          2    1    1    2  501    0 -0.61628220672E+02 -0.11623539077E+03 -0.18080004293E+03  0.22360089261E+03  0.00000000000E+00 0. -1.
          1    1    1    2  502    0 -0.37137471476E+02 -0.20584460528E+02  0.56260038561E+03  0.56420041270E+03  0.00000000000E+00 0. -1.
<mgrwt>
<rscale>  0 0.76046113E+02</rscale>
<asrwt>0</asrwt>
<pdfrwt beam="1">  1        2 0.11213775E+00 0.42460709E+02</pdfrwt>
<pdfrwt beam="2">  1        1 0.43001784E-01 0.13619677E+03</pdfrwt>
<totfact> 0.55329150E+02</totfact>
</mgrwt>
</event>
<event>
 5    1  0.9399923E-003  0.7886407E+02  0.7546771E-02  0.1381818E+00
          1   -1    0    0  501    0 -0.00000000000E+00  0.00000000000E+00  0.19689120069E+04  0.19689120069E+04  0.00000000000E+00 0. -1.
          2   -1    0    0  502    0  0.00000000000E+00 -0.00000000000E+00 -0.42528011862E+03  0.42528011862E+03  0.00000000000E+00 0. -1.
         25    1    1    2    0    0  0.49858390093E+02  0.10864472981E+03  0.13681619425E+03  0.22052937988E+03  0.12500000000E+03 0.  0.
          2    1    1    2  501    0  0.36753025599E+01 -0.51788320260E+02  0.17858816913E+04  0.17866362118E+04  0.00000000000E+00 0. -1.
          1    1    1    2  502    0 -0.53533692653E+02 -0.56856409551E+02 -0.37906599731E+03  0.38702653381E+03  0.00000000000E+00 0. -1.
<mgrwt>
<rscale>  0 0.63988358E+02</rscale>
<asrwt>0</asrwt>
<pdfrwt beam="2">  1        2 0.65427712E-01 0.78864073E+02</pdfrwt>
<pdfrwt beam="1">  1        1 0.30290953E+00 0.51918571E+02</pdfrwt>
<totfact> 0.44488975E+01</totfact>
</mgrwt>
</event>
<event>
 5    1  0.9399923E-003  0.5832667E+02  0.7546771E-02  0.1415424E+00
         -1   -1    0    0    0  501 -0.00000000000E+00  0.00000000000E+00  0.71399408410E+03  0.71399408410E+03  0.00000000000E+00 0.  1.
          1   -1    0    0  502    0  0.00000000000E+00 -0.00000000000E+00 -0.11464150343E+04  0.11464150343E+04  0.00000000000E+00 0. -1.
         25    1    1    2    0    0 -0.14660678631E+02 -0.20370370008E+02  0.63764375976E+02  0.14255098427E+03  0.12500000000E+03 0.  0.
          2    1    1    2  502    0  0.42570457224E+02 -0.32844158810E+02 -0.11048886133E+04  0.11061961085E+04  0.00000000000E+00 0. -1.
         -2    1    1    2    0  501 -0.27909778593E+02  0.53214528818E+02  0.60870328715E+03  0.61166202564E+03  0.00000000000E+00 0.  1.
<mgrwt>
<rscale>  0 0.56000894E+02</rscale>
<asrwt>0</asrwt>
<pdfrwt beam="2">  1        1 0.17637154E+00 0.53767858E+02</pdfrwt>
<pdfrwt beam="1">  1       -1 0.10984525E+00 0.58326670E+02</pdfrwt>
<totfact> 0.12536104E+01</totfact>
</mgrwt>
</event>
<event>
 5    1  0.9399923E-003  0.9017839E+02  0.7546771E-02  0.1471180E+00
         -2   -1    0    0    0  501 -0.00000000000E+00  0.00000000000E+00  0.10128727244E+04  0.10128727244E+04  0.00000000000E+00 0.  1.
          2   -1    0    0  502    0  0.00000000000E+00 -0.00000000000E+00 -0.14973767942E+03  0.14973767942E+03  0.00000000000E+00 0. -1.
         25    1    1    2    0    0  0.26626063746E+02 -0.64618877614E+02  0.39484629029E+03  0.42001564206E+03  0.12500000000E+03 0.  0.
          1    1    1    2  502    0 -0.24762816382E+02  0.87510978035E+02 -0.12182810969E+03  0.15203110426E+03  0.00000000000E+00 0. -1.
         -1    1    1    2    0  501 -0.18632473639E+01 -0.22892100421E+02  0.59011686439E+03  0.59056365752E+03  0.00000000000E+00 0.  1.
<mgrwt>
<rscale>  0 0.45510432E+02</rscale>
<asrwt>0</asrwt>
<pdfrwt beam="2">  1        2 0.23036567E-01 0.90178389E+02</pdfrwt>
<pdfrwt beam="1">  1       -2 0.15582657E+00 0.22967803E+02</pdfrwt>
<totfact> 0.74453993E+01</totfact>
</mgrwt>
</event>
<event>
 5    1  0.8777773E-002  0.3870480E+02  0.7546771E-02  0.1532113E+00
         -2   -1    0    0    0  501 -0.00000000000E+00  0.00000000000E+00  0.22112899744E+02  0.22112899744E+02  0.00000000000E+00 0.  1.
          2   -1    0    0  502    0  0.00000000000E+00 -0.00000000000E+00 -0.68736266284E+03  0.68736266284E+03  0.00000000000E+00 0. -1.
         25    1    1    2    0    0 -0.43956616653E+01  0.14689089067E+02 -0.52625681368E+03  0.54111581489E+03  0.12500000000E+03 0.  0.
          3    1    1    2  502    0  0.31639650321E+02  0.15503111893E+02 -0.11686818130E+03  0.12206385931E+03  0.00000000000E+00 0. -1.
         -3    1    1    2    0  501 -0.27243988655E+02 -0.30192200960E+02 -0.22124768117E+02  0.46295888380E+02  0.00000000000E+00 0.  1.
<mgrwt>
<rscale>  0 0.36928493E+02</rscale>
<asrwt>0</asrwt>
<pdfrwt beam="2">  1        2 0.10574809E+00 0.35233705E+02</pdfrwt>
<pdfrwt beam="1">  1       -2 0.34019850E-02 0.38704803E+02</pdfrwt>
<totfact> 0.12797339E+04</totfact>
</mgrwt>
</event>
<event>
 5    1  0.9399923E-003  0.4661861E+02  0.7546771E-02  0.1465450E+00
         -1   -1    0    0    0  501 -0.00000000000E+00  0.00000000000E+00  0.32236972013E+03  0.32236972013E+03  0.00000000000E+00 0.  1.
          1   -1    0    0  502    0  0.00000000000E+00 -0.00000000000E+00 -0.10672303950E+04  0.10672303950E+04  0.00000000000E+00 0. -1.
         25    1    1    2    0    0 -0.19078875903E+01 -0.71874699081E+00 -0.11421400206E+03  0.16933397443E+03  0.12500000000E+03 0.  0.
          2    1    1    2  502    0 -0.33747728551E+02  0.31690382745E+02 -0.92298100491E+03  0.92414129058E+03  0.00000000000E+00 0. -1.
         -2    1    1    2    0  501  0.35655616142E+02 -0.30971635755E+02  0.29233433206E+03  0.29612485016E+03  0.00000000000E+00 0.  1.
<mgrwt>
<rscale>  0 0.46456322E+02</rscale>
<asrwt>0</asrwt>
<pdfrwt beam="2">  1        1 0.16418929E+00 0.46294595E+02</pdfrwt>
<pdfrwt beam="1">  1       -1 0.49595341E-01 0.46618614E+02</pdfrwt>
<totfact> 0.68773657E+01</totfact>
</mgrwt>
</event>
<event>
 5    1  0.9399923E-003  0.1624743E+03  0.7546771E-02  0.1212128E+00
          2   -1    0    0  502    0  0.00000000000E+00  0.00000000000E+00  0.78170126289E+03  0.78170126289E+03  0.00000000000E+00 0. -1.
         -2   -1    0    0    0  501 -0.00000000000E+00 -0.00000000000E+00 -0.19395560693E+03  0.19395560693E+03  0.00000000000E+00 0.  1.
         25    1    1    2    0    0 -0.83983118519E+02  0.19034457404E+03  0.14776299202E+03  0.28415334394E+03  0.12500000000E+03 0.  0.
          1    1    1    2  502    0 -0.33461536689E+02 -0.15664442825E+03  0.52088883502E+03  0.54496085161E+03  0.00000000000E+00 0. -1.
         -1    1    1    2    0  501  0.11744465521E+03 -0.33700145794E+02 -0.80906171071E+02  0.14654267427E+03  0.00000000000E+00 0.  1.
<mgrwt>
<rscale>  0 0.14089630E+03</rscale>
<asrwt>0</asrwt>
<pdfrwt beam="1">  1        2 0.12026173E+00 0.16247428E+03</pdfrwt>
<pdfrwt beam="2">  1       -2 0.29839325E-01 0.12218407E+03</pdfrwt>
<totfact> 0.38210370E+02</totfact>
</mgrwt>
</event>
<event>
 5    1  0.9399923E-003  0.7321558E+02  0.7546771E-02  0.1381138E+00
          2   -1    0    0  502    0  0.00000000000E+00  0.00000000000E+00  0.19553899223E+04  0.19553899223E+04  0.00000000000E+00 0. -1.
         -2   -1    0    0    0  501 -0.00000000000E+00 -0.00000000000E+00 -0.65924969847E+02  0.65924969847E+02  0.00000000000E+00 0.  1.
         25    1    1    2    0    0 -0.45541397570E+01 -0.45745412262E+02  0.10330540728E+04  0.10416040996E+04  0.12500000000E+03 0.  0.
          1    1    1    2  502    0  0.54057993848E+02  0.72422466735E+02  0.90249319919E+03  0.90700675574E+03  0.00000000000E+00 0. -1.
         -1    1    1    2    0  501 -0.49503854091E+02 -0.26677054473E+02 -0.46082319499E+02  0.72704036859E+02  0.00000000000E+00 0.  1.
<mgrwt>
<rscale>  0 0.64165624E+02</rscale>
<asrwt>0</asrwt>
<pdfrwt beam="1">  1        2 0.30082917E+00 0.73215584E+02</pdfrwt>
<pdfrwt beam="2">  1       -2 0.10142305E-01 0.56234303E+02</pdfrwt>
<totfact> 0.52823239E+02</totfact>
</mgrwt>
</event>
<event>
 5    1  0.9399923E-003  0.1415472E+03  0.7546771E-02  0.1239668E+00
          2   -1    0    0  502    0  0.00000000000E+00  0.00000000000E+00  0.41335696843E+03  0.41335696843E+03  0.00000000000E+00 0. -1.
          1   -1    0    0  501    0 -0.00000000000E+00 -0.00000000000E+00 -0.68263834087E+03  0.68263834087E+03  0.00000000000E+00 0. -1.
         25    1    1    2    0    0 -0.11721636967E+03  0.18645422381E+03 -0.33726968936E+03  0.42175905237E+03  0.12500000000E+03 0.  0.
          2    1    1    2  501    0  0.42955243546E+02 -0.11175783840E+03 -0.28326581579E+03  0.30752965676E+03  0.00000000000E+00 0. -1.
          1    1    1    2  502    0  0.74261126119E+02 -0.74696385412E+02  0.35125413272E+03  0.36670660016E+03  0.00000000000E+00 0. -1.
<mgrwt>
<rscale>  0 0.12210268E+03</rscale>
<asrwt>0</asrwt>
<pdfrwt beam="1">  1        2 0.63593380E-01 0.10532932E+03</pdfrwt>
<pdfrwt beam="2">  1        1 0.10502128E+00 0.14154716E+03</pdfrwt>
<totfact> 0.31793830E+02</totfact>
</mgrwt>
</event>
<event>
 5    1  0.9399923E-003  0.1524946E+03  0.7546771E-02  0.1260108E+00
          2   -1    0    0  502    0  0.00000000000E+00  0.00000000000E+00  0.41920596454E+03  0.41920596454E+03  0.00000000000E+00 0. -1.
          1   -1    0    0  501    0 -0.00000000000E+00 -0.00000000000E+00 -0.99690934938E+03  0.99690934938E+03  0.00000000000E+00 0. -1.
         25    1    1    2    0    0 -0.74223762470E+02 -0.19949236044E+03  0.71928133792E+02  0.25710897538E+03  0.12500000000E+03 0.  0.
          2    1    1    2  501    0  0.96081265924E+00  0.79701811333E+02 -0.88303213151E+03  0.88662226859E+03  0.00000000000E+00 0. -1.
          1    1    1    2  502    0  0.73262949811E+02  0.11979054910E+03  0.23340061288E+03  0.27238406995E+03  0.00000000000E+00 0. -1.
<mgrwt>
<rscale>  0 0.11024962E+03</rscale>
<asrwt>0</asrwt>
<pdfrwt beam="1">  1        2 0.64493226E-01 0.15249459E+03</pdfrwt>
<pdfrwt beam="2">  1        1 0.15337067E+00 0.79707602E+02</pdfrwt>
<totfact> 0.18099204E+02</totfact>
</mgrwt>
</event>
<event>
 5    1  0.9399923E-003  0.1519608E+03  0.7546771E-02  0.1337104E+00
         -1   -1    0    0    0  501 -0.00000000000E+00  0.00000000000E+00  0.24646674424E+03  0.24646674424E+03  0.00000000000E+00 0.  1.
          1   -1    0    0  502    0  0.00000000000E+00 -0.00000000000E+00 -0.12495637488E+04  0.12495637488E+04  0.00000000000E+00 0. -1.
         25    1    1    2    0    0 -0.17367366239E+03  0.59168520362E+02 -0.86369820197E+02  0.23821880835E+03  0.12500000000E+03 0.  0.
          2    1    1    2  502    0  0.39169476788E+02 -0.25004039473E+01 -0.10556099783E+04  0.10563393991E+04  0.00000000000E+00 0. -1.
         -2    1    1    2    0  501  0.13450418561E+03 -0.56668116415E+02  0.13888279397E+03  0.20147228550E+03  0.00000000000E+00 0.  1.
<mgrwt>
<rscale>  0 0.77229130E+02</rscale>
<asrwt>0</asrwt>
<pdfrwt beam="2">  1        1 0.19224057E+00 0.39249203E+02</pdfrwt>
<pdfrwt beam="1">  1       -1 0.37917961E-01 0.15196075E+03</pdfrwt>
<totfact> 0.84909654E+01</totfact>
</mgrwt>
</event>
<event>
 5    1  0.9399923E-003  0.1078343E+03  0.7546771E-02  0.1442331E+00
          2   -1    0    0  502    0  0.00000000000E+00  0.00000000000E+00  0.24323128389E+04  0.24323128389E+04  0.00000000000E+00 0. -1.
         -2   -1    0    0    0  501 -0.00000000000E+00 -0.00000000000E+00 -0.58997854080E+02  0.58997854080E+02  0.00000000000E+00 0.  1.
         25    1    1    2    0    0  0.72166623244E+02  0.88428071615E+02  0.16971665286E+03  0.23970041222E+03  0.12500000000E+03 0.  0.
          1    1    1    2  502    0 -0.83722091817E+02 -0.67726443994E+02  0.22201091265E+04  0.22227192341E+04  0.00000000000E+00 0. -1.
         -1    1    1    2    0  501  0.11555468572E+02 -0.20701627620E+02 -0.16510794577E+02  0.28891046669E+02  0.00000000000E+00 0.  1.
<mgrwt>
<rscale>  0 0.50562579E+02</rscale>
<asrwt>0</asrwt>
<pdfrwt beam="1">  1        2 0.37420190E+00 0.10783431E+03</pdfrwt>
<pdfrwt beam="2">  1       -2 0.90765948E-02 0.23708358E+02</pdfrwt>
<totfact> 0.31452206E+02</totfact>
</mgrwt>
</event>
<event>
 5    1  0.9399923E-003  0.9815871E+02  0.7546771E-02  0.1328149E+00
          1   -1    0    0  502    0  0.00000000000E+00  0.00000000000E+00  0.16172285273E+04  0.16172285273E+04  0.00000000000E+00 0. -1.
         -1   -1    0    0    0  501 -0.00000000000E+00 -0.00000000000E+00 -0.10753284902E+03  0.10753284902E+03  0.00000000000E+00 0.  1.
         25    1    1    2    0    0  0.86365874616E+02  0.14311381094E+02 -0.21516101317E+02  0.15411626307E+03  0.12500000000E+03 0.  0.
          2    1    1    2  502    0  0.60482320573E+02 -0.25714124003E+02  0.12625317563E+04  0.12642411807E+04  0.00000000000E+00 0. -1.
         -2    1    1    2    0  501 -0.14684819519E+03  0.11402742910E+02  0.26868002335E+03  0.30640393262E+03  0.00000000000E+00 0.  1.
<mgrwt>
<rscale>  0 0.80319028E+02</rscale>
<asrwt>0</asrwt>
<pdfrwt beam="1">  1        1 0.24880437E+00 0.65721589E+02</pdfrwt>
<pdfrwt beam="2">  1       -1 0.16543516E-01 0.98158708E+02</pdfrwt>
<totfact> 0.18333352E+02</totfact>
</mgrwt>
</event>
<event>
 5    1  0.9399923E-003  0.1616218E+03  0.7546771E-02  0.1188190E+00
          1   -1    0    0  501    0 -0.00000000000E+00  0.00000000000E+00  0.28554584281E+03  0.28554584281E+03  0.00000000000E+00 0. -1.
          2   -1    0    0  502    0  0.00000000000E+00 -0.00000000000E+00 -0.30360880937E+04  0.30360880937E+04  0.00000000000E+00 0. -1.
         25    1    1    2    0    0 -0.64078966486E+02 -0.75392083064E+01 -0.31065040487E+03  0.34101558271E+03  0.12500000000E+03 0.  0.
          2    1    1    2  501    0 -0.50134376764E+02  0.15364941631E+03  0.24271830113E+03  0.29160550847E+03  0.00000000000E+00 0. -1.
          1    1    1    2  502    0  0.11421334325E+03 -0.14611020800E+03 -0.26826101471E+04  0.26890128453E+04  0.00000000000E+00 0. -1.
<mgrwt>
<rscale>  0 0.16044964E+03</rscale>
<asrwt>0</asrwt>
<pdfrwt beam="2">  1        2 0.46709049E+00 0.15928601E+03</pdfrwt>
<pdfrwt beam="1">  1        1 0.43930129E-01 0.16162178E+03</pdfrwt>
<totfact> 0.27438614E+01</totfact>
</mgrwt>
</event>
<event>
 5    1  0.9399923E-003  0.4808070E+02  0.7546771E-02  0.1494756E+00
          2   -1    0    0  502    0  0.00000000000E+00  0.00000000000E+00  0.14906628406E+03  0.14906628406E+03  0.00000000000E+00 0. -1.
         -2   -1    0    0    0  501 -0.00000000000E+00 -0.00000000000E+00 -0.89226855012E+02  0.89226855012E+02  0.00000000000E+00 0.  1.
         25    1    1    2    0    0  0.29250568993E+01 -0.31672549503E+02  0.59052705622E+02  0.14185883262E+03  0.12500000000E+03 0.  0.
          1    1    1    2  502    0  0.43767054230E+02  0.20200813241E+02  0.30495106090E+01  0.48300387230E+02  0.00000000000E+00 0. -1.
         -1    1    1    2    0  501 -0.46692111130E+02  0.11471736262E+02 -0.22627871800E+01  0.48133919230E+02  0.00000000000E+00 0.  1.
<mgrwt>
<rscale>  0 0.41888604E+02</rscale>
<asrwt>0</asrwt>
<pdfrwt beam="1">  1        2 0.22933274E-01 0.36493958E+02</pdfrwt>
<pdfrwt beam="2">  1       -2 0.13727209E-01 0.48080703E+02</pdfrwt>
<totfact> 0.79764817E+03</totfact>
</mgrwt>
</event>
<event>
 5    1  0.9399923E-003  0.7424000E+02  0.7546771E-02  0.1413297E+00
          1   -1    0    0  501    0 -0.00000000000E+00  0.00000000000E+00  0.28640621045E+04  0.28640621045E+04  0.00000000000E+00 0. -1.
          2   -1    0    0  502    0  0.00000000000E+00 -0.00000000000E+00 -0.26341786494E+04  0.26341786494E+04  0.00000000000E+00 0. -1.
         25    1    1    2    0    0  0.11162366941E+03  0.19587048235E+02  0.17650036982E+03  0.24417386547E+03  0.12500000000E+03 0.  0.
          2    1    1    2  501    0 -0.73674660428E+02  0.51654147320E+00  0.26530362287E+04  0.26540590523E+04  0.00000000000E+00 0. -1.
          1    1    1    2  502    0 -0.37949008982E+02 -0.20103589709E+02 -0.25996531434E+04  0.26000078361E+04  0.00000000000E+00 0. -1.
<mgrwt>
<rscale>  0 0.56464541E+02</rscale>
<asrwt>0</asrwt>
<pdfrwt beam="2">  1        2 0.40525825E+00 0.42945100E+02</pdfrwt>
<pdfrwt beam="1">  1        1 0.44062494E+00 0.74240003E+02</pdfrwt>
<totfact> 0.66947083E-01</totfact>
</mgrwt>
</event>
<event>
 5    1  0.9399923E-003  0.1566112E+03  0.7546771E-02  0.1346087E+00
          2   -1    0    0  502    0  0.00000000000E+00  0.00000000000E+00  0.56228060746E+03  0.56228060746E+03  0.00000000000E+00 0. -1.
          1   -1    0    0  501    0 -0.00000000000E+00 -0.00000000000E+00 -0.10861442240E+04  0.10861442240E+04  0.00000000000E+00 0. -1.
         25    1    1    2    0    0  0.12605026987E+03  0.18497352273E+01 -0.62062461088E+02  0.18806605523E+03  0.12500000000E+03 0.  0.
          2    1    1    2  501    0  0.33108948066E+02  0.12066791383E+02 -0.94796310005E+03  0.94861786245E+03  0.00000000000E+00 0. -1.
          1    1    1    2  502    0 -0.15915921794E+03 -0.13916526611E+02  0.48616194465E+03  0.51174091374E+03  0.00000000000E+00 0. -1.
<mgrwt>
<rscale>  0 0.74289121E+02</rscale>
<asrwt>0</asrwt>
<pdfrwt beam="1">  1        2 0.86504709E-01 0.15661122E+03</pdfrwt>
<pdfrwt beam="2">  1        1 0.16709911E+00 0.35239323E+02</pdfrwt>
<totfact> 0.12042263E+02</totfact>
</mgrwt>
</event>
<event>
 5    1  0.9399923E-003  0.7775457E+02  0.7546771E-02  0.1339946E+00
          1   -1    0    0  501    0 -0.00000000000E+00  0.00000000000E+00  0.13860148907E+03  0.13860148907E+03  0.00000000000E+00 0. -1.
          2   -1    0    0  502    0  0.00000000000E+00 -0.00000000000E+00 -0.55086154778E+03  0.55086154778E+03  0.00000000000E+00 0. -1.
         25    1    1    2    0    0  0.38677685420E+02 -0.21369572787E+02 -0.81745454928E+02  0.15575603164E+03  0.12500000000E+03 0.  0.
          2    1    1    2  501    0  0.90733332386E+01  0.82734160559E+02  0.80268389217E+02  0.11562993128E+03  0.00000000000E+00 0. -1.
          1    1    1    2  502    0 -0.47751018658E+02 -0.61364587772E+02 -0.41078299300E+03  0.41807707394E+03  0.00000000000E+00 0. -1.
<mgrwt>
<rscale>  0 0.76281978E+02</rscale>
<asrwt>0</asrwt>
<pdfrwt beam="2">  1        2 0.84747930E-01 0.77754565E+02</pdfrwt>
<pdfrwt beam="1">  1        1 0.21323306E-01 0.74837281E+02</pdfrwt>
<totfact> 0.17508917E+03</totfact>
</mgrwt>
</event>
<event>
 5    1  0.9399923E-003  0.1154338E+03  0.7546771E-02  0.1389135E+00
          1   -1    0    0  502    0  0.00000000000E+00  0.00000000000E+00  0.95427160048E+03  0.95427160048E+03  0.00000000000E+00 0. -1.
         -1   -1    0    0    0  501 -0.00000000000E+00 -0.00000000000E+00 -0.55420745956E+02  0.55420745956E+02  0.00000000000E+00 0.  1.
         25    1    1    2    0    0  0.65274173286E+00  0.12156742084E+03  0.10982647436E+03  0.20607260457E+03  0.12500000000E+03 0.  0.
          2    1    1    2  502    0  0.31057650811E+02 -0.11097699349E+03  0.67607474629E+03  0.68582616845E+03  0.00000000000E+00 0. -1.
         -2    1    1    2    0  501 -0.31710392543E+02 -0.10590427349E+02  0.11294963388E+03  0.11779357342E+03  0.00000000000E+00 0.  1.
<mgrwt>
<rscale>  0 0.62122436E+02</rscale>
<asrwt>0</asrwt>
<pdfrwt beam="1">  1        1 0.14681100E+00 0.11543384E+03</pdfrwt>
<pdfrwt beam="2">  1       -1 0.85262693E-02 0.33432113E+02</pdfrwt>
<totfact> 0.12168216E+03</totfact>
</mgrwt>
</event>
<event>
 5    1  0.9399923E-003  0.6806685E+02  0.7546771E-02  0.1404584E+00
          1   -1    0    0  501    0 -0.00000000000E+00  0.00000000000E+00  0.93277363525E+01  0.93277363525E+01  0.00000000000E+00 0. -1.
          2   -1    0    0  502    0  0.00000000000E+00 -0.00000000000E+00 -0.28688946676E+04  0.28688946676E+04  0.00000000000E+00 0. -1.
         25    1    1    2    0    0  0.94340572320E+02 -0.28488375328E+01 -0.14619812936E+04  0.14703477692E+04  0.12500000000E+03 0.  0.
          2    1    1    2  501    0 -0.55620267290E+02  0.34705164952E+02 -0.22862482804E+03  0.23783896780E+03  0.00000000000E+00 0. -1.
          1    1    1    2  502    0 -0.38720305029E+02 -0.31856327419E+02 -0.11689608096E+04  0.11700356669E+04  0.00000000000E+00 0. -1.
<mgrwt>
<rscale>  0 0.58420185E+02</rscale>
<asrwt>0</asrwt>
<pdfrwt beam="2">  1        2 0.44136935E+00 0.50140678E+02</pdfrwt>
<pdfrwt beam="1">  1        1 0.14350333E-02 0.68066850E+02</pdfrwt>
<totfact> 0.35111981E+03</totfact>
</mgrwt>
</event>
<event>
 5    1  0.9399923E-003  0.1356852E+03  0.7546771E-02  0.1242331E+00
         -2   -1    0    0    0  501 -0.00000000000E+00  0.00000000000E+00  0.21657905874E+03  0.21657905874E+03  0.00000000000E+00 0.  1.
          2   -1    0    0  502    0  0.00000000000E+00 -0.00000000000E+00 -0.12451464001E+04  0.12451464001E+04  0.00000000000E+00 0. -1.
         25    1    1    2    0    0 -0.10780488127E+03  0.69944612937E+02 -0.30111497773E+02  0.18178515782E+03  0.12500000000E+03 0.  0.
          1    1    1    2  502    0  0.23868747333E+02 -0.13622884208E+03 -0.11139661586E+04  0.11225188715E+04  0.00000000000E+00 0. -1.
         -1    1    1    2    0  501  0.83936133933E+02  0.66284229144E+02  0.11551031495E+03  0.15742142952E+03  0.00000000000E+00 0.  1.
<mgrwt>
<rscale>  0 0.12046535E+03</rscale>
<asrwt>0</asrwt>
<pdfrwt beam="2">  1        2 0.19156099E+00 0.13568525E+03</pdfrwt>
<pdfrwt beam="1">  1       -2 0.33319855E-01 0.10695267E+03</pdfrwt>
<totfact> 0.16555907E+02</totfact>
</mgrwt>
</event>
<event>
 5    1  0.9399923E-003  0.6446144E+02  0.7546771E-02  0.1418141E+00
          2   -1    0    0  502    0  0.00000000000E+00  0.00000000000E+00  0.57429254134E+03  0.57429254134E+03  0.00000000000E+00 0. -1.
          1   -1    0    0  501    0 -0.00000000000E+00 -0.00000000000E+00 -0.10870461624E+04  0.10870461624E+04  0.00000000000E+00 0. -1.
         25    1    1    2    0    0 -0.34778413047E+02 -0.43597689400E+02 -0.72355473926E+03  0.73638764060E+03  0.12500000000E+03 0.  0.
          2    1    1    2  501    0  0.73604132135E+02  0.15990909044E+02 -0.35208549210E+03  0.36005203955E+03  0.00000000000E+00 0. -1.
          1    1    1    2  502    0 -0.38825719088E+02  0.27606780356E+02  0.56288661030E+03  0.56489902357E+03  0.00000000000E+00 0. -1.
<mgrwt>
<rscale>  0 0.55416099E+02</rscale>
<asrwt>0</asrwt>
<pdfrwt beam="1">  1        2 0.88352700E-01 0.47640012E+02</pdfrwt>
<pdfrwt beam="2">  1        1 0.16723787E+00 0.64461445E+02</pdfrwt>
<totfact> 0.11491709E+02</totfact>
</mgrwt>
</event>
<event>
 5    1  0.9399923E-003  0.4502474E+02  0.7546771E-02  0.1517118E+00
          1   -1    0    0  501    0 -0.00000000000E+00  0.00000000000E+00  0.87650173993E+03  0.87650173993E+03  0.00000000000E+00 0. -1.
          2   -1    0    0  502    0  0.00000000000E+00 -0.00000000000E+00 -0.86154280239E+03  0.86154280239E+03  0.00000000000E+00 0. -1.
         25    1    1    2    0    0  0.45531686647E+02  0.19806937401E+02  0.16718187378E+03  0.21456986782E+03  0.12500000000E+03 0.  0.
          2    1    1    2  501    0 -0.25709982893E+01 -0.33362694155E+02  0.68461141083E+03  0.68542867115E+03  0.00000000000E+00 0. -1.
          1    1    1    2  502    0 -0.42960688358E+02  0.13555756754E+02 -0.83683434707E+03  0.83804600335E+03  0.00000000000E+00 0. -1.
<mgrwt>
<rscale>  0 0.38814952E+02</rscale>
<asrwt>0</asrwt>
<pdfrwt beam="2">  1        2 0.13254505E+00 0.45024745E+02</pdfrwt>
<pdfrwt beam="1">  1        1 0.13484642E+00 0.33461611E+02</pdfrwt>
<totfact> 0.10681992E+02</totfact>
</mgrwt>
</event>
<event>
 5    1  0.9399923E-003  0.8334566E+02  0.7546771E-02  0.1331611E+00
          2   -1    0    0  502    0  0.00000000000E+00  0.00000000000E+00  0.18595855283E+04  0.18595855283E+04  0.00000000000E+00 0. -1.
          1   -1    0    0  501    0 -0.00000000000E+00 -0.00000000000E+00 -0.72674019399E+03  0.72674019399E+03  0.00000000000E+00 0. -1.
         25    1    1    2    0    0  0.33350726985E+02  0.26311645264E+02  0.54019079309E+03  0.55608962102E+03  0.12500000000E+03 0.  0.
          2    1    1    2  501    0 -0.75606808510E+02  0.35747826012E+02 -0.71527790121E+03  0.72015052073E+03  0.00000000000E+00 0. -1.
          1    1    1    2  502    0  0.42256081525E+02 -0.62059471277E+02  0.13079324425E+04  0.13100855806E+04  0.00000000000E+00 0. -1.
<mgrwt>
<rscale>  0 0.79104761E+02</rscale>
<asrwt>0</asrwt>
<pdfrwt beam="1">  1        2 0.28609008E+00 0.75079654E+02</pdfrwt>
<pdfrwt beam="2">  1        1 0.11180618E+00 0.83345658E+02</pdfrwt>
<totfact> 0.38555991E+01</totfact>
</mgrwt>
</event>
<event>
 5    1  0.9399923E-003  0.2070358E+03  0.7546771E-02  0.1229358E+00
         -2   -1    0    0    0  501 -0.00000000000E+00  0.00000000000E+00  0.26599078523E+03  0.26599078523E+03  0.00000000000E+00 0.  1.
          2   -1    0    0  502    0  0.00000000000E+00 -0.00000000000E+00 -0.47177368316E+03  0.47177368316E+03  0.00000000000E+00 0. -1.
         25    1    1    2    0    0 -0.19444506704E+01 -0.15134109046E+03 -0.20294129989E+02  0.19734426331E+03  0.12500000000E+03 0.  0.
          1    1    1    2  502    0  0.13314606152E+02  0.23056583551E+03 -0.31353831464E+03  0.38941514864E+03  0.00000000000E+00 0. -1.
         -1    1    1    2    0  501 -0.11370155482E+02 -0.79224745047E+02  0.12804954669E+03  0.15100505644E+03  0.00000000000E+00 0.  1.
<mgrwt>
<rscale>  0 0.12872615E+03</rscale>
<asrwt>0</asrwt>
<pdfrwt beam="2">  1        2 0.72580566E-01 0.20703581E+03</pdfrwt>
<pdfrwt beam="1">  1       -2 0.40921660E-01 0.80036496E+02</pdfrwt>
<totfact> 0.38008209E+02</totfact>
</mgrwt>
</event>
<event>
 5    1  0.9399923E-003  0.8211544E+02  0.7546771E-02  0.1435173E+00
          2   -1    0    0  502    0  0.00000000000E+00  0.00000000000E+00  0.63293466144E+03  0.63293466144E+03  0.00000000000E+00 0. -1.
         -2   -1    0    0    0  501 -0.00000000000E+00 -0.00000000000E+00 -0.82411609621E+02  0.82411609621E+02  0.00000000000E+00 0.  1.
         25    1    1    2    0    0 -0.63289596973E+02 -0.82407521573E+02  0.28074415362E+03  0.32440538295E+03  0.12500000000E+03 0.  0.
          1    1    1    2  502    0  0.59953781332E+02  0.49729802849E+02  0.32087670507E+03  0.33019595552E+03  0.00000000000E+00 0. -1.
         -1    1    1    2    0  501  0.33358156416E+01  0.32677718724E+02 -0.51097806875E+02  0.60744932582E+02  0.00000000000E+00 0.  1.
<mgrwt>
<rscale>  0 0.51935443E+02</rscale>
<asrwt>0</asrwt>
<pdfrwt beam="1">  1        2 0.97374560E-01 0.82115437E+02</pdfrwt>
<pdfrwt beam="2">  1       -2 0.12678710E-01 0.32847541E+02</pdfrwt>
<totfact> 0.19441148E+03</totfact>
</mgrwt>
</event>
<event>
 5    1  0.9399923E-003  0.1136538E+03  0.7546771E-02  0.1425567E+00
          1   -1    0    0  501    0 -0.00000000000E+00  0.00000000000E+00  0.19486244990E+04  0.19486244990E+04  0.00000000000E+00 0. -1.
          2   -1    0    0  502    0  0.00000000000E+00 -0.00000000000E+00 -0.95847258428E+03  0.95847258428E+03  0.00000000000E+00 0. -1.
         25    1    1    2    0    0  0.11978189709E+03  0.41777979404E+02  0.68569605120E+03  0.70844701782E+03  0.12500000000E+03 0.  0.
          2    1    1    2  501    0 -0.97239911791E+02 -0.53750596174E+02  0.12489143250E+04  0.12538467683E+04  0.00000000000E+00 0. -1.
          1    1    1    2  502    0 -0.22541985295E+02  0.11972616770E+02 -0.94445846156E+03  0.94480329713E+03  0.00000000000E+00 0. -1.
<mgrwt>
<rscale>  0 0.53860214E+02</rscale>
<asrwt>0</asrwt>
<pdfrwt beam="2">  1        2 0.14745732E+00 0.25524197E+02</pdfrwt>
<pdfrwt beam="1">  1        1 0.29978838E+00 0.11365383E+03</pdfrwt>
<totfact> 0.17310623E+01</totfact>
</mgrwt>
</event>
<event>
 5    1  0.9399923E-003  0.5293592E+02  0.7546771E-02  0.1547655E+00
          2   -1    0    0  502    0  0.00000000000E+00  0.00000000000E+00  0.83397364091E+03  0.83397364091E+03  0.00000000000E+00 0. -1.
          1   -1    0    0  501    0 -0.00000000000E+00 -0.00000000000E+00 -0.10915483558E+03  0.10915483558E+03  0.00000000000E+00 0. -1.
         25    1    1    2    0    0  0.23041712748E+02 -0.66559794448E+02  0.24483430838E+02  0.14555261986E+03  0.12500000000E+03 0.  0.
          2    1    1    2  501    0 -0.18564755054E+02  0.14050865288E+02 -0.44847986615E+02  0.50531365002E+02  0.00000000000E+00 0. -1.
          1    1    1    2  502    0 -0.44769576942E+01  0.52508929160E+02  0.74518336111E+03  0.74704449162E+03  0.00000000000E+00 0. -1.
<mgrwt>
<rscale>  0 0.35106737E+02</rscale>
<asrwt>0</asrwt>
<pdfrwt beam="1">  1        2 0.12830363E+00 0.52935921E+02</pdfrwt>
<pdfrwt beam="2">  1        1 0.16793052E-01 0.23282546E+02</pdfrwt>
<totfact> 0.13940714E+03</totfact>
</mgrwt>
</event>
<event>
 5    1  0.9399923E-003  0.4351093E+02  0.7546771E-02  0.1583123E+00
          2   -1    0    0  502    0  0.00000000000E+00  0.00000000000E+00  0.89789219942E+03  0.89789219942E+03  0.00000000000E+00 0. -1.
         -2   -1    0    0    0  501 -0.00000000000E+00 -0.00000000000E+00 -0.25896278688E+03  0.25896278688E+03  0.00000000000E+00 0.  1.
         25    1    1    2    0    0 -0.15383724298E+02  0.15406275194E+02 -0.28277836507E+02  0.12999480115E+03  0.12500000000E+03 0.  0.
          1    1    1    2  502    0  0.24493361270E+02 -0.36152546347E+02  0.84575443762E+03  0.84688104247E+03  0.00000000000E+00 0. -1.
         -1    1    1    2    0  501 -0.91096369717E+01  0.20746271153E+02 -0.17854718857E+03  0.17997914267E+03  0.00000000000E+00 0.  1.
<mgrwt>
<rscale>  0 0.31398703E+02</rscale>
<asrwt>0</asrwt>
<pdfrwt beam="1">  1        2 0.13813726E+00 0.43510928E+02</pdfrwt>
<pdfrwt beam="2">  1       -2 0.39840429E-01 0.22658183E+02</pdfrwt>
<totfact> 0.19351507E+02</totfact>
</mgrwt>
</event>
<event>
 5    1  0.9399923E-003  0.8637998E+02  0.7546771E-02  0.1492092E+00
          1   -1    0    0  501    0 -0.00000000000E+00  0.00000000000E+00  0.22449465745E+03  0.22449465745E+03  0.00000000000E+00 0. -1.
          2   -1    0    0  502    0  0.00000000000E+00 -0.00000000000E+00 -0.14771931434E+04  0.14771931434E+04  0.00000000000E+00 0. -1.
         25    1    1    2    0    0 -0.80773208799E+02  0.63366623368E+02 -0.14273621568E+03  0.21572729888E+03  0.12500000000E+03 0.  0.
          2    1    1    2  501    0  0.70978101106E+01 -0.19436413961E+02  0.18600759894E+03  0.18715496242E+03  0.00000000000E+00 0. -1.
          1    1    1    2  502    0  0.73675398689E+02 -0.43930209407E+02 -0.12959698692E+04  0.12988055395E+04  0.00000000000E+00 0. -1.
<mgrwt>
<rscale>  0 0.42277210E+02</rscale>
<asrwt>0</asrwt>
<pdfrwt beam="2">  1        2 0.22726048E+00 0.86379977E+02</pdfrwt>
<pdfrwt beam="1">  1        1 0.34537640E-01 0.20691861E+02</pdfrwt>
<totfact> 0.25452835E+02</totfact>
</mgrwt>
</event>
<event>
 5    1  0.9399923E-003  0.8497886E+02  0.7546771E-02  0.1461530E+00
          2   -1    0    0  502    0  0.00000000000E+00  0.00000000000E+00  0.58033307885E+02  0.58033307885E+02  0.00000000000E+00 0. -1.
          1   -1    0    0  501    0 -0.00000000000E+00 -0.00000000000E+00 -0.13214111429E+04  0.13214111429E+04  0.00000000000E+00 0. -1.
         25    1    1    2    0    0  0.74310845135E+02  0.25552164230E+02 -0.26491969019E+03  0.30328609769E+03  0.12500000000E+03 0.  0.
          2    1    1    2  501    0  0.12253000992E+02 -0.23075211493E+02 -0.98866156166E+03  0.98900671631E+03  0.00000000000E+00 0. -1.
          1    1    1    2  502    0 -0.86563846127E+02 -0.24769527372E+01 -0.97965831639E+01  0.87151636776E+02  0.00000000000E+00 0. -1.
<mgrwt>
<rscale>  0 0.47119128E+02</rscale>
<asrwt>0</asrwt>
<pdfrwt beam="1">  1        2 0.89282008E-02 0.84978859E+02</pdfrwt>
<pdfrwt beam="2">  1        1 0.20329403E+00 0.26126642E+02</pdfrwt>
<totfact> 0.10820811E+03</totfact>
</mgrwt>
</event>
<event>
 5    1  0.9399923E-003  0.8625904E+02  0.7546771E-02  0.1392225E+00
          2   -1    0    0  502    0  0.00000000000E+00  0.00000000000E+00  0.20618144367E+04  0.20618144367E+04  0.00000000000E+00 0. -1.
          1   -1    0    0  501    0 -0.00000000000E+00 -0.00000000000E+00 -0.23464903149E+02  0.23464903149E+02  0.00000000000E+00 0. -1.
         25    1    1    2    0    0  0.47288921472E+02 -0.87255793250E+02  0.91236867042E+03  0.92622427431E+03  0.12500000000E+03 0.  0.
          2    1    1    2  501    0 -0.43584530566E+02  0.22674910634E+01  0.17033626820E+02  0.46849730661E+02  0.00000000000E+00 0. -1.
          1    1    1    2  502    0 -0.37043909065E+01  0.84988302186E+02  0.11089472363E+04  0.11122053349E+04  0.00000000000E+00 0. -1.
<mgrwt>
<rscale>  0 0.61356696E+02</rscale>
<asrwt>0</asrwt>
<pdfrwt beam="1">  1        2 0.31720208E+00 0.86259039E+02</pdfrwt>
<pdfrwt beam="2">  1        1 0.36099867E-02 0.43643474E+02</pdfrwt>
<totfact> 0.22934873E+03</totfact>
</mgrwt>
</event>
<event>
 5    1  0.9399923E-003  0.8368684E+02  0.7546771E-02  0.1425829E+00
          2   -1    0    0  502    0  0.00000000000E+00  0.00000000000E+00  0.12307791471E+03  0.12307791471E+03  0.00000000000E+00 0. -1.
          1   -1    0    0  501    0 -0.00000000000E+00 -0.00000000000E+00 -0.50300415354E+03  0.50300415354E+03  0.00000000000E+00 0. -1.
         25    1    1    2    0    0  0.10399525076E+03  0.36053270041E+02 -0.17063061010E+03  0.23844214301E+03  0.12500000000E+03 0.  0.
          2    1    1    2  501    0 -0.23213388558E+02 -0.25650467393E+02 -0.27857331372E+03  0.28071319706E+03  0.00000000000E+00 0. -1.
          1    1    1    2  502    0 -0.80781862201E+02 -0.10402802648E+02  0.69277684986E+02  0.10692672819E+03  0.00000000000E+00 0. -1.
<mgrwt>
<rscale>  0 0.53806494E+02</rscale>
<asrwt>0</asrwt>
<pdfrwt beam="1">  1        2 0.18935064E-01 0.83686840E+02</pdfrwt>
<pdfrwt beam="2">  1        1 0.77385255E-01 0.34594911E+02</pdfrwt>
<totfact> 0.18086069E+03</totfact>
</mgrwt>
</event>
<event>
 5    1  0.9399923E-003  0.2307834E+03  0.7546771E-02  0.1237698E+00
          2   -1    0    0  502    0  0.00000000000E+00  0.00000000000E+00  0.14670227777E+04  0.14670227777E+04  0.00000000000E+00 0. -1.
         -2   -1    0    0    0  501 -0.00000000000E+00 -0.00000000000E+00 -0.21177046343E+03  0.21177046343E+03  0.00000000000E+00 0.  1.
         25    1    1    2    0    0 -0.27918603367E+03  0.21518985407E+02  0.42897558992E+03  0.52730727748E+03  0.12500000000E+03 0.  0.
          1    1    1    2  502    0  0.21545075181E+03 -0.38311379386E+02  0.96946541019E+03  0.99385611122E+03  0.00000000000E+00 0. -1.
         -1    1    1    2    0  501  0.63735281861E+02  0.16792393980E+02 -0.14318868581E+03  0.15762985248E+03  0.00000000000E+00 0.  1.
<mgrwt>
<rscale>  0 0.12333291E+03</rscale>
<asrwt>0</asrwt>
<pdfrwt beam="1">  1        2 0.22569581E+00 0.23078339E+03</pdfrwt>
<pdfrwt beam="2">  1       -2 0.32580072E-01 0.65910323E+02</pdfrwt>
<totfact> 0.12496420E+02</totfact>
</mgrwt>
</event>
<event>
 5    1  0.9399923E-003  0.1134953E+03  0.7546771E-02  0.1366954E+00
          2   -1    0    0  502    0  0.00000000000E+00  0.00000000000E+00  0.10701927461E+04  0.10701927461E+04  0.00000000000E+00 0. -1.
          1   -1    0    0  501    0 -0.00000000000E+00 -0.00000000000E+00 -0.18031185250E+03  0.18031185250E+03  0.00000000000E+00 0. -1.
         25    1    1    2    0    0 -0.12156453208E+03  0.19591185618E+02  0.89160978158E+02  0.19681572610E+03  0.12500000000E+03 0.  0.
          2    1    1    2  501    0  0.21943811102E+02  0.34357627045E+02 -0.11963352347E+03  0.12638891296E+03  0.00000000000E+00 0. -1.
          1    1    1    2  502    0  0.99620720974E+02 -0.53948812662E+02  0.92035343896E+03  0.92729995958E+03  0.00000000000E+00 0. -1.
<mgrwt>
<rscale>  0 0.68021339E+02</rscale>
<asrwt>0</asrwt>
<pdfrwt beam="1">  1        2 0.16464503E+00 0.11349528E+03</pdfrwt>
<pdfrwt beam="2">  1        1 0.27740286E-01 0.40767357E+02</pdfrwt>
<totfact> 0.54595560E+02</totfact>
</mgrwt>
</event>
<event>
 5    1  0.9399923E-003  0.6603687E+02  0.7546771E-02  0.1431104E+00
          2   -1    0    0  502    0  0.00000000000E+00  0.00000000000E+00  0.97251637003E+03  0.97251637003E+03  0.00000000000E+00 0. -1.
          1   -1    0    0  501    0 -0.00000000000E+00 -0.00000000000E+00 -0.38840774830E+03  0.38840774830E+03  0.00000000000E+00 0. -1.
         25    1    1    2    0    0 -0.82271667440E+02 -0.67719114737E+02 -0.97510237342E+01  0.16454357547E+03  0.12500000000E+03 0.  0.
          2    1    1    2  501    0  0.36673172277E+02  0.20714281364E+02 -0.29858263691E+03  0.30153871075E+03  0.00000000000E+00 0. -1.
          3    1    1    2  502    0  0.45598495162E+02  0.47004833373E+02  0.89244228237E+03  0.89484183211E+03  0.00000000000E+00 0. -1.
<mgrwt>
<rscale>  0 0.52738994E+02</rscale>
<asrwt>0</asrwt>
<pdfrwt beam="1">  1        2 0.14961790E+00 0.66036873E+02</pdfrwt>
<pdfrwt beam="2">  1        1 0.59755038E-01 0.42118915E+02</pdfrwt>
<totfact> 0.25708668E+02</totfact>
</mgrwt>
</event>
<event>
 5    1  0.9399923E-003  0.5352395E+02  0.7546771E-02  0.1483995E+00
          2   -1    0    0  502    0  0.00000000000E+00  0.00000000000E+00  0.24200035441E+03  0.24200035441E+03  0.00000000000E+00 0. -1.
         -2   -1    0    0    0  501 -0.00000000000E+00 -0.00000000000E+00 -0.16407893005E+03  0.16407893005E+03  0.00000000000E+00 0.  1.
         25    1    1    2    0    0 -0.38765740851E+02 -0.28564508707E+02  0.53500579043E+02  0.14424294014E+03  0.12500000000E+03 0.  0.
          1    1    1    2  502    0 -0.15698384641E+02  0.31658479184E+02  0.13445537946E+03  0.13902139277E+03  0.00000000000E+00 0. -1.
         -1    1    1    2    0  501  0.54464125492E+02 -0.30939704761E+01 -0.11003453414E+03  0.12281495154E+03  0.00000000000E+00 0.  1.
<mgrwt>
<rscale>  0 0.43489906E+02</rscale>
<asrwt>0</asrwt>
<pdfrwt beam="1">  1        2 0.37230824E-01 0.35336929E+02</pdfrwt>
<pdfrwt beam="2">  1       -2 0.25242912E-01 0.53523947E+02</pdfrwt>
<totfact> 0.17887795E+03</totfact>
</mgrwt>
</event>
<event>
 5    1  0.9399923E-003  0.9695064E+02  0.7546771E-02  0.1320532E+00
         -2   -1    0    0    0  501 -0.00000000000E+00  0.00000000000E+00  0.37357735808E+03  0.37357735808E+03  0.00000000000E+00 0.  1.
          2   -1    0    0  502    0  0.00000000000E+00 -0.00000000000E+00 -0.47545713365E+03  0.47545713365E+03  0.00000000000E+00 0. -1.
         25    1    1    2    0    0  0.10969247511E+03  0.29927201104E+02 -0.50046468491E+02  0.17623202169E+03  0.12500000000E+03 0.  0.
          1    1    1    2  502    0 -0.20182454430E+02 -0.68272953118E+02 -0.35102032040E+03  0.35816726948E+03  0.00000000000E+00 0. -1.
         -1    1    1    2    0  501 -0.89510020676E+02  0.38345752014E+02  0.29918701332E+03  0.31463520057E+03  0.00000000000E+00 0.  1.
<mgrwt>
<rscale>  0 0.83079866E+02</rscale>
<asrwt>0</asrwt>
<pdfrwt beam="2">  1        2 0.73147251E-01 0.71193592E+02</pdfrwt>
<pdfrwt beam="1">  1       -2 0.57473440E-01 0.96950638E+02</pdfrwt>
<totfact> 0.19706013E+02</totfact>
</mgrwt>
</event>
<event>
 5    1  0.9399923E-003  0.2400445E+02  0.7546771E-02  0.1678179E+00
          1   -1    0    0  502    0  0.00000000000E+00  0.00000000000E+00  0.82954886532E+02  0.82954886532E+02  0.00000000000E+00 0. -1.
         -1   -1    0    0    0  501 -0.00000000000E+00 -0.00000000000E+00 -0.33945197636E+03  0.33945197636E+03  0.00000000000E+00 0.  1.
         25    1    1    2    0    0 -0.16488024302E+01 -0.66870193953E+01 -0.13177709098E+03  0.18176258274E+03  0.12500000000E+03 0.  0.
          2    1    1    2  502    0  0.24374524162E+02  0.13804246023E-01  0.54585930289E+02  0.59780777882E+02  0.00000000000E+00 0. -1.
         -2    1    1    2    0  501 -0.22725721732E+02  0.66732151493E+01 -0.17930592914E+03  0.18086350227E+03  0.00000000000E+00 0.  1.
<mgrwt>
<rscale>  0 0.23844305E+02</rscale>
<asrwt>0</asrwt>
<pdfrwt beam="1">  1        1 0.12762290E-01 0.24004445E+02</pdfrwt>
<pdfrwt beam="2">  1       -1 0.52223381E-01 0.23685232E+02</pdfrwt>
<totfact> 0.15427661E+03</totfact>
</mgrwt>
</event>
<event>
 5    1  0.9399923E-003  0.1122655E+03  0.7546771E-02  0.1370066E+00
          2   -1    0    0  502    0  0.00000000000E+00  0.00000000000E+00  0.16563343166E+04  0.16563343166E+04  0.00000000000E+00 0. -1.
          1   -1    0    0  501    0 -0.00000000000E+00 -0.00000000000E+00 -0.86344356536E+03  0.86344356536E+03  0.00000000000E+00 0. -1.
         25    1    1    2    0    0  0.18324644608E+02 -0.12764945332E+03  0.33578305981E+03  0.38079579671E+03  0.12500000000E+03 0.  0.
          2    1    1    2  501    0 -0.35904867301E+02  0.17998168979E+02 -0.83808020477E+03  0.83904202708E+03  0.00000000000E+00 0. -1.
          1    1    1    2  502    0  0.17580222693E+02  0.10965128434E+03  0.12951878962E+04  0.12999400582E+04  0.00000000000E+00 0. -1.
<mgrwt>
<rscale>  0 0.67148761E+02</rscale>
<asrwt>0</asrwt>
<pdfrwt beam="1">  1        2 0.25482066E+00 0.11226548E+03</pdfrwt>
<pdfrwt beam="2">  1        1 0.13283747E+00 0.40163336E+02</pdfrwt>
<totfact> 0.37932902E+01</totfact>
</mgrwt>
</event>
<event>
 5    1  0.9399923E-003  0.2610637E+02  0.7546771E-02  0.1659346E+00
         -2   -1    0    0    0  501 -0.00000000000E+00  0.00000000000E+00  0.44369234769E+02  0.44369234769E+02  0.00000000000E+00 0.  1.
          2   -1    0    0  502    0  0.00000000000E+00 -0.00000000000E+00 -0.84334390976E+03  0.84334390976E+03  0.00000000000E+00 0. -1.
         25    1    1    2    0    0  0.97055171393E+01 -0.12379956571E+02 -0.32729429552E+03  0.35070502743E+03  0.12500000000E+03 0.  0.
          1    1    1    2  502    0  0.16096863581E+02  0.18020069899E+02 -0.49866444377E+03  0.49924949616E+03  0.00000000000E+00 0. -1.
         -1    1    1    2    0  501 -0.25802380721E+02 -0.56401133276E+01  0.26984064296E+02  0.37758620938E+02  0.00000000000E+00 0.  1.
<mgrwt>
<rscale>  0 0.25115695E+02</rscale>
<asrwt>0</asrwt>
<pdfrwt beam="2">  1        2 0.12974522E+00 0.24162614E+02</pdfrwt>
<pdfrwt beam="1">  1       -2 0.68260362E-02 0.26106369E+02</pdfrwt>
<totfact> 0.35935800E+03</totfact>
</mgrwt>
</event>
<event>
 5    1  0.9399923E-003  0.1042951E+03  0.7546771E-02  0.1469414E+00
         -1   -1    0    0    0  501 -0.00000000000E+00  0.00000000000E+00  0.25408866847E+02  0.25408866847E+02  0.00000000000E+00 0.  1.
          1   -1    0    0  502    0  0.00000000000E+00 -0.00000000000E+00 -0.41890904753E+04  0.41890904753E+04  0.00000000000E+00 0. -1.
         25    1    1    2    0    0  0.86359642807E+02 -0.67377254456E+02 -0.13239077903E+04  0.13342992616E+04  0.12500000000E+03 0.  0.
          2    1    1    2  502    0 -0.68912319021E+02  0.77380976448E+02 -0.28537998975E+04  0.28556804055E+04  0.00000000000E+00 0. -1.
         -2    1    1    2    0  501 -0.17447323787E+02 -0.10003721993E+02  0.14026079376E+02  0.24519675032E+02  0.00000000000E+00 0.  1.
<mgrwt>
<rscale>  0 0.45799120E+02</rscale>
<asrwt>0</asrwt>
<pdfrwt beam="2">  1        1 0.64447506E+00 0.10429508E+03</pdfrwt>
<pdfrwt beam="1">  1       -1 0.39090589E-02 0.20111777E+02</pdfrwt>
<totfact> 0.19942113E+01</totfact>
</mgrwt>
</event>
<event>
 5    1  0.9399923E-003  0.1176535E+03  0.7546771E-02  0.1290052E+00
          1   -1    0    0  501    0 -0.00000000000E+00  0.00000000000E+00  0.16820737621E+03  0.16820737621E+03  0.00000000000E+00 0. -1.
          2   -1    0    0  502    0  0.00000000000E+00 -0.00000000000E+00 -0.15125913802E+04  0.15125913802E+04  0.00000000000E+00 0. -1.
         25    1    1    2    0    0  0.16603038206E+03  0.61311753436E+02 -0.70643111384E+02  0.22790495401E+03  0.12500000000E+03 0.  0.
          2    1    1    2  501    0 -0.10489298531E+03 -0.13652321904E+02  0.56822749201E+02  0.12007393175E+03  0.00000000000E+00 0. -1.
          1    1    1    2  502    0 -0.61137396755E+02 -0.47659431532E+02 -0.13305636418E+04  0.13328198707E+04  0.00000000000E+00 0. -1.
<mgrwt>
<rscale>  0 0.95500709E+02</rscale>
<asrwt>0</asrwt>
<pdfrwt beam="2">  1        2 0.23270636E+00 0.77519047E+02</pdfrwt>
<pdfrwt beam="1">  1        1 0.25878059E-01 0.11765348E+03</pdfrwt>
<totfact> 0.36423590E+02</totfact>
</mgrwt>
</event>
<event>
 5    1  0.9399923E-003  0.1052901E+03  0.7546771E-02  0.1306804E+00
          2   -1    0    0  502    0  0.00000000000E+00  0.00000000000E+00  0.11459578783E+04  0.11459578783E+04  0.00000000000E+00 0. -1.
          1   -1    0    0  501    0 -0.00000000000E+00 -0.00000000000E+00 -0.34682239625E+03  0.34682239625E+03  0.00000000000E+00 0. -1.
         25    1    1    2    0    0  0.55876479324E+02 -0.11742286711E+03  0.21599944896E+03  0.28140908409E+03  0.12500000000E+03 0.  0.
          2    1    1    2  501    0  0.17063088779E+02  0.10381121012E+03 -0.30371592093E+03  0.32142071646E+03  0.00000000000E+00 0. -1.
          1    1    1    2  502    0 -0.72939568103E+02  0.13611656989E+02  0.88685195402E+03  0.88995047399E+03  0.00000000000E+00 0. -1.
<mgrwt>
<rscale>  0 0.88387752E+02</rscale>
<asrwt>0</asrwt>
<pdfrwt beam="1">  1        2 0.17630121E+00 0.74198772E+02</pdfrwt>
<pdfrwt beam="2">  1        1 0.53357292E-01 0.10529008E+03</pdfrwt>
<totfact> 0.23256705E+02</totfact>
</mgrwt>
</event>
<event>
 5    1  0.9399923E-003  0.6973453E+02  0.7546771E-02  0.1495449E+00
         -2   -1    0    0    0  501 -0.00000000000E+00  0.00000000000E+00  0.27954804017E+03  0.27954804017E+03  0.00000000000E+00 0.  1.
          2   -1    0    0  502    0  0.00000000000E+00 -0.00000000000E+00 -0.47312177485E+03  0.47312177485E+03  0.00000000000E+00 0. -1.
         25    1    1    2    0    0 -0.67028983564E+02 -0.18680873318E+02 -0.17434333239E+03  0.22552706537E+03  0.12500000000E+03 0.  0.
          1    1    1    2  502    0  0.10714882158E+02 -0.22633475985E+02 -0.26778919214E+03  0.26895749545E+03  0.00000000000E+00 0. -1.
         -1    1    1    2    0  501  0.56314101406E+02  0.41314349302E+02  0.24855878984E+03  0.25818525419E+03  0.00000000000E+00 0.  1.
<mgrwt>
<rscale>  0 0.41788348E+02</rscale>
<asrwt>0</asrwt>
<pdfrwt beam="2">  1        2 0.72787965E-01 0.25041624E+02</pdfrwt>
<pdfrwt beam="1">  1       -2 0.43007391E-01 0.69734535E+02</pdfrwt>
<totfact> 0.35187377E+02</totfact>
</mgrwt>
</event>
<event>
 5    1  0.9399923E-003  0.1164685E+03  0.7546771E-02  0.1284196E+00
          1   -1    0    0  501    0 -0.00000000000E+00  0.00000000000E+00  0.26809654581E+03  0.26809654581E+03  0.00000000000E+00 0. -1.
          2   -1    0    0  502    0  0.00000000000E+00 -0.00000000000E+00 -0.12557965817E+04  0.12557965817E+04  0.00000000000E+00 0. -1.
         25    1    1    2    0    0  0.97605649919E+02 -0.15308249438E+03  0.11851788254E+02  0.22074097460E+03  0.12500000000E+03 0.  0.
          2    1    1    2  501    0 -0.76148460826E+02  0.73169734930E+02  0.13173764311E+03  0.16884076761E+03  0.00000000000E+00 0. -1.
          1    1    1    2  502    0 -0.21457189092E+02  0.79912759455E+02 -0.11312894673E+04  0.11343113853E+04  0.00000000000E+00 0. -1.
<mgrwt>
<rscale>  0 0.98168195E+02</rscale>
<asrwt>0</asrwt>
<pdfrwt beam="2">  1        2 0.19319947E+00 0.82743339E+02</pdfrwt>
<pdfrwt beam="1">  1        1 0.41245623E-01 0.11646852E+03</pdfrwt>
<totfact> 0.27661266E+02</totfact>
</mgrwt>
</event>
<event>
 5    1  0.9399923E-003  0.8010946E+02  0.7546771E-02  0.1490592E+00
          1   -1    0    0  501    0 -0.00000000000E+00  0.00000000000E+00  0.21040398069E+03  0.21040398069E+03  0.00000000000E+00 0. -1.
          2   -1    0    0  502    0  0.00000000000E+00 -0.00000000000E+00 -0.16557295353E+04  0.16557295353E+04  0.00000000000E+00 0. -1.
         25    1    1    2    0    0 -0.57235960054E+02 -0.21292002560E+02 -0.94385578615E+03  0.95405348358E+03  0.12500000000E+03 0.  0.
          2    1    1    2  501    0  0.69463769747E+02  0.40233450295E+02  0.19726957070E+03  0.21297706298E+03  0.00000000000E+00 0. -1.
          1    1    1    2  502    0 -0.12227809693E+02 -0.18941447735E+02 -0.69873933912E+03  0.69910296939E+03  0.00000000000E+00 0. -1.
<mgrwt>
<rscale>  0 0.42498289E+02</rscale>
<asrwt>0</asrwt>
<pdfrwt beam="2">  1        2 0.25472761E+00 0.22545460E+02</pdfrwt>
<pdfrwt beam="1">  1        1 0.32369844E-01 0.80109458E+02</pdfrwt>
<totfact> 0.26278781E+02</totfact>
</mgrwt>
</event>
<event>
 5    1  0.9399923E-003  0.1520354E+03  0.7546771E-02  0.1235267E+00
          2   -1    0    0  502    0  0.00000000000E+00  0.00000000000E+00  0.14765150676E+04  0.14765150676E+04  0.00000000000E+00 0. -1.
          1   -1    0    0  501    0 -0.00000000000E+00 -0.00000000000E+00 -0.29424840730E+03  0.29424840730E+03  0.00000000000E+00 0. -1.
         25    1    1    2    0    0 -0.10337367941E+03 -0.89101233100E+01  0.31086088570E+03  0.35074919551E+03  0.12500000000E+03 0.  0.
          2    1    1    2  501    0 -0.48833368451E+02  0.90192824871E+02 -0.25792922979E+03  0.27757328962E+03  0.00000000000E+00 0. -1.
          1    1    1    2  502    0  0.15220704786E+03 -0.81282701561E+02  0.11293350044E+04  0.11424409898E+04  0.00000000000E+00 0. -1.
<mgrwt>
<rscale>  0 0.12487356E+03</rscale>
<asrwt>0</asrwt>
<pdfrwt beam="1">  1        2 0.22715616E+00 0.15203536E+03</pdfrwt>
<pdfrwt beam="2">  1        1 0.45268987E-01 0.10256434E+03</pdfrwt>
<totfact> 0.18055049E+02</totfact>
</mgrwt>
</event>
<event>
 5    1  0.9399923E-003  0.7424696E+02  0.7546771E-02  0.1355047E+00
          2   -1    0    0  502    0  0.00000000000E+00  0.00000000000E+00  0.13794492658E+04  0.13794492658E+04  0.00000000000E+00 0. -1.
          1   -1    0    0  501    0 -0.00000000000E+00 -0.00000000000E+00 -0.21495722682E+03  0.21495722682E+03  0.00000000000E+00 0. -1.
         25    1    1    2    0    0 -0.38886476492E+02  0.29126774153E+01  0.17092450388E+03  0.21531564683E+03  0.12500000000E+03 0.  0.
          2    1    1    2  501    0  0.28482229469E+02 -0.70987553245E+02 -0.18412829397E+03  0.19938329607E+03  0.00000000000E+00 0. -1.
          1    1    1    2  502    0  0.10404247023E+02  0.68074875830E+02  0.11776958290E+04  0.11797075497E+04  0.00000000000E+00 0. -1.
<mgrwt>
<rscale>  0 0.71505548E+02</rscale>
<asrwt>0</asrwt>
<pdfrwt beam="1">  1        2 0.21222296E+00 0.68865355E+02</pdfrwt>
<pdfrwt beam="2">  1        1 0.33070343E-01 0.74246963E+02</pdfrwt>
<totfact> 0.31507076E+02</totfact>
</mgrwt>
</event>
<event>
 5    1  0.9399923E-003  0.4243390E+02  0.7546771E-02  0.1557675E+00
          2   -1    0    0  502    0  0.00000000000E+00  0.00000000000E+00  0.20909631301E+04  0.20909631301E+04  0.00000000000E+00 0. -1.
          1   -1    0    0  501    0 -0.00000000000E+00 -0.00000000000E+00 -0.10092337452E+02  0.10092337452E+02  0.00000000000E+00 0. -1.
         25    1    1    2    0    0  0.21217994535E+02  0.64186669870E+02  0.15991097471E+04  0.16054118210E+04  0.12500000000E+03 0.  0.
          2    1    1    2  501    0 -0.72867234901E+01 -0.40778073752E+02  0.59470555971E+02  0.72475476305E+02  0.00000000000E+00 0. -1.
          1    1    1    2  502    0 -0.13931271045E+02 -0.23408596118E+02  0.42229048964E+03  0.42316817026E+03  0.00000000000E+00 0. -1.
<mgrwt>
<rscale>  0 0.33998810E+02</rscale>
<asrwt>0</asrwt>
<pdfrwt beam="1">  1        2 0.32168629E+00 0.27240460E+02</pdfrwt>
<pdfrwt beam="2">  1        1 0.15526690E-02 0.42433904E+02</pdfrwt>
<totfact> 0.78957299E+03</totfact>
</mgrwt>
</event>
<event>
 5    1  0.9399923E-003  0.6670779E+02  0.7546771E-02  0.1462439E+00
          1   -1    0    0  501    0 -0.00000000000E+00  0.00000000000E+00  0.42151847960E+03  0.42151847960E+03  0.00000000000E+00 0. -1.
          2   -1    0    0  502    0  0.00000000000E+00 -0.00000000000E+00 -0.53024935824E+03  0.53024935824E+03  0.00000000000E+00 0. -1.
         25    1    1    2    0    0  0.91996105719E+01  0.40042193276E+02 -0.29865572573E+03  0.32635602123E+03  0.12500000000E+03 0.  0.
          2    1    1    2  501    0  0.11272612778E+02 -0.66006061132E+02  0.40363873404E+03  0.40915534888E+03  0.00000000000E+00 0. -1.
          1    1    1    2  502    0 -0.20472223350E+02  0.25963867857E+02 -0.21371388694E+03  0.21625646773E+03  0.00000000000E+00 0. -1.
<mgrwt>
<rscale>  0 0.46964164E+02</rscale>
<asrwt>0</asrwt>
<pdfrwt beam="2">  1        2 0.81576824E-01 0.33064095E+02</pdfrwt>
<pdfrwt beam="1">  1        1 0.64848997E-01 0.66707789E+02</pdfrwt>
<totfact> 0.47547162E+02</totfact>
</mgrwt>
</event>
<event>
 5    1  0.9399923E-003  0.4197506E+02  0.7546771E-02  0.1603351E+00
          2   -1    0    0  502    0  0.00000000000E+00  0.00000000000E+00  0.15850591685E+03  0.15850591685E+03  0.00000000000E+00 0. -1.
          1   -1    0    0  501    0 -0.00000000000E+00 -0.00000000000E+00 -0.90667702497E+02  0.90667702497E+02  0.00000000000E+00 0. -1.
         25    1    1    2    0    0  0.40773011266E+02  0.41254603016E+02  0.49808288081E+02  0.14652728851E+03  0.12500000000E+03 0.  0.
          2    1    1    2  501    0 -0.19288113752E+02 -0.77145972957E+01 -0.32335900987E+02  0.38433798097E+02  0.00000000000E+00 0. -1.
          1    1    1    2  502    0 -0.21484897514E+02 -0.33540005720E+02  0.50365827257E+02  0.64212532735E+02  0.00000000000E+00 0. -1.
<mgrwt>
<rscale>  0 0.29529256E+02</rscale>
<asrwt>0</asrwt>
<pdfrwt beam="1">  1        2 0.24385526E-01 0.41975056E+02</pdfrwt>
<pdfrwt beam="2">  1        1 0.13948877E-01 0.20773694E+02</pdfrwt>
<totfact> 0.10004468E+04</totfact>
</mgrwt>
</event>
<event>
 5    1  0.9399923E-003  0.4186135E+02  0.7546771E-02  0.1532903E+00
          2   -1    0    0  502    0  0.00000000000E+00  0.00000000000E+00  0.53010091240E+03  0.53010091240E+03  0.00000000000E+00 0. -1.
          1   -1    0    0  501    0 -0.00000000000E+00 -0.00000000000E+00 -0.27326381757E+03  0.27326381757E+03  0.00000000000E+00 0. -1.
         25    1    1    2    0    0 -0.57493971846E+02 -0.64989404533E+01  0.26992909081E+03  0.30304208799E+03  0.12500000000E+03 0.  0.
          2    1    1    2  501    0  0.20786038291E+02  0.24864080464E+02 -0.25394126988E+03  0.25600087976E+03  0.00000000000E+00 0. -1.
          1    1    1    2  502    0  0.36707933554E+02 -0.18365140011E+02  0.24084927391E+03  0.24432176223E+03  0.00000000000E+00 0. -1.
<mgrwt>
<rscale>  0 0.36832658E+02</rscale>
<asrwt>0</asrwt>
<pdfrwt beam="1">  1        2 0.81553987E-01 0.41861345E+02</pdfrwt>
<pdfrwt beam="2">  1        1 0.42040587E-01 0.32408053E+02</pdfrwt>
<totfact> 0.79727218E+02</totfact>
</mgrwt>
</event>
<event>
 5    1  0.9399923E-003  0.1482747E+03  0.7546771E-02  0.1368814E+00
          3   -1    0    0  501    0 -0.00000000000E+00  0.00000000000E+00  0.16615927332E+03  0.16615927332E+03  0.00000000000E+00 0. -1.
          2   -1    0    0  502    0  0.00000000000E+00 -0.00000000000E+00 -0.18758194248E+04  0.18758194248E+04  0.00000000000E+00 0. -1.
         25    1    1    2    0    0  0.21055981697E+02 -0.12479546809E+03 -0.14707038000E+04  0.14814222661E+04  0.12500000000E+03 0.  0.
          2    1    1    2  501    0 -0.18823886561E+01  0.14880599919E+03  0.12558258657E+03  0.19472481823E+03  0.00000000000E+00 0. -1.
          1    1    1    2  502    0 -0.19173593041E+02 -0.24010531100E+02 -0.36453893809E+03  0.36583161381E+03  0.00000000000E+00 0. -1.
<mgrwt>
<rscale>  0 0.67498126E+02</rscale>
<asrwt>0</asrwt>
<pdfrwt beam="2">  1        2 0.28858759E+00 0.30726735E+02</pdfrwt>
<pdfrwt beam="1">  1        3 0.25562966E-01 0.14827468E+03</pdfrwt>
<totfact> 0.94829844E+01</totfact>
</mgrwt>
</event>
<event>
 5    1  0.9399923E-003  0.7544266E+02  0.7546771E-02  0.1419031E+00
         -2   -1    0    0    0  501 -0.00000000000E+00  0.00000000000E+00  0.16784246830E+03  0.16784246830E+03  0.00000000000E+00 0.  1.
          2   -1    0    0  502    0  0.00000000000E+00 -0.00000000000E+00 -0.19942147339E+04  0.19942147339E+04  0.00000000000E+00 0. -1.
         25    1    1    2    0    0  0.10272561511E+02 -0.75204701781E+02 -0.10036769755E+03  0.17736952219E+03  0.12500000000E+03 0.  0.
          1    1    1    2  502    0  0.29757309208E+02  0.69547416243E+02 -0.18513956930E+04  0.18529404612E+04  0.00000000000E+00 0. -1.
         -1    1    1    2    0  501 -0.40029870720E+02  0.56572855375E+01  0.12539112501E+03  0.13174721880E+03  0.00000000000E+00 0.  1.
<mgrwt>
<rscale>  0 0.55226533E+02</rscale>
<asrwt>0</asrwt>
<pdfrwt beam="2">  1        2 0.30680229E+00 0.75442660E+02</pdfrwt>
<pdfrwt beam="1">  1       -2 0.25821916E-01 0.40427657E+02</pdfrwt>
<totfact> 0.10977863E+02</totfact>
</mgrwt>
</event>
<event>
 5    1  0.9399923E-003  0.1024050E+03  0.7546771E-02  0.1415002E+00
         -2   -1    0    0    0  501 -0.00000000000E+00  0.00000000000E+00  0.21631880374E+04  0.21631880374E+04  0.00000000000E+00 0.  1.
          2   -1    0    0  502    0  0.00000000000E+00 -0.00000000000E+00 -0.28620944826E+02  0.28620944826E+02  0.00000000000E+00 0. -1.
         25    1    1    2    0    0 -0.12400686857E+03 -0.75007384326E+01  0.53978134379E+03  0.56782291573E+03  0.12500000000E+03 0.  0.
          1    1    1    2  502    0  0.24487636150E+02  0.18557103820E+02  0.50943259836E+01  0.31144222316E+02  0.00000000000E+00 0. -1.
         -1    1    1    2    0  501  0.99519232415E+02 -0.11056365387E+02  0.15896914228E+04  0.15928418442E+04  0.00000000000E+00 0.  1.
<mgrwt>
<rscale>  0 0.56092495E+02</rscale>
<asrwt>0</asrwt>
<pdfrwt beam="2">  1        2 0.44032240E-02 0.30724753E+02</pdfrwt>
<pdfrwt beam="1">  1       -2 0.33279803E+00 0.10240499E+03</pdfrwt>
<totfact> 0.39685669E+01</totfact>
</mgrwt>
</event>
<event>
 5    1  0.9399923E-003  0.1126555E+03  0.7546771E-02  0.1279614E+00
          2   -1    0    0  502    0  0.00000000000E+00  0.00000000000E+00  0.88294310872E+03  0.88294310872E+03  0.00000000000E+00 0. -1.
         -2   -1    0    0    0  501 -0.00000000000E+00 -0.00000000000E+00 -0.20646611175E+03  0.20646611175E+03  0.00000000000E+00 0.  1.
         25    1    1    2    0    0 -0.20535654309E+02  0.41995390948E+02 -0.19303353804E+02  0.13484415236E+03  0.12500000000E+03 0.  0.
          1    1    1    2  502    0  0.98045690906E+02  0.55482375991E+02  0.79025691111E+03  0.79824635114E+03  0.00000000000E+00 0. -1.
         -1    1    1    2    0  501 -0.77510036597E+02 -0.97477766939E+02 -0.94476560341E+02  0.15631871697E+03  0.00000000000E+00 0.  1.
<mgrwt>
<rscale>  0 0.10032478E+03</rscale>
<asrwt>0</asrwt>
<pdfrwt beam="1">  1        2 0.13583740E+00 0.11265546E+03</pdfrwt>
<pdfrwt beam="2">  1       -2 0.31764018E-01 0.89343759E+02</pdfrwt>
<totfact> 0.29522668E+02</totfact>
</mgrwt>
</event>
<event>
 5    1  0.9399923E-003  0.2329685E+02  0.7546771E-02  0.1693215E+00
          2   -1    0    0  502    0  0.00000000000E+00  0.00000000000E+00  0.15829211776E+03  0.15829211776E+03  0.00000000000E+00 0. -1.
          1   -1    0    0  501    0 -0.00000000000E+00 -0.00000000000E+00 -0.27787629566E+03  0.27787629566E+03  0.00000000000E+00 0. -1.
         25    1    1    2    0    0 -0.27759210300E+02  0.16859190295E+02  0.39716330510E+02  0.13511918059E+03  0.12500000000E+03 0.  0.
          2    1    1    2  501    0  0.22736353494E+02  0.50733650581E+01 -0.22777991825E+03  0.22896805883E+03  0.00000000000E+00 0. -1.
          1    1    1    2  502    0  0.50228568059E+01 -0.21932555353E+02  0.68479409834E+02  0.72081174006E+02  0.00000000000E+00 0. -1.
<mgrwt>
<rscale>  0 0.22895142E+02</rscale>
<asrwt>0</asrwt>
<pdfrwt beam="1">  1        2 0.24352634E-01 0.22500357E+02</pdfrwt>
<pdfrwt beam="2">  1        1 0.42750199E-01 0.23296854E+02</pdfrwt>
<totfact> 0.26204466E+03</totfact>
</mgrwt>
</event>
<event>
 5    1  0.9399923E-003  0.3492748E+02  0.7546771E-02  0.1622364E+00
          1   -1    0    0  501    0 -0.00000000000E+00  0.00000000000E+00  0.99118666609E+03  0.99118666609E+03  0.00000000000E+00 0. -1.
          2   -1    0    0  502    0  0.00000000000E+00 -0.00000000000E+00 -0.13717634992E+03  0.13717634992E+03  0.00000000000E+00 0. -1.
         25    1    1    2    0    0  0.25182909107E+02 -0.37018127358E+02  0.41582362403E+03  0.43650751078E+03  0.12500000000E+03 0.  0.
          2    1    1    2  501    0 -0.31045325337E+02  0.15493646283E+02  0.56350241345E+03  0.56456960179E+03  0.00000000000E+00 0. -1.
          1    1    1    2  502    0  0.58624162299E+01  0.21524481075E+02 -0.12531572131E+03  0.12728590345E+03  0.00000000000E+00 0. -1.
<mgrwt>
<rscale>  0 0.27913819E+02</rscale>
<asrwt>0</asrwt>
<pdfrwt beam="2">  1        2 0.21104054E-01 0.22308546E+02</pdfrwt>
<pdfrwt beam="1">  1        1 0.15249025E+00 0.34927480E+02</pdfrwt>
<totfact> 0.59589027E+02</totfact>
</mgrwt>
</event>
<event>
 5    1  0.9399923E-003  0.4474787E+02  0.7546771E-02  0.1523797E+00
          1   -1    0    0  501    0 -0.00000000000E+00  0.00000000000E+00  0.39735206273E+03  0.39735206273E+03  0.00000000000E+00 0. -1.
          2   -1    0    0  502    0  0.00000000000E+00 -0.00000000000E+00 -0.10541833628E+04  0.10541833628E+04  0.00000000000E+00 0. -1.
         25    1    1    2    0    0  0.41841210322E+01  0.74222015159E+02  0.21327450571E+03  0.25814226541E+03  0.12500000000E+03 0.  0.
          2    1    1    2  501    0  0.79350223446E+01 -0.31205980285E+02  0.15955065816E+03  0.16276728880E+03  0.00000000000E+00 0. -1.
          1    1    1    2  502    0 -0.12119143377E+02 -0.43016034875E+02 -0.10296564639E+04  0.10306258713E+04  0.00000000000E+00 0. -1.
<mgrwt>
<rscale>  0 0.37958375E+02</rscale>
<asrwt>0</asrwt>
<pdfrwt beam="2">  1        2 0.16218206E+00 0.44747872E+02</pdfrwt>
<pdfrwt beam="1">  1        1 0.61131087E-01 0.32199034E+02</pdfrwt>
<totfact> 0.23005965E+02</totfact>
</mgrwt>
</event>
<event>
 5    1  0.9399923E-003  0.3598935E+02  0.7546771E-02  0.1565457E+00
          2   -1    0    0  502    0  0.00000000000E+00  0.00000000000E+00  0.11782249932E+03  0.11782249932E+03  0.00000000000E+00 0. -1.
          1   -1    0    0  501    0 -0.00000000000E+00 -0.00000000000E+00 -0.12541377344E+04  0.12541377344E+04  0.00000000000E+00 0. -1.
         25    1    1    2    0    0 -0.69212633332E+01  0.50985626882E+02 -0.69613366431E+02  0.15204755447E+03  0.12500000000E+03 0.  0.
          2    1    1    2  501    0 -0.17620745569E+02 -0.24987725089E+02 -0.11389195169E+04  0.11393298658E+04  0.00000000000E+00 0. -1.
          1    1    1    2  502    0  0.24542008902E+02 -0.25997901793E+02  0.72217648281E+02  0.80582813439E+02  0.00000000000E+00 0. -1.
<mgrwt>
<rscale>  0 0.33172304E+02</rscale>
<asrwt>0</asrwt>
<pdfrwt beam="1">  1        2 0.18126538E-01 0.35989352E+02</pdfrwt>
<pdfrwt beam="2">  1        1 0.19294427E+00 0.30575760E+02</pdfrwt>
<totfact> 0.48954462E+02</totfact>
</mgrwt>
</event>
<event>
 5    1  0.9399923E-003  0.1557029E+03  0.7546771E-02  0.1338963E+00
         -1   -1    0    0    0  501 -0.00000000000E+00  0.00000000000E+00  0.37117547694E+03  0.37117547694E+03  0.00000000000E+00 0.  1.
          1   -1    0    0  502    0  0.00000000000E+00 -0.00000000000E+00 -0.37207207616E+03  0.37207207616E+03  0.00000000000E+00 0. -1.
         25    1    1    2    0    0 -0.18692301133E+02  0.15455674391E+03 -0.18022124398E+03  0.26896446976E+03  0.12500000000E+03 0.  0.
          2    1    1    2  502    0  0.55768173162E+02 -0.14776858501E+03 -0.10358112304E+03  0.18887745473E+03  0.00000000000E+00 0. -1.
         -2    1    1    2    0  501 -0.37075872029E+02 -0.67881589055E+01  0.28290576780E+03  0.28540562861E+03  0.00000000000E+00 0.  1.
<mgrwt>
<rscale>  0 0.76607963E+02</rscale>
<asrwt>0</asrwt>
<pdfrwt beam="2">  1        1 0.57241858E-01 0.15570291E+03</pdfrwt>
<pdfrwt beam="1">  1       -1 0.57103920E-01 0.37692166E+02</pdfrwt>
<totfact> 0.22117324E+02</totfact>
</mgrwt>
</event>
<event>
 5    1  0.9399923E-003  0.5412548E+02  0.7546771E-02  0.1517293E+00
          1   -1    0    0  501    0 -0.00000000000E+00  0.00000000000E+00  0.48124318190E+02  0.48124318190E+02  0.00000000000E+00 0. -1.
          2   -1    0    0  502    0  0.00000000000E+00 -0.00000000000E+00 -0.24524318292E+04  0.24524318292E+04  0.00000000000E+00 0. -1.
         25    1    1    2    0    0 -0.37311273596E+02  0.19543521612E+02 -0.12365251118E+04  0.12435406839E+04  0.12500000000E+03 0.  0.
          2    1    1    2  501    0 -0.19945206001E+02 -0.19369339260E+02  0.39539932531E+02  0.48336205999E+02  0.00000000000E+00 0. -1.
          1    1    1    2  502    0  0.57256479597E+02 -0.17418235237E+00 -0.12073223317E+04  0.12086792574E+04  0.00000000000E+00 0. -1.
<mgrwt>
<rscale>  0 0.38792102E+02</rscale>
<asrwt>0</asrwt>
<pdfrwt beam="2">  1        2 0.37729718E+00 0.54125483E+02</pdfrwt>
<pdfrwt beam="1">  1        1 0.74037418E-02 0.27802564E+02</pdfrwt>
<totfact> 0.57479708E+02</totfact>
</mgrwt>
</event>
<event>
 5    1  0.9399923E-003  0.3099386E+03  0.7546771E-02  0.1160239E+00
          1   -1    0    0  501    0 -0.00000000000E+00  0.00000000000E+00  0.91694825801E+03  0.91694825801E+03  0.00000000000E+00 0. -1.
          2   -1    0    0  502    0  0.00000000000E+00 -0.00000000000E+00 -0.23813666039E+04  0.23813666039E+04  0.00000000000E+00 0. -1.
         25    1    1    2    0    0 -0.36514034554E+03  0.20021355148E+03 -0.10003684022E+04  0.10907680222E+04  0.12500000000E+03 0.  0.
          2    1    1    2  501    0  0.25462244082E+03 -0.17190280201E+03  0.84211735477E+03  0.89640660412E+03  0.00000000000E+00 0. -1.
          1    1    1    2  502    0  0.11051790472E+03 -0.28310749474E+02 -0.13061672984E+04  0.13111402355E+04  0.00000000000E+00 0. -1.
<mgrwt>
<rscale>  0 0.18804197E+03</rscale>
<asrwt>0</asrwt>
<pdfrwt beam="2">  1        2 0.36636409E+00 0.11408640E+03</pdfrwt>
<pdfrwt beam="1">  1        1 0.14106896E+00 0.30993864E+03</pdfrwt>
<totfact> 0.13112953E+01</totfact>
</mgrwt>
</event>
<event>
 5    1  0.9399923E-003  0.1046613E+03  0.7546771E-02  0.1341386E+00
          1   -1    0    0  501    0 -0.00000000000E+00  0.00000000000E+00  0.66445954116E+03  0.66445954116E+03  0.00000000000E+00 0. -1.
          2   -1    0    0  502    0  0.00000000000E+00 -0.00000000000E+00 -0.10180487844E+03  0.10180487844E+03  0.00000000000E+00 0. -1.
         25    1    1    2    0    0  0.53107433541E+02 -0.70217795952E+02  0.13216332711E+03  0.20209671793E+03  0.12500000000E+03 0.  0.
          2    1    1    2  501    0  0.49157400515E+02  0.24466119740E+02  0.44749573330E+03  0.45085194062E+03  0.00000000000E+00 0. -1.
          1    1    1    2  502    0 -0.10226483406E+03  0.45751676212E+02 -0.17004397683E+02  0.11331576105E+03  0.00000000000E+00 0. -1.
<mgrwt>
<rscale>  0 0.75808243E+02</rscale>
<asrwt>0</asrwt>
<pdfrwt beam="2">  1        2 0.15662289E-01 0.10466133E+03</pdfrwt>
<pdfrwt beam="1">  1        1 0.10222454E+00 0.54909389E+02</pdfrwt>
<totfact> 0.15617970E+03</totfact>
</mgrwt>
</event>
<event>
 5    1  0.9399923E-003  0.1778198E+03  0.7546771E-02  0.1248185E+00
          2   -1    0    0  502    0  0.00000000000E+00  0.00000000000E+00  0.15527747955E+04  0.15527747955E+04  0.00000000000E+00 0. -1.
         -2   -1    0    0    0  501 -0.00000000000E+00 -0.00000000000E+00 -0.19794676625E+03  0.19794676625E+03  0.00000000000E+00 0.  1.
         25    1    1    2    0    0  0.99385318409E+02 -0.11610294638E+03 -0.53622652793E+02  0.20459160434E+03  0.12500000000E+03 0.  0.
          1    1    1    2  502    0 -0.16363298680E+03  0.73771346440E+02  0.14483706995E+04  0.14594504614E+04  0.00000000000E+00 0. -1.
         -1    1    1    2    0  501  0.64247668394E+02  0.42331599937E+02 -0.39920017448E+02  0.86679496078E+02  0.00000000000E+00 0.  1.
<mgrwt>
<rscale>  0 0.11696756E+03</rscale>
<asrwt>0</asrwt>
<pdfrwt beam="1">  1        2 0.23888842E+00 0.17781976E+03</pdfrwt>
<pdfrwt beam="2">  1       -2 0.30453350E-01 0.76939764E+02</pdfrwt>
<totfact> 0.13002121E+02</totfact>
</mgrwt>
</event>
<event>
 5    1  0.9399923E-003  0.6672906E+02  0.7546771E-02  0.1500118E+00
          1   -1    0    0  502    0  0.00000000000E+00  0.00000000000E+00  0.92433907445E+02  0.92433907445E+02  0.00000000000E+00 0. -1.
         -1   -1    0    0    0  501 -0.00000000000E+00 -0.00000000000E+00 -0.34052725072E+03  0.34052725072E+03  0.00000000000E+00 0.  1.
         25    1    1    2    0    0  0.51476842104E+02  0.91435070656E+01 -0.48729273205E+02  0.14398962137E+03  0.12500000000E+03 0.  0.
          2    1    1    2  502    0  0.16212839851E+02 -0.19475652895E+02  0.35901454271E+02  0.43943960341E+02  0.00000000000E+00 0. -1.
         -2    1    1    2    0  501 -0.67689681955E+02  0.10332145829E+02 -0.23526552434E+03  0.24502757645E+03  0.00000000000E+00 0.  1.
<mgrwt>
<rscale>  0 0.41121395E+02</rscale>
<asrwt>0</asrwt>
<pdfrwt beam="1">  1        1 0.14220601E-01 0.25340821E+02</pdfrwt>
<pdfrwt beam="2">  1       -1 0.52388807E-01 0.66729056E+02</pdfrwt>
<totfact> 0.13477197E+03</totfact>
</mgrwt>
</event>
<event>
 5    1  0.9399923E-003  0.6966100E+02  0.7546771E-02  0.1383932E+00
          1   -1    0    0  501    0 -0.00000000000E+00  0.00000000000E+00  0.91522943471E+03  0.91522943471E+03  0.00000000000E+00 0. -1.
          2   -1    0    0  502    0  0.00000000000E+00 -0.00000000000E+00 -0.14208062053E+04  0.14208062053E+04  0.00000000000E+00 0. -1.
         25    1    1    2    0    0  0.44029849898E+02  0.50405004630E+02 -0.15156272318E+03  0.20754650378E+03  0.12500000000E+03 0.  0.
          2    1    1    2  501    0 -0.69851777494E+02  0.12808386013E+01  0.88518809735E+03  0.88794080831E+03  0.00000000000E+00 0. -1.
          1    1    1    2  502    0  0.25821927596E+02 -0.51685843231E+02 -0.12392021447E+04  0.12405483279E+04  0.00000000000E+00 0. -1.
<mgrwt>
<rscale>  0 0.63441420E+02</rscale>
<asrwt>0</asrwt>
<pdfrwt beam="2">  1        2 0.21858557E+00 0.57777144E+02</pdfrwt>
<pdfrwt beam="1">  1        1 0.14080453E+00 0.69661004E+02</pdfrwt>
<totfact> 0.46800316E+01</totfact>
</mgrwt>
</event>
<event>
 5    1  0.9399923E-003  0.1879007E+03  0.7546771E-02  0.1263365E+00
          2   -1    0    0  502    0  0.00000000000E+00  0.00000000000E+00  0.60704206865E+03  0.60704206865E+03  0.00000000000E+00 0. -1.
          1   -1    0    0  501    0 -0.00000000000E+00 -0.00000000000E+00 -0.71907180591E+03  0.71907180591E+03  0.00000000000E+00 0. -1.
         25    1    1    2    0    0 -0.92857202010E+02  0.16502079332E+03  0.17403954414E+03  0.28595294213E+03  0.12500000000E+03 0.  0.
          2    1    1    2  501    0  0.14100932561E+03 -0.12493090329E+03 -0.64698067933E+03  0.67385114078E+03  0.00000000000E+00 0. -1.
          1    1    1    2  502    0 -0.48152123597E+02 -0.40089890028E+02  0.36091139794E+03  0.36630979164E+03  0.00000000000E+00 0. -1.
<mgrwt>
<rscale>  0 0.10850431E+03</rscale>
<asrwt>0</asrwt>
<pdfrwt beam="1">  1        2 0.93391088E-01 0.62656415E+02</pdfrwt>
<pdfrwt beam="2">  1        1 0.11062643E+00 0.18790072E+03</pdfrwt>
<totfact> 0.19411479E+02</totfact>
</mgrwt>
</event>
<event>
 5    1  0.9399923E-003  0.4463942E+02  0.7546771E-02  0.1580532E+00
          1   -1    0    0  501    0 -0.00000000000E+00  0.00000000000E+00  0.20052370127E+03  0.20052370127E+03  0.00000000000E+00 0. -1.
          2   -1    0    0  502    0  0.00000000000E+00 -0.00000000000E+00 -0.14025444435E+04  0.14025444435E+04  0.00000000000E+00 0. -1.
         25    1    1    2    0    0 -0.28580650390E+02 -0.33842830729E+02 -0.77109542160E+03  0.78241634696E+03  0.12500000000E+03 0.  0.
          2    1    1    2  501    0 -0.13838937700E+02  0.17665484965E+02  0.19339015158E+03  0.19468779182E+03  0.00000000000E+00 0. -1.
          1    1    1    2  502    0  0.42419588090E+02  0.16177345763E+02 -0.62431547218E+03  0.62596400597E+03  0.00000000000E+00 0. -1.
<mgrwt>
<rscale>  0 0.31650284E+02</rscale>
<asrwt>0</asrwt>
<pdfrwt beam="2">  1        2 0.21577607E+00 0.44639425E+02</pdfrwt>
<pdfrwt beam="1">  1        1 0.30849801E-01 0.22440712E+02</pdfrwt>
<totfact> 0.33462396E+02</totfact>
</mgrwt>
</event>
<event>
 5    1  0.9399923E-003  0.1150188E+03  0.7546771E-02  0.1317910E+00
          2   -1    0    0  502    0  0.00000000000E+00  0.00000000000E+00  0.18950550909E+04  0.18950550909E+04  0.00000000000E+00 0. -1.
          1   -1    0    0  501    0 -0.00000000000E+00 -0.00000000000E+00 -0.86543333103E+03  0.86543333103E+03  0.00000000000E+00 0. -1.
         25    1    1    2    0    0  0.16153381065E+02 -0.17063653768E+03 -0.40476591654E+03  0.45698819121E+03  0.12500000000E+03 0.  0.
          2    1    1    2  501    0  0.13896335562E+02  0.59841246988E+02 -0.43061129830E+03  0.43497146252E+03  0.00000000000E+00 0. -1.
          1    1    1    2  502    0 -0.30049716627E+02  0.11079529069E+03  0.18649989747E+04  0.18685287682E+04  0.00000000000E+00 0. -1.
<mgrwt>
<rscale>  0 0.84059602E+02</rscale>
<asrwt>0</asrwt>
<pdfrwt beam="1">  1        2 0.29154694E+00 0.11501883E+03</pdfrwt>
<pdfrwt beam="2">  1        1 0.13314359E+00 0.61433566E+02</pdfrwt>
<totfact> 0.27855979E+01</totfact>
</mgrwt>
</event>
<event>
 5    1  0.9399923E-003  0.4005229E+03  0.7546771E-02  0.1237942E+00
          2   -1    0    0  502    0  0.00000000000E+00  0.00000000000E+00  0.12033475102E+04  0.12033475102E+04  0.00000000000E+00 0. -1.
          1   -1    0    0  501    0 -0.00000000000E+00 -0.00000000000E+00 -0.11755782343E+04  0.11755782343E+04  0.00000000000E+00 0. -1.
         25    1    1    2    0    0  0.32577433487E+03 -0.28869857916E+03 -0.69918947343E+03  0.83304664133E+03  0.12500000000E+03 0.  0.
          2    1    1    2  501    0 -0.34077928606E+02  0.16548765665E+02 -0.37346056025E+03  0.37537708631E+03  0.00000000000E+00 0. -1.
          3    1    1    2  502    0 -0.29169640626E+03  0.27214981350E+03  0.11004193096E+04  0.11705020168E+04  0.00000000000E+00 0. -1.
<mgrwt>
<rscale>  0 0.12317974E+03</rscale>
<asrwt>0</asrwt>
<pdfrwt beam="1">  1        2 0.18513039E+00 0.40052289E+03</pdfrwt>
<pdfrwt beam="2">  1        1 0.18085819E+00 0.37883596E+02</pdfrwt>
<totfact> 0.37123381E+01</totfact>
</mgrwt>
</event>
<event>
 5    1  0.9399923E-003  0.8495985E+02  0.7546771E-02  0.1405760E+00
          2   -1    0    0  502    0  0.00000000000E+00  0.00000000000E+00  0.16794116497E+04  0.16794116497E+04  0.00000000000E+00 0. -1.
          1   -1    0    0  501    0 -0.00000000000E+00 -0.00000000000E+00 -0.37620552134E+03  0.37620552134E+03  0.00000000000E+00 0. -1.
         25    1    1    2    0    0 -0.89389018339E+02 -0.79224646048E+02 -0.16468940946E+03  0.23877718218E+03  0.12500000000E+03 0.  0.
          2    1    1    2  501    0  0.16255284097E+02  0.36330530959E+02 -0.17109223009E+03  0.17566073249E+03  0.00000000000E+00 0. -1.
          1    1    1    2  502    0  0.73133734242E+02  0.42894115089E+02  0.16389877679E+04  0.16411792564E+04  0.00000000000E+00 0. -1.
<mgrwt>
<rscale>  0 0.58150759E+02</rscale>
<asrwt>0</asrwt>
<pdfrwt beam="1">  1        2 0.25837102E+00 0.84959853E+02</pdfrwt>
<pdfrwt beam="2">  1        1 0.57877773E-01 0.39801278E+02</pdfrwt>
<totfact> 0.11108172E+02</totfact>
</mgrwt>
</event>
<event>
 5    1  0.9399923E-003  0.1327908E+03  0.7546771E-02  0.1298714E+00
         -2   -1    0    0    0  501 -0.00000000000E+00  0.00000000000E+00  0.35587297375E+03  0.35587297375E+03  0.00000000000E+00 0.  1.
          2   -1    0    0  502    0  0.00000000000E+00 -0.00000000000E+00 -0.93128680238E+03  0.93128680238E+03  0.00000000000E+00 0. -1.
         25    1    1    2    0    0 -0.13086266265E+03 -0.18213787321E+02 -0.18857132995E+03  0.26199413162E+03  0.12500000000E+03 0.  0.
          1    1    1    2  502    0  0.11028095938E+03  0.78145025710E+02 -0.69629491532E+03  0.70929200203E+03  0.00000000000E+00 0. -1.
         -1    1    1    2    0  501  0.20581703263E+02 -0.59931238388E+02  0.30945241664E+03  0.31587364247E+03  0.00000000000E+00 0.  1.
<mgrwt>
<rscale>  0 0.91730769E+02</rscale>
<asrwt>0</asrwt>
<pdfrwt beam="2">  1        2 0.14327489E+00 0.13279075E+03</pdfrwt>
<pdfrwt beam="1">  1       -2 0.54749688E-01 0.63366867E+02</pdfrwt>
<totfact> 0.97521203E+01</totfact>
</mgrwt>
</event>
<event>
 5    1  0.9399923E-003  0.1350334E+03  0.7546771E-02  0.1248372E+00
          2   -1    0    0  502    0  0.00000000000E+00  0.00000000000E+00  0.17402765048E+04  0.17402765048E+04  0.00000000000E+00 0. -1.
          1   -1    0    0  501    0 -0.00000000000E+00 -0.00000000000E+00 -0.93835807514E+03  0.93835807514E+03  0.00000000000E+00 0. -1.
         25    1    1    2    0    0  0.70440860332E+02 -0.37674281915E+02  0.43448131242E+03  0.45910813232E+03  0.12500000000E+03 0.  0.
          2    1    1    2  501    0  0.13550922930E+02 -0.10021678511E+03 -0.91821929863E+03  0.92377146086E+03  0.00000000000E+00 0. -1.
          1    1    1    2  502    0 -0.83991783262E+02  0.13789106702E+03  0.12856564159E+04  0.12957549868E+04  0.00000000000E+00 0. -1.
<mgrwt>
<rscale>  0 0.11685789E+03</rscale>
<asrwt>0</asrwt>
<pdfrwt beam="1">  1        2 0.26773485E+00 0.13503344E+03</pdfrwt>
<pdfrwt beam="2">  1        1 0.14436278E+00 0.10112879E+03</pdfrwt>
<totfact> 0.28162762E+01</totfact>
</mgrwt>
</event>
<event>
 5    1  0.9399923E-003  0.8733719E+02  0.7546771E-02  0.1414121E+00
          1   -1    0    0  501    0 -0.00000000000E+00  0.00000000000E+00  0.13049548145E+03  0.13049548145E+03  0.00000000000E+00 0. -1.
          2   -1    0    0  502    0  0.00000000000E+00 -0.00000000000E+00 -0.35956936978E+03  0.35956936978E+03  0.00000000000E+00 0. -1.
         25    1    1    2    0    0  0.50795288384E+02  0.47343089692E+02 -0.27421461417E+02  0.14559692995E+03  0.12500000000E+03 0.  0.
          2    1    1    2  501    0 -0.45791387289E+02 -0.83268609669E+02  0.37809443628E+02  0.10227446667E+03  0.00000000000E+00 0. -1.
          1    1    1    2  502    0 -0.50039010948E+01  0.35925519977E+02 -0.23946187054E+03  0.24219345460E+03  0.00000000000E+00 0. -1.
<mgrwt>
<rscale>  0 0.56284310E+02</rscale>
<asrwt>0</asrwt>
<pdfrwt beam="2">  1        2 0.55318363E-01 0.36272331E+02</pdfrwt>
<pdfrwt beam="1">  1        1 0.20076229E-01 0.87337193E+02</pdfrwt>
<totfact> 0.29752591E+03</totfact>
</mgrwt>
</event>
<event>
 5    1  0.9399923E-003  0.1527715E+03  0.7546771E-02  0.1403783E+00
          2   -1    0    0  502    0  0.00000000000E+00  0.00000000000E+00  0.74887414539E+03  0.74887414539E+03  0.00000000000E+00 0. -1.
          1   -1    0    0  501    0 -0.00000000000E+00 -0.00000000000E+00 -0.56134849721E+03  0.56134849721E+03  0.00000000000E+00 0. -1.
         25    1    1    2    0    0 -0.11471135592E+03  0.80155782165E+02  0.30336467315E+03  0.35670543801E+03  0.12500000000E+03 0.  0.
          2    1    1    2  501    0  0.11379753638E+03 -0.10261837226E+03 -0.52338319642E+03  0.54535344494E+03  0.00000000000E+00 0. -1.
          1    1    1    2  502    0  0.91381954196E+00  0.22462590091E+02  0.40754417144E+03  0.40816375966E+03  0.00000000000E+00 0. -1.
<mgrwt>
<rscale>  0 0.58604453E+02</rscale>
<asrwt>0</asrwt>
<pdfrwt beam="1">  1        2 0.11521141E+00 0.22481170E+02</pdfrwt>
<pdfrwt beam="2">  1        1 0.86361307E-01 0.15277149E+03</pdfrwt>
<totfact> 0.22545538E+02</totfact>
</mgrwt>
</event>
<event>
 5    1  0.9399923E-003  0.1201331E+03  0.7546771E-02  0.1304931E+00
          2   -1    0    0  502    0  0.00000000000E+00  0.00000000000E+00  0.18790985593E+03  0.18790985593E+03  0.00000000000E+00 0. -1.
          1   -1    0    0  501    0 -0.00000000000E+00 -0.00000000000E+00 -0.62083991398E+03  0.62083991398E+03  0.00000000000E+00 0. -1.
         25    1    1    2    0    0  0.12255774550E+03  0.29165018405E+02  0.10201173014E+03  0.20470073856E+03  0.12500000000E+03 0.  0.
          2    1    1    2  501    0 -0.11497397273E+03  0.36551885074E+02 -0.52311554124E+03  0.53684720750E+03  0.00000000000E+00 0. -1.
          1    1    1    2  502    0 -0.75837727671E+01 -0.65716903479E+02 -0.11826246942E+02  0.67201823852E+02  0.00000000000E+00 0. -1.
<mgrwt>
<rscale>  0 0.89146886E+02</rscale>
<asrwt>0</asrwt>
<pdfrwt beam="1">  1        2 0.28909209E-01 0.66153042E+02</pdfrwt>
<pdfrwt beam="2">  1        1 0.95513833E-01 0.12013306E+03</pdfrwt>
<totfact> 0.83084877E+02</totfact>
</mgrwt>
</event>
<event>
 5    1  0.9399923E-003  0.7627404E+02  0.7546771E-02  0.1351492E+00
          2   -1    0    0  502    0  0.00000000000E+00  0.00000000000E+00  0.17003894095E+04  0.17003894095E+04  0.00000000000E+00 0. -1.
         -2   -1    0    0    0  501 -0.00000000000E+00 -0.00000000000E+00 -0.37156204493E+02  0.37156204493E+02  0.00000000000E+00 0.  1.
         25    1    1    2    0    0  0.13749604886E+02  0.12935357207E+03  0.43633467030E+03  0.47215923452E+03  0.12500000000E+03 0.  0.
          1    1    1    2  502    0 -0.36090911074E+02 -0.63976492778E+02  0.11790737058E+04  0.11813595343E+04  0.00000000000E+00 0. -1.
         -1    1    1    2    0  501  0.22341306188E+02 -0.65377079293E+02  0.47824828968E+02  0.84026845263E+02  0.00000000000E+00 0.  1.
<mgrwt>
<rscale>  0 0.72592707E+02</rscale>
<asrwt>0</asrwt>
<pdfrwt beam="1">  1        2 0.26159831E+00 0.76274045E+02</pdfrwt>
<pdfrwt beam="2">  1       -2 0.57163404E-02 0.69089047E+02</pdfrwt>
<totfact> 0.17026576E+03</totfact>
</mgrwt>
</event>
<event>
 5    1  0.9399923E-003  0.6790809E+02  0.7546771E-02  0.1407126E+00
          2   -1    0    0  502    0  0.00000000000E+00  0.00000000000E+00  0.68187215716E+03  0.68187215716E+03  0.00000000000E+00 0. -1.
          1   -1    0    0  501    0 -0.00000000000E+00 -0.00000000000E+00 -0.46682668201E+03  0.46682668201E+03  0.00000000000E+00 0. -1.
         25    1    1    2    0    0 -0.10396950058E+02  0.31323454780E+02  0.14398505917E+03  0.19350956735E+03  0.12500000000E+03 0.  0.
          2    1    1    2  501    0  0.31985272397E+02  0.37469368622E+02 -0.43814435138E+03  0.44090530036E+03  0.00000000000E+00 0. -1.
          1    1    1    2  502    0 -0.21588322339E+02 -0.68792823402E+02  0.50920476735E+03  0.51428397146E+03  0.00000000000E+00 0. -1.
<mgrwt>
<rscale>  0 0.57840057E+02</rscale>
<asrwt>0</asrwt>
<pdfrwt beam="1">  1        2 0.10490341E+00 0.67908091E+02</pdfrwt>
<pdfrwt beam="2">  1        1 0.71819490E-01 0.49264706E+02</pdfrwt>
<totfact> 0.31555729E+02</totfact>
</mgrwt>
</event>
<event>
 5    1  0.9399923E-003  0.7699541E+02  0.7546771E-02  0.1397790E+00
          1   -1    0    0  501    0 -0.00000000000E+00  0.00000000000E+00  0.39542128501E+04  0.39542128501E+04  0.00000000000E+00 0. -1.
          2   -1    0    0  502    0  0.00000000000E+00 -0.00000000000E+00 -0.39188377261E+03  0.39188377261E+03  0.00000000000E+00 0. -1.
         25    1    1    2    0    0 -0.52457397874E+02 -0.10966812690E+03  0.38870937354E+03  0.42602682278E+03  0.12500000000E+03 0.  0.
          2    1    1    2  501    0  0.24985376136E+02  0.71815153639E+02  0.35449701492E+04  0.35457855327E+04  0.00000000000E+00 0. -1.
          1    1    1    2  502    0  0.27472021738E+02  0.37852973264E+02 -0.37135044520E+03  0.37428426725E+03  0.00000000000E+00 0. -1.
<mgrwt>
<rscale>  0 0.60009831E+02</rscale>
<asrwt>0</asrwt>
<pdfrwt beam="2">  1        2 0.60289814E-01 0.46771354E+02</pdfrwt>
<pdfrwt beam="1">  1        1 0.60834041E+00 0.76995415E+02</pdfrwt>
<totfact> 0.20072081E+00</totfact>
</mgrwt>
</event>
<event>
 5    1  0.9399923E-003  0.7848898E+02  0.7546771E-02  0.1470144E+00
          1   -1    0    0  501    0 -0.00000000000E+00  0.00000000000E+00  0.20038604084E+03  0.20038604084E+03  0.00000000000E+00 0. -1.
          2   -1    0    0  502    0  0.00000000000E+00 -0.00000000000E+00 -0.18473810468E+04  0.18473810468E+04  0.00000000000E+00 0. -1.
         25    1    1    2    0    0  0.35306379491E+02 -0.98215940685E+02  0.85901011383E+02  0.18411109471E+03  0.12500000000E+03 0.  0.
          2    1    1    2  501    0 -0.45036546992E+01  0.26200575965E+02  0.61787525578E+02  0.67264042427E+02  0.00000000000E+00 0. -1.
          1    1    1    2  502    0 -0.30802724791E+02  0.72015364721E+02 -0.17946835430E+04  0.17963919505E+04  0.00000000000E+00 0. -1.
<mgrwt>
<rscale>  0 0.45679492E+02</rscale>
<asrwt>0</asrwt>
<pdfrwt beam="2">  1        2 0.28421248E+00 0.78488977E+02</pdfrwt>
<pdfrwt beam="1">  1        1 0.30828621E-01 0.26584828E+02</pdfrwt>
<totfact> 0.19242799E+02</totfact>
</mgrwt>
</event>
<event>
 5    1  0.9399923E-003  0.1189877E+03  0.7546771E-02  0.1317960E+00
          1   -1    0    0  501    0 -0.00000000000E+00  0.00000000000E+00  0.84126420122E+03  0.84126420122E+03  0.00000000000E+00 0. -1.
          2   -1    0    0  502    0  0.00000000000E+00 -0.00000000000E+00 -0.22605033097E+04  0.22605033097E+04  0.00000000000E+00 0. -1.
         25    1    1    2    0    0  0.14036066989E+03  0.10005467852E+03 -0.32022851641E+03  0.38455605452E+03  0.12500000000E+03 0.  0.
          2    1    1    2  501    0 -0.10674914171E+03 -0.51130110000E+02  0.80430649848E+03  0.81296900980E+03  0.00000000000E+00 0. -1.
          1    1    1    2  502    0 -0.33611528189E+02 -0.48924568516E+02 -0.19033170906E+04  0.19042424466E+04  0.00000000000E+00 0. -1.
<mgrwt>
<rscale>  0 0.84040735E+02</rscale>
<asrwt>0</asrwt>
<pdfrwt beam="2">  1        2 0.34776974E+00 0.59357798E+02</pdfrwt>
<pdfrwt beam="1">  1        1 0.12942526E+00 0.11898765E+03</pdfrwt>
<totfact> 0.19843902E+01</totfact>
</mgrwt>
</event>
<event>
 5    1  0.9399923E-003  0.1032737E+03  0.7546771E-02  0.1275485E+00
          2   -1    0    0  502    0  0.00000000000E+00  0.00000000000E+00  0.58853552784E+03  0.58853552784E+03  0.00000000000E+00 0. -1.
          1   -1    0    0  501    0 -0.00000000000E+00 -0.00000000000E+00 -0.47661431292E+03  0.47661431292E+03  0.00000000000E+00 0. -1.
         25    1    1    2    0    0  0.70300754163E+02  0.16978371353E+01  0.23243148513E+03  0.27311988937E+03  0.12500000000E+03 0.  0.
          2    1    1    2  501    0  0.16017536598E+02  0.10202404399E+03 -0.43643803898E+03  0.44849038886E+03  0.00000000000E+00 0. -1.
          1    1    1    2  502    0 -0.86318290762E+02 -0.10372188113E+03  0.31592776877E+03  0.34353956253E+03  0.00000000000E+00 0. -1.
<mgrwt>
<rscale>  0 0.10232322E+03</rscale>
<asrwt>0</asrwt>
<pdfrwt beam="1">  1        2 0.90543927E-01 0.10138145E+03</pdfrwt>
<pdfrwt beam="2">  1        1 0.73325279E-01 0.10327375E+03</pdfrwt>
<totfact> 0.35423909E+02</totfact>
</mgrwt>
</event>
<event>
 5    1  0.9399923E-003  0.8884189E+02  0.7546771E-02  0.1461563E+00
          1   -1    0    0  501    0 -0.00000000000E+00  0.00000000000E+00  0.98774802324E+03  0.98774802324E+03  0.00000000000E+00 0. -1.
          2   -1    0    0  502    0  0.00000000000E+00 -0.00000000000E+00 -0.10110501902E+04  0.10110501902E+04  0.00000000000E+00 0. -1.
         25    1    1    2    0    0 -0.61194024820E+02 -0.81461552854E+02 -0.33823373900E+03  0.37471022867E+03  0.12500000000E+03 0.  0.
          2    1    1    2  501    0  0.67767218153E+02  0.57357100744E+02  0.96723759379E+03  0.97130365783E+03  0.00000000000E+00 0. -1.
          1    1    1    2  502    0 -0.65731933333E+01  0.24104452110E+02 -0.65230602180E+03  0.65278432699E+03  0.00000000000E+00 0. -1.
<mgrwt>
<rscale>  0 0.47113494E+02</rscale>
<asrwt>0</asrwt>
<pdfrwt beam="2">  1        2 0.15554618E+00 0.24984625E+02</pdfrwt>
<pdfrwt beam="1">  1        1 0.15196123E+00 0.88841890E+02</pdfrwt>
<totfact> 0.70499981E+01</totfact>
</mgrwt>
</event>
<event>
 5    1  0.9399923E-003  0.1311701E+03  0.7546771E-02  0.1230492E+00
          2   -1    0    0  502    0  0.00000000000E+00  0.00000000000E+00  0.31890310492E+03  0.31890310492E+03  0.00000000000E+00 0. -1.
          1   -1    0    0  501    0 -0.00000000000E+00 -0.00000000000E+00 -0.85674135096E+03  0.85674135096E+03  0.00000000000E+00 0. -1.
         25    1    1    2    0    0 -0.11737877162E+03  0.13351077372E+03 -0.41261736947E+03  0.46634857812E+03  0.12500000000E+03 0.  0.
          2    1    1    2  501    0 -0.72872965438E+01 -0.12660909211E+03 -0.39347550193E+03  0.41340771342E+03  0.00000000000E+00 0. -1.
          1    1    1    2  502    0  0.12466606816E+03 -0.69016816098E+01  0.26825462537E+03  0.29588816433E+03  0.00000000000E+00 0. -1.
<mgrwt>
<rscale>  0 0.12797461E+03</rscale>
<asrwt>0</asrwt>
<pdfrwt beam="1">  1        2 0.49062016E-01 0.12485697E+03</pdfrwt>
<pdfrwt beam="2">  1        1 0.13180636E+00 0.13117010E+03</pdfrwt>
<totfact> 0.29979044E+02</totfact>
</mgrwt>
</event>
<event>
 5    1  0.9399923E-003  0.5158908E+02  0.7546771E-02  0.1480488E+00
         -1   -1    0    0    0  502 -0.00000000000E+00  0.00000000000E+00  0.48148449792E+02  0.48148449792E+02  0.00000000000E+00 0.  1.
         -2   -1    0    0    0  501  0.00000000000E+00 -0.00000000000E+00 -0.56028385244E+03  0.56028385244E+03  0.00000000000E+00 0.  1.
         25    1    1    2    0    0  0.99297877433E+01 -0.13258151616E+02 -0.11417415946E+03  0.17010325675E+03  0.12500000000E+03 0.  0.
         -2    1    1    2    0  502  0.28411096886E+02 -0.24596323053E+02 -0.85941276355E+00  0.37588670158E+02  0.00000000000E+00 0.  1.
         -1    1    1    2    0  501 -0.38340884629E+02  0.37854474669E+02 -0.39710183043E+03  0.40074037532E+03  0.00000000000E+00 0.  1.
<mgrwt>
<rscale>  0 0.44030192E+02</rscale>
<asrwt>0</asrwt>
<pdfrwt beam="2">  1       -2 0.86197517E-01 0.51589075E+02</pdfrwt>
<pdfrwt beam="1">  1       -1 0.74074537E-02 0.37578844E+02</pdfrwt>
<totfact> 0.76405617E+02</totfact>
</mgrwt>
</event>
<event>
 5    1  0.9399923E-003  0.2710453E+03  0.7546771E-02  0.1236255E+00
          2   -1    0    0  502    0  0.00000000000E+00  0.00000000000E+00  0.65210713551E+03  0.65210713551E+03  0.00000000000E+00 0. -1.
          1   -1    0    0  501    0 -0.00000000000E+00 -0.00000000000E+00 -0.28118939177E+04  0.28118939177E+04  0.00000000000E+00 0. -1.
         25    1    1    2    0    0  0.12342690798E+03  0.29892316127E+03  0.88552671195E+02  0.35784889763E+03  0.12500000000E+03 0.  0.
          2    1    1    2  501    0 -0.87210882981E+02 -0.25496923007E+03 -0.26685391915E+04  0.26821104495E+04  0.00000000000E+00 0. -1.
          1    1    1    2  502    0 -0.36216025002E+02 -0.43953931191E+02  0.42019973818E+03  0.42404170608E+03  0.00000000000E+00 0. -1.
<mgrwt>
<rscale>  0 0.12424418E+03</rscale>
<asrwt>0</asrwt>
<pdfrwt beam="1">  1        2 0.10032418E+00 0.56952160E+02</pdfrwt>
<pdfrwt beam="2">  1        1 0.43259905E+00 0.27104530E+03</pdfrwt>
<totfact> 0.63991898E+00</totfact>
</mgrwt>
</event>
<event>
 5    1  0.9399923E-003  0.5787472E+02  0.7546771E-02  0.1414490E+00
          2   -1    0    0  502    0  0.00000000000E+00  0.00000000000E+00  0.25756369717E+04  0.25756369717E+04  0.00000000000E+00 0. -1.
          1   -1    0    0  501    0 -0.00000000000E+00 -0.00000000000E+00 -0.22442476258E+03  0.22442476258E+03  0.00000000000E+00 0. -1.
         25    1    1    2    0    0  0.56845576334E+02 -0.32639955144E+01  0.13143687405E+03  0.19011240116E+03  0.12500000000E+03 0.  0.
          2    1    1    2  501    0 -0.22071304463E+02  0.49919635205E+02 -0.19091135087E+03  0.19856046019E+03  0.00000000000E+00 0. -1.
          1    1    1    2  502    0 -0.34774271871E+02 -0.46655639691E+02  0.24106866859E+04  0.24113888729E+04  0.00000000000E+00 0. -1.
<mgrwt>
<rscale>  0 0.56203863E+02</rscale>
<asrwt>0</asrwt>
<pdfrwt beam="1">  1        2 0.39625182E+00 0.57874718E+02</pdfrwt>
<pdfrwt beam="2">  1        1 0.34526888E-01 0.54581246E+02</pdfrwt>
<totfact> 0.76410489E+01</totfact>
</mgrwt>
</event>
<event>
 5    1  0.9399923E-003  0.1089295E+03  0.7546771E-02  0.1361425E+00
          1   -1    0    0  501    0 -0.00000000000E+00  0.00000000000E+00  0.77878776460E+03  0.77878776460E+03  0.00000000000E+00 0. -1.
          2   -1    0    0  502    0  0.00000000000E+00 -0.00000000000E+00 -0.26391577362E+03  0.26391577362E+03  0.00000000000E+00 0. -1.
         25    1    1    2    0    0 -0.80173062663E+02  0.42927957207E+01 -0.67146781243E+02  0.16303324294E+03  0.12500000000E+03 0.  0.
          2    1    1    2  501    0 -0.43915588859E+02  0.70822459987E+01  0.70393570991E+03  0.70533979105E+03  0.00000000000E+00 0. -1.
          1    1    1    2  502    0  0.12408865152E+03 -0.11375041719E+02 -0.12191693768E+03  0.17433050423E+03  0.00000000000E+00 0. -1.
<mgrwt>
<rscale>  0 0.69609702E+02</rscale>
<asrwt>0</asrwt>
<pdfrwt beam="2">  1        2 0.40602427E-01 0.10892950E+03</pdfrwt>
<pdfrwt beam="1">  1        1 0.11981350E+00 0.44482998E+02</pdfrwt>
<totfact> 0.44542071E+02</totfact>
</mgrwt>
</event>
<event>
 5    1  0.9399923E-003  0.9800342E+02  0.7546771E-02  0.1300196E+00
         -2   -1    0    0    0  501 -0.00000000000E+00  0.00000000000E+00  0.70352391444E+03  0.70352391444E+03  0.00000000000E+00 0.  1.
          2   -1    0    0  502    0  0.00000000000E+00 -0.00000000000E+00 -0.19930806404E+03  0.19930806404E+03  0.00000000000E+00 0. -1.
         25    1    1    2    0    0  0.35906068670E+02  0.59366699011E+01  0.28941410738E+02  0.13336826861E+03  0.12500000000E+03 0.  0.
          1    1    1    2  502    0 -0.11320913655E+03  0.28664546556E+02 -0.12043874958E+03  0.16776011811E+03  0.00000000000E+00 0. -1.
         -1    1    1    2    0  501  0.77303067882E+02 -0.34601216457E+02  0.59571318925E+03  0.60170359175E+03  0.00000000000E+00 0.  1.
<mgrwt>
<rscale>  0 0.91105783E+02</rscale>
<asrwt>0</asrwt>
<pdfrwt beam="2">  1        2 0.30662779E-01 0.98003417E+02</pdfrwt>
<pdfrwt beam="1">  1       -2 0.10823445E+00 0.84693615E+02</pdfrwt>
<totfact> 0.12501199E+02</totfact>
</mgrwt>
</event>
<event>
 5    1  0.9399923E-003  0.7879392E+02  0.7546771E-02  0.1455751E+00
          2   -1    0    0  502    0  0.00000000000E+00  0.00000000000E+00  0.15658702859E+04  0.15658702859E+04  0.00000000000E+00 0. -1.
          1   -1    0    0  501    0 -0.00000000000E+00 -0.00000000000E+00 -0.10157124123E+04  0.10157124123E+04  0.00000000000E+00 0. -1.
         25    1    1    2    0    0 -0.12634442378E+02 -0.10207149056E+03 -0.24386374537E+03  0.29269906837E+03  0.12500000000E+03 0.  0.
          2    1    1    2  501    0  0.21193542035E+02  0.73957688525E+02 -0.74531063394E+03  0.74927087691E+03  0.00000000000E+00 0. -1.
          1    1    1    2  502    0 -0.85590996572E+01  0.28113802035E+02  0.15393322529E+04  0.15396127529E+04  0.00000000000E+00 0. -1.
<mgrwt>
<rscale>  0 0.48120491E+02</rscale>
<asrwt>0</asrwt>
<pdfrwt beam="1">  1        2 0.24090312E+00 0.29387821E+02</pdfrwt>
<pdfrwt beam="2">  1        1 0.15626345E+00 0.78793920E+02</pdfrwt>
<totfact> 0.35391147E+01</totfact>
</mgrwt>
</event>
<event>
 5    1  0.9399923E-003  0.4635670E+02  0.7546771E-02  0.1587218E+00
          2   -1    0    0  502    0  0.00000000000E+00  0.00000000000E+00  0.96900303896E+03  0.96900303896E+03  0.00000000000E+00 0. -1.
          1   -1    0    0  501    0 -0.00000000000E+00 -0.00000000000E+00 -0.12319310548E+02  0.12319310548E+02  0.00000000000E+00 0. -1.
         25    1    1    2    0    0  0.82560132835E+01 -0.29012701288E+02  0.57523620241E+03  0.58943327625E+03  0.12500000000E+03 0.  0.
          2    1    1    2  501    0 -0.62738561043E+01  0.49657515325E+02  0.12565050027E+03  0.13525264624E+03  0.00000000000E+00 0. -1.
          1    1    1    2  502    0 -0.19821571792E+01 -0.20644814037E+02  0.25579702574E+03  0.25663642702E+03  0.00000000000E+00 0. -1.
<mgrwt>
<rscale>  0 0.31006877E+02</rscale>
<asrwt>0</asrwt>
<pdfrwt beam="1">  1        2 0.14907733E+00 0.20739752E+02</pdfrwt>
<pdfrwt beam="2">  1        1 0.18952793E-02 0.46356699E+02</pdfrwt>
<totfact> 0.21909199E+04</totfact>
</mgrwt>
</event>
<event>
 5    1  0.9399923E-003  0.7523065E+02  0.7546771E-02  0.1373895E+00
         -1   -1    0    0    0  501 -0.00000000000E+00  0.00000000000E+00  0.88234598706E+02  0.88234598706E+02  0.00000000000E+00 0.  1.
          1   -1    0    0  502    0  0.00000000000E+00 -0.00000000000E+00 -0.24417681376E+03  0.24417681376E+03  0.00000000000E+00 0. -1.
         25    1    1    2    0    0  0.96323496076E+02 -0.70233764816E+01 -0.55187920513E+02  0.16732677695E+03  0.12500000000E+03 0.  0.
          2    1    1    2  502    0 -0.43365750542E+02 -0.38621809670E+02 -0.62794192520E+02  0.85529779121E+02  0.00000000000E+00 0. -1.
         -2    1    1    2    0  501 -0.52957745533E+02  0.45645186152E+02 -0.37960102021E+02  0.79554856396E+02  0.00000000000E+00 0.  1.
<mgrwt>
<rscale>  0 0.66096245E+02</rscale>
<asrwt>0</asrwt>
<pdfrwt beam="2">  1        1 0.37565663E-01 0.58070926E+02</pdfrwt>
<pdfrwt beam="1">  1       -1 0.13574554E-01 0.75230652E+02</pdfrwt>
<totfact> 0.39662511E+03</totfact>
</mgrwt>
</event>
<event>
 5    1  0.9399923E-003  0.1074691E+03  0.7546771E-02  0.1322795E+00
         -1   -1    0    0    0  501 -0.00000000000E+00  0.00000000000E+00  0.24753871706E+03  0.24753871706E+03  0.00000000000E+00 0.  1.
          1   -1    0    0  502    0  0.00000000000E+00 -0.00000000000E+00 -0.62420553217E+03  0.62420553217E+03  0.00000000000E+00 0. -1.
         25    1    1    2    0    0 -0.84836730340E+02  0.70295537532E+02 -0.21477072938E+03  0.27182751813E+03  0.12500000000E+03 0.  0.
          2    1    1    2  502    0  0.32830458964E+02 -0.10575295316E+03 -0.36806109278E+03  0.38435724808E+03  0.00000000000E+00 0. -1.
         -2    1    1    2    0  501  0.52006271375E+02  0.35457415630E+02  0.20616500705E+03  0.21555948301E+03  0.00000000000E+00 0.  1.
<mgrwt>
<rscale>  0 0.82246456E+02</rscale>
<asrwt>0</asrwt>
<pdfrwt beam="2">  1        1 0.96031619E-01 0.10746912E+03</pdfrwt>
<pdfrwt beam="1">  1       -1 0.38082880E-01 0.62943471E+02</pdfrwt>
<totfact> 0.23192841E+02</totfact>
</mgrwt>
</event>
<event>
 5    1  0.9399923E-003  0.1253021E+03  0.7546771E-02  0.1336947E+00
         -1   -1    0    0    0  501 -0.00000000000E+00  0.00000000000E+00  0.29546532040E+02  0.29546532040E+02  0.00000000000E+00 0.  1.
          1   -1    0    0  502    0  0.00000000000E+00 -0.00000000000E+00 -0.33087560978E+04  0.33087560978E+04  0.00000000000E+00 0. -1.
         25    1    1    2    0    0  0.29623003226E+02  0.80237705490E+02 -0.15017094243E+04  0.15093282634E+04  0.12500000000E+03 0.  0.
          2    1    1    2  502    0 -0.56208853549E+01  0.47332197365E+02 -0.16369782005E+04  0.16376719941E+04  0.00000000000E+00 0. -1.
         -2    1    1    2    0  501 -0.24002117871E+02 -0.12756990286E+03 -0.14052194095E+03  0.19130237235E+03  0.00000000000E+00 0.  1.
<mgrwt>
<rscale>  0 0.77281928E+02</rscale>
<asrwt>0</asrwt>
<pdfrwt beam="2">  1        1 0.50903909E+00 0.47664780E+02</pdfrwt>
<pdfrwt beam="1">  1       -1 0.45456231E-02 0.12530209E+03</pdfrwt>
<totfact> 0.11412622E+02</totfact>
</mgrwt>
</event>
<event>
 5    1  0.9399923E-003  0.1649229E+03  0.7546771E-02  0.1325632E+00
          1   -1    0    0  501    0 -0.00000000000E+00  0.00000000000E+00  0.84011921029E+03  0.84011921029E+03  0.00000000000E+00 0. -1.
          2   -1    0    0  502    0  0.00000000000E+00 -0.00000000000E+00 -0.10635916457E+03  0.10635916457E+03  0.00000000000E+00 0. -1.
         25    1    1    2    0    0  0.11973550673E+03  0.85810601401E+02  0.28061934394E+03  0.34069380252E+03  0.12500000000E+03 0.  0.
          2    1    1    2  501    0 -0.34953542683E+01  0.39842823213E+02  0.43138313396E+03  0.43323328165E+03  0.00000000000E+00 0. -1.
          1    1    1    2  502    0 -0.11624015246E+03 -0.12565342461E+03  0.21757567829E+02  0.17255129069E+03  0.00000000000E+00 0. -1.
<mgrwt>
<rscale>  0 0.81217180E+02</rscale>
<asrwt>0</asrwt>
<pdfrwt beam="2">  1        2 0.16362949E-01 0.16492287E+03</pdfrwt>
<pdfrwt beam="1">  1        1 0.12924911E+00 0.39995851E+02</pdfrwt>
<totfact> 0.11051112E+03</totfact>
</mgrwt>
</event>
<event>
 5    1  0.9399923E-003  0.5137418E+02  0.7546771E-02  0.1522198E+00
          2   -1    0    0  502    0  0.00000000000E+00  0.00000000000E+00  0.62384756700E+02  0.62384756700E+02  0.00000000000E+00 0. -1.
          1   -1    0    0  501    0 -0.00000000000E+00 -0.00000000000E+00 -0.49386078789E+03  0.49386078789E+03  0.00000000000E+00 0. -1.
         25    1    1    2    0    0 -0.60762129658E+01  0.36334448080E+02 -0.10411049642E+03  0.16679660652E+03  0.12500000000E+03 0.  0.
          2    1    1    2  501    0 -0.27495056071E+02  0.68938231820E+01 -0.33320196763E+03  0.33440552349E+03  0.00000000000E+00 0. -1.
          1    1    1    2  502    0  0.33571269037E+02 -0.43228271262E+02  0.58364328562E+01  0.55043414588E+02  0.00000000000E+00 0. -1.
<mgrwt>
<rscale>  0 0.38160963E+02</rscale>
<asrwt>0</asrwt>
<pdfrwt beam="1">  1        2 0.95976546E-02 0.51374181E+02</pdfrwt>
<pdfrwt beam="2">  1        1 0.75978585E-01 0.28346127E+02</pdfrwt>
<totfact> 0.39671393E+03</totfact>
</mgrwt>
</event>
<event>
 5    1  0.9399923E-003  0.3866668E+03  0.7546771E-02  0.1176649E+00
          1   -1    0    0  501    0 -0.00000000000E+00  0.00000000000E+00  0.11159070625E+04  0.11159070625E+04  0.00000000000E+00 0. -1.
          2   -1    0    0  502    0  0.00000000000E+00 -0.00000000000E+00 -0.91819063963E+03  0.91819063963E+03  0.00000000000E+00 0. -1.
         25    1    1    2    0    0 -0.52578162626E+02  0.33810129421E+03  0.10878731062E+03  0.38017973024E+03  0.12500000000E+03 0.  0.
          2    1    1    2  501    0  0.11022244172E+03 -0.38726179617E+03  0.82285901822E+03  0.91608823227E+03  0.00000000000E+00 0. -1.
          1    1    1    2  502    0 -0.57644279098E+02  0.49160501962E+02 -0.73392990594E+03  0.73782973965E+03  0.00000000000E+00 0. -1.
<mgrwt>
<rscale>  0 0.17115485E+03</rscale>
<asrwt>0</asrwt>
<pdfrwt beam="2">  1        2 0.14126010E+00 0.75760266E+02</pdfrwt>
<pdfrwt beam="1">  1        1 0.17167801E+00 0.38666684E+03</pdfrwt>
<totfact> 0.55364398E+01</totfact>
</mgrwt>
</event>
<event>
 5    1  0.9399923E-003  0.1467127E+03  0.7546771E-02  0.1273778E+00
          1   -1    0    0  501    0 -0.00000000000E+00  0.00000000000E+00  0.24830987610E+03  0.24830987610E+03  0.00000000000E+00 0. -1.
          2   -1    0    0  502    0  0.00000000000E+00 -0.00000000000E+00 -0.99698701477E+03  0.99698701477E+03  0.00000000000E+00 0. -1.
         25    1    1    2    0    0 -0.49820697208E+02 -0.69449927303E+02 -0.15897429795E+03  0.21955232106E+03  0.12500000000E+03 0.  0.
          2    1    1    2  501    0  0.10874938845E+03  0.11175722366E+03  0.18823307698E+03  0.24443362657E+03  0.00000000000E+00 0. -1.
          1    1    1    2  502    0 -0.58928691245E+02 -0.42307296360E+02 -0.77793591770E+03  0.78131094324E+03  0.00000000000E+00 0. -1.
<mgrwt>
<rscale>  0 0.10316488E+03</rscale>
<asrwt>0</asrwt>
<pdfrwt beam="2">  1        2 0.15338262E+00 0.72543077E+02</pdfrwt>
<pdfrwt beam="1">  1        1 0.38201519E-01 0.14671274E+03</pdfrwt>
<totfact> 0.42661831E+02</totfact>
</mgrwt>
</event>
<event>
 5    1  0.9399923E-003  0.5271581E+02  0.7546771E-02  0.1456881E+00
          2   -1    0    0  502    0  0.00000000000E+00  0.00000000000E+00  0.33122219506E+03  0.33122219506E+03  0.00000000000E+00 0. -1.
          1   -1    0    0  501    0 -0.00000000000E+00 -0.00000000000E+00 -0.17700730054E+04  0.17700730054E+04  0.00000000000E+00 0. -1.
         25    1    1    2    0    0  0.44192555427E+01  0.91395595208E+02 -0.84169966597E+03  0.85583644018E+03  0.12500000000E+03 0.  0.
          2    1    1    2  501    0  0.52359551096E+01 -0.48914220742E+02 -0.91918052089E+03  0.92049597837E+03  0.00000000000E+00 0. -1.
          1    1    1    2  502    0 -0.96552106523E+01 -0.42481374465E+02  0.32202937653E+03  0.32496278190E+03  0.00000000000E+00 0. -1.
<mgrwt>
<rscale>  0 0.47922361E+02</rscale>
<asrwt>0</asrwt>
<pdfrwt beam="1">  1        2 0.50957261E-01 0.43564782E+02</pdfrwt>
<pdfrwt beam="2">  1        1 0.27231892E+00 0.52715807E+02</pdfrwt>
<totfact> 0.76042699E+01</totfact>
</mgrwt>
</event>
<event>
 5    1  0.9399923E-003  0.1031217E+03  0.7546771E-02  0.1442244E+00
          1   -1    0    0  502    0  0.00000000000E+00  0.00000000000E+00  0.22760708999E+04  0.22760708999E+04  0.00000000000E+00 0. -1.
         -1   -1    0    0    0  501 -0.00000000000E+00 -0.00000000000E+00 -0.81162830614E+02  0.81162830614E+02  0.00000000000E+00 0.  1.
         25    1    1    2    0    0 -0.11308962097E+03 -0.40664286396E+02  0.65323641414E+03  0.67585920080E+03  0.12500000000E+03 0.  0.
          2    1    1    2  502    0  0.98801069155E+02  0.20384675437E+02  0.16076884354E+04  0.16108504870E+04  0.00000000000E+00 0. -1.
         -2    1    1    2    0  501  0.14288551818E+02  0.20279610959E+02 -0.66016780202E+02  0.70524042722E+02  0.00000000000E+00 0.  1.
<mgrwt>
<rscale>  0 0.50578833E+02</rscale>
<asrwt>0</asrwt>
<pdfrwt beam="1">  1        1 0.35016471E+00 0.10312167E+03</pdfrwt>
<pdfrwt beam="2">  1       -1 0.12486591E-01 0.24807768E+02</pdfrwt>
<totfact> 0.94143304E+01</totfact>
</mgrwt>
</event>
<event>
 5    1  0.9399923E-003  0.5716935E+02  0.7546771E-02  0.1478551E+00
          1   -1    0    0  501    0 -0.00000000000E+00  0.00000000000E+00  0.55304465531E+03  0.55304465531E+03  0.00000000000E+00 0. -1.
          2   -1    0    0  502    0  0.00000000000E+00 -0.00000000000E+00 -0.81082689306E+02  0.81082689306E+02  0.00000000000E+00 0. -1.
         25    1    1    2    0    0  0.15591689603E+02  0.87023589884E+02  0.42854448824E+03  0.45507316377E+03  0.12500000000E+03 0.  0.
          2    1    1    2  501    0  0.38867936803E+01 -0.34157817519E+02  0.96011430329E+02  0.10198067668E+03  0.00000000000E+00 0. -1.
          1    1    1    2  502    0 -0.19478483283E+02 -0.52865772366E+02 -0.52593952561E+02  0.77073504169E+02  0.00000000000E+00 0. -1.
<mgrwt>
<rscale>  0 0.44332629E+02</rscale>
<asrwt>0</asrwt>
<pdfrwt beam="2">  1        2 0.12474260E-01 0.57169353E+02</pdfrwt>
<pdfrwt beam="1">  1        1 0.85083791E-01 0.34378244E+02</pdfrwt>
<totfact> 0.25396539E+03</totfact>
</mgrwt>
</event>
<event>
 5    1  0.9399923E-003  0.4215914E+02  0.7546771E-02  0.1507585E+00
         -2   -1    0    0    0  501 -0.00000000000E+00  0.00000000000E+00  0.20170313202E+03  0.20170313202E+03  0.00000000000E+00 0.  1.
          2   -1    0    0  502    0  0.00000000000E+00 -0.00000000000E+00 -0.80562705957E+02  0.80562705957E+02  0.00000000000E+00 0. -1.
         25    1    1    2    0    0 -0.24501265834E+02  0.40620221956E+02  0.12077552481E+03  0.18017225605E+03  0.12500000000E+03 0.  0.
          1    1    1    2  502    0 -0.13612125911E+02 -0.40700388274E+02 -0.30829478427E+02  0.52841918186E+02  0.00000000000E+00 0. -1.
         -1    1    1    2    0  501  0.38113391745E+02  0.80166317993E-01  0.31194379678E+02  0.49251663733E+02  0.00000000000E+00 0.  1.
<mgrwt>
<rscale>  0 0.40085303E+02</rscale>
<asrwt>0</asrwt>
<pdfrwt beam="2">  1        2 0.12394263E-01 0.42159144E+02</pdfrwt>
<pdfrwt beam="1">  1       -2 0.31031251E-01 0.38113476E+02</pdfrwt>
<totfact> 0.40745330E+03</totfact>
</mgrwt>
</event>
<event>
 5    1  0.9399923E-003  0.1700235E+03  0.7546771E-02  0.1201839E+00
          2   -1    0    0  502    0  0.00000000000E+00  0.00000000000E+00  0.13141502064E+04  0.13141502064E+04  0.00000000000E+00 0. -1.
          1   -1    0    0  501    0 -0.00000000000E+00 -0.00000000000E+00 -0.14371429728E+04  0.14371429728E+04  0.00000000000E+00 0. -1.
         25    1    1    2    0    0  0.21787873085E+03  0.11583101811E+03 -0.33002251971E+03  0.43061331799E+03  0.12500000000E+03 0.  0.
          2    1    1    2  501    0 -0.89243586887E+02 -0.13715080634E+03 -0.10470909337E+04  0.10597991248E+04  0.00000000000E+00 0. -1.
          1    1    1    2  502    0 -0.12863514396E+03  0.21319788233E+02  0.12541206870E+04  0.12608807363E+04  0.00000000000E+00 0. -1.
<mgrwt>
<rscale>  0 0.14889376E+03</rscale>
<asrwt>0</asrwt>
<pdfrwt beam="1">  1        2 0.20217696E+00 0.13038993E+03</pdfrwt>
<pdfrwt beam="2">  1        1 0.22109892E+00 0.17002350E+03</pdfrwt>
<totfact> 0.20490080E+01</totfact>
</mgrwt>
</event>
<event>
 5    1  0.9399923E-003  0.9757798E+02  0.7546771E-02  0.1298735E+00
         -1   -1    0    0    0  501 -0.00000000000E+00  0.00000000000E+00  0.11190441536E+03  0.11190441536E+03  0.00000000000E+00 0.  1.
          1   -1    0    0  502    0  0.00000000000E+00 -0.00000000000E+00 -0.33079527711E+03  0.33079527711E+03  0.00000000000E+00 0. -1.
         25    1    1    2    0    0  0.42842989517E+02  0.88712032193E+02 -0.92980601480E+02  0.18432508961E+03  0.12500000000E+03 0.  0.
          2    1    1    2  502    0  0.42756489679E+02 -0.99011803745E+02 -0.13373461291E+03  0.17180338000E+03  0.00000000000E+00 0. -1.
         -2    1    1    2    0  501 -0.85599479197E+02  0.10299771553E+02  0.78243526385E+01  0.86571222857E+02  0.00000000000E+00 0.  1.
<mgrwt>
<rscale>  0 0.91721710E+02</rscale>
<asrwt>0</asrwt>
<pdfrwt beam="2">  1        1 0.50891581E-01 0.97577979E+02</pdfrwt>
<pdfrwt beam="1">  1       -1 0.17216064E-01 0.86216913E+02</pdfrwt>
<totfact> 0.19173713E+03</totfact>
</mgrwt>
</event>
<event>
 5    1  0.9399923E-003  0.1730650E+03  0.7546771E-02  0.1187270E+00
          1   -1    0    0  501    0 -0.00000000000E+00  0.00000000000E+00  0.18533115262E+04  0.18533115262E+04  0.00000000000E+00 0. -1.
          2   -1    0    0  502    0  0.00000000000E+00 -0.00000000000E+00 -0.81332408518E+02  0.81332408518E+02  0.00000000000E+00 0. -1.
         25    1    1    2    0    0 -0.66608563582E+02  0.12871124795E+03  0.10368128352E+04  0.10543287634E+04  0.12500000000E+03 0.  0.
          2    1    1    2  501    0  0.20842897051E+03 -0.17841799362E+03  0.65466609680E+03  0.70983330049E+03  0.00000000000E+00 0. -1.
          1    1    1    2  502    0 -0.14182040693E+03  0.49706745663E+02  0.80500185696E+02  0.17048187084E+03  0.00000000000E+00 0. -1.
<mgrwt>
<rscale>  0 0.16127010E+03</rscale>
<asrwt>0</asrwt>
<pdfrwt beam="2">  1        2 0.12512680E-01 0.15027904E+03</pdfrwt>
<pdfrwt beam="1">  1        1 0.28512482E+00 0.17306502E+03</pdfrwt>
<totfact> 0.28283330E+02</totfact>
</mgrwt>
</event>
<event>
 5    1  0.9399923E-003  0.7747041E+02  0.7546771E-02  0.1478269E+00
         -2   -1    0    0    0  501 -0.00000000000E+00  0.00000000000E+00  0.30466045144E+02  0.30466045144E+02  0.00000000000E+00 0.  1.
          2   -1    0    0  502    0  0.00000000000E+00 -0.00000000000E+00 -0.18076731615E+04  0.18076731615E+04  0.00000000000E+00 0. -1.
         25    1    1    2    0    0  0.40407120645E+02  0.88575483941E+02 -0.74303667405E+03  0.75974130514E+03  0.12500000000E+03 0.  0.
          1    1    1    2  502    0 -0.39353727721E+02 -0.63177099051E+02 -0.10471938736E+04  0.10498357350E+04  0.00000000000E+00 0. -1.
         -1    1    1    2    0  501 -0.10533929241E+01 -0.25398384890E+02  0.13023431256E+02  0.28562166468E+02  0.00000000000E+00 0.  1.
<mgrwt>
<rscale>  0 0.44376964E+02</rscale>
<asrwt>0</asrwt>
<pdfrwt beam="2">  1        2 0.27810359E+00 0.77470411E+02</pdfrwt>
<pdfrwt beam="1">  1       -2 0.46870835E-02 0.25420220E+02</pdfrwt>
<totfact> 0.17808046E+03</totfact>
</mgrwt>
</event>
<event>
 5    1  0.9399923E-003  0.7528069E+02  0.7546771E-02  0.1497853E+00
          2   -1    0    0  502    0  0.00000000000E+00  0.00000000000E+00  0.89973708505E+02  0.89973708505E+02  0.00000000000E+00 0. -1.
          1   -1    0    0  501    0 -0.00000000000E+00 -0.00000000000E+00 -0.12166467527E+04  0.12166467527E+04  0.00000000000E+00 0. -1.
         25    1    1    2    0    0  0.82343034649E+01  0.64659595368E+02 -0.72246289165E+03  0.73608851155E+03  0.12500000000E+03 0.  0.
          2    1    1    2  501    0 -0.20548860093E+02  0.99129486857E+01 -0.46986323469E+03  0.47041681678E+03  0.00000000000E+00 0. -1.
          1    1    1    2  502    0  0.12314556629E+02 -0.74572544053E+02  0.65653082151E+02  0.10011513286E+03  0.00000000000E+00 0. -1.
<mgrwt>
<rscale>  0 0.41443040E+02</rscale>
<asrwt>0</asrwt>
<pdfrwt beam="1">  1        2 0.13842110E-01 0.75280686E+02</pdfrwt>
<pdfrwt beam="2">  1        1 0.18717641E+00 0.22814956E+02</pdfrwt>
<totfact> 0.74928535E+02</totfact>
</mgrwt>
</event>
<event>
 5    1  0.9399923E-003  0.8104652E+02  0.7546771E-02  0.1429281E+00
         -2   -1    0    0    0  501 -0.00000000000E+00  0.00000000000E+00  0.24144682711E+03  0.24144682711E+03  0.00000000000E+00 0.  1.
          2   -1    0    0  502    0  0.00000000000E+00 -0.00000000000E+00 -0.26888931785E+04  0.26888931785E+04  0.00000000000E+00 0. -1.
         25    1    1    2    0    0  0.10983824725E+03 -0.22479971328E+02 -0.88341513724E+02  0.18973405787E+03  0.12500000000E+03 0.  0.
          1    1    1    2  502    0 -0.80590598346E+02  0.36293150294E+01 -0.25476247349E+04  0.25489016863E+04  0.00000000000E+00 0. -1.
         -1    1    1    2    0  501 -0.29247648905E+02  0.18850656299E+02  0.18851989723E+03  0.19170426145E+03  0.00000000000E+00 0.  1.
<mgrwt>
<rscale>  0 0.53104679E+02</rscale>
<asrwt>0</asrwt>
<pdfrwt beam="2">  1        2 0.41367586E+00 0.81046518E+02</pdfrwt>
<pdfrwt beam="1">  1       -2 0.37145667E-01 0.34796152E+02</pdfrwt>
<totfact> 0.25154511E+01</totfact>
</mgrwt>
</event>
<event>
 5    1  0.9399923E-003  0.2804812E+02  0.7546771E-02  0.1668033E+00
         -1   -1    0    0    0  501 -0.00000000000E+00  0.00000000000E+00  0.11374345935E+02  0.11374345935E+02  0.00000000000E+00 0.  1.
          1   -1    0    0  502    0  0.00000000000E+00 -0.00000000000E+00 -0.11934684950E+04  0.11934684950E+04  0.00000000000E+00 0. -1.
         25    1    1    2    0    0  0.15534182613E+02  0.25041758864E+02 -0.71991811636E+03  0.73128345720E+03  0.12500000000E+03 0.  0.
          2    1    1    2  502    0 -0.27581528770E+02 -0.73174810348E+01 -0.44547836503E+03  0.44639137532E+03  0.00000000000E+00 0. -1.
         -2    1    1    2    0  501  0.12047346157E+02 -0.17724277829E+02 -0.16697667638E+02  0.27168008365E+02  0.00000000000E+00 0.  1.
<mgrwt>
<rscale>  0 0.24517339E+02</rscale>
<asrwt>0</asrwt>
<pdfrwt beam="2">  1        1 0.18361052E+00 0.28048125E+02</pdfrwt>
<pdfrwt beam="1">  1       -1 0.17498996E-02 0.21431019E+02</pdfrwt>
<totfact> 0.78929993E+03</totfact>
</mgrwt>
</event>
<event>
 5    1  0.9399923E-003  0.6469106E+02  0.7546771E-02  0.1385006E+00
         -2   -1    0    0    0  501 -0.00000000000E+00  0.00000000000E+00  0.78714187585E+03  0.78714187585E+03  0.00000000000E+00 0.  1.
          2   -1    0    0  502    0  0.00000000000E+00 -0.00000000000E+00 -0.21289706196E+03  0.21289706196E+03  0.00000000000E+00 0. -1.
         25    1    1    2    0    0 -0.52572429163E+02  0.37270020670E+02  0.44738758354E+03  0.46897075032E+03  0.12500000000E+03 0.  0.
          1    1    1    2  502    0 -0.11035055090E+02 -0.63742932417E+02 -0.19316706958E+03  0.20371168509E+03  0.00000000000E+00 0. -1.
         -1    1    1    2    0  501  0.63607484253E+02  0.26472911747E+02  0.32002429994E+03  0.32735650240E+03  0.00000000000E+00 0.  1.
<mgrwt>
<rscale>  0 0.63166048E+02</rscale>
<asrwt>0</asrwt>
<pdfrwt beam="2">  1        2 0.32753395E-01 0.64691065E+02</pdfrwt>
<pdfrwt beam="1">  1       -2 0.12109875E+00 0.61676982E+02</pdfrwt>
<totfact> 0.89672470E+01</totfact>
</mgrwt>
</event>
<event>
 5    1  0.9399923E-003  0.5665062E+02  0.7546771E-02  0.1516505E+00
          1   -1    0    0  501    0 -0.00000000000E+00  0.00000000000E+00  0.54737322223E+02  0.54737322223E+02  0.00000000000E+00 0. -1.
          2   -1    0    0  502    0  0.00000000000E+00 -0.00000000000E+00 -0.11818382056E+04  0.11818382056E+04  0.00000000000E+00 0. -1.
         25    1    1    2    0    0 -0.73067515406E+01 -0.66749811103E+02 -0.79089566849E+03  0.80352341866E+03  0.12500000000E+03 0.  0.
          2    1    1    2  501    0  0.27573144126E+02  0.49360347209E+02  0.31268132129E+02  0.64609737969E+02  0.00000000000E+00 0. -1.
          1    1    1    2  502    0 -0.20266392586E+02  0.17389463894E+02 -0.36747334704E+03  0.36844237121E+03  0.00000000000E+00 0. -1.
<mgrwt>
<rscale>  0 0.38894930E+02</rscale>
<asrwt>0</asrwt>
<pdfrwt beam="2">  1        2 0.18182128E+00 0.26704309E+02</pdfrwt>
<pdfrwt beam="1">  1        1 0.84211259E-02 0.56650617E+02</pdfrwt>
<totfact> 0.23456628E+03</totfact>
</mgrwt>
</event>
<event>
 5    1  0.9399923E-003  0.3983215E+02  0.7546771E-02  0.1540166E+00
          1   -1    0    0  501    0 -0.00000000000E+00  0.00000000000E+00  0.41454399002E+03  0.41454399002E+03  0.00000000000E+00 0. -1.
          2   -1    0    0  502    0  0.00000000000E+00 -0.00000000000E+00 -0.25330686891E+03  0.25330686891E+03  0.00000000000E+00 0. -1.
         25    1    1    2    0    0 -0.33716996870E+02 -0.14341547094E+02 -0.36258765996E+02  0.13521173752E+03  0.12500000000E+03 0.  0.
          2    1    1    2  501    0  0.21466634301E+02 -0.24374004301E+02  0.36186936044E+03  0.36332401861E+03  0.00000000000E+00 0. -1.
          1    1    1    2  502    0  0.12250362569E+02  0.38715551394E+02 -0.16437347333E+03  0.16931510281E+03  0.00000000000E+00 0. -1.
<mgrwt>
<rscale>  0 0.35968356E+02</rscale>
<asrwt>0</asrwt>
<pdfrwt beam="2">  1        2 0.38970288E-01 0.39832153E+02</pdfrwt>
<pdfrwt beam="1">  1        1 0.63775998E-01 0.32479355E+02</pdfrwt>
<totfact> 0.10366569E+03</totfact>
</mgrwt>
</event>
<event>
 5    1  0.9399923E-003  0.6106874E+02  0.7546771E-02  0.1410046E+00
          2   -1    0    0  502    0  0.00000000000E+00  0.00000000000E+00  0.31182901577E+03  0.31182901577E+03  0.00000000000E+00 0. -1.
          1   -1    0    0  501    0 -0.00000000000E+00 -0.00000000000E+00 -0.81356722134E+03  0.81356722134E+03  0.00000000000E+00 0. -1.
         25    1    1    2    0    0  0.47035262400E+01  0.11619376217E+02  0.20070968230E+03  0.23678367687E+03  0.12500000000E+03 0.  0.
          2    1    1    2  501    0  0.25624798933E+02 -0.55748056741E+02 -0.78653480878E+03  0.78892425592E+03  0.00000000000E+00 0. -1.
          1    1    1    2  502    0 -0.30328325173E+02  0.44128680524E+02  0.84086920909E+02  0.99688304332E+02  0.00000000000E+00 0. -1.
<mgrwt>
<rscale>  0 0.57183668E+02</rscale>
<asrwt>0</asrwt>
<pdfrwt beam="1">  1        2 0.47973695E-01 0.53545754E+02</pdfrwt>
<pdfrwt beam="2">  1        1 0.12516419E+00 0.61068742E+02</pdfrwt>
<totfact> 0.34359441E+02</totfact>
</mgrwt>
</event>
<event>
 5    1  0.9399923E-003  0.6304273E+02  0.7546771E-02  0.1407858E+00
          1   -1    0    0  501    0 -0.00000000000E+00  0.00000000000E+00  0.44518135130E+02  0.44518135130E+02  0.00000000000E+00 0. -1.
          2   -1    0    0  502    0  0.00000000000E+00 -0.00000000000E+00 -0.29340965073E+04  0.29340965073E+04  0.00000000000E+00 0. -1.
         25    1    1    2    0    0  0.64961806316E+02  0.46676418310E+02 -0.44415200516E+03  0.46828914998E+03  0.12500000000E+03 0.  0.
          2    1    1    2  501    0 -0.62850983989E+02  0.60450125673E+01  0.11782270983E+01  0.63152011721E+02  0.00000000000E+00 0. -1.
          1    1    1    2  502    0 -0.21108223278E+01 -0.52721430877E+02 -0.24466045941E+04  0.24471734807E+04  0.00000000000E+00 0. -1.
<mgrwt>
<rscale>  0 0.57674655E+02</rscale>
<asrwt>0</asrwt>
<pdfrwt beam="2">  1        2 0.45139954E+00 0.52763670E+02</pdfrwt>
<pdfrwt beam="1">  1        1 0.68489427E-02 0.63042731E+02</pdfrwt>
<totfact> 0.38497326E+02</totfact>
</mgrwt>
</event>
<event>
 5    1  0.9399923E-003  0.4531606E+02  0.7546771E-02  0.1563607E+00
         -1   -1    0    0    0  501 -0.00000000000E+00  0.00000000000E+00  0.11959414574E+03  0.11959414574E+03  0.00000000000E+00 0.  1.
          1   -1    0    0  502    0  0.00000000000E+00 -0.00000000000E+00 -0.14563475919E+03  0.14563475919E+03  0.00000000000E+00 0. -1.
         25    1    1    2    0    0 -0.88031172439E+01  0.30241575044E+02 -0.90017152949E+02  0.15722638315E+03  0.12500000000E+03 0.  0.
          2    1    1    2  502    0  0.19594598991E+02  0.14819269997E+02 -0.48410851408E+01  0.25039871769E+02  0.00000000000E+00 0. -1.
         -2    1    1    2    0  501 -0.10791481747E+02 -0.45060845041E+02  0.68817624648E+02  0.82962650008E+02  0.00000000000E+00 0.  1.
<mgrwt>
<rscale>  0 0.33366143E+02</rscale>
<asrwt>0</asrwt>
<pdfrwt beam="2">  1        1 0.22405348E-01 0.24567439E+02</pdfrwt>
<pdfrwt beam="1">  1       -1 0.18399099E-01 0.45316057E+02</pdfrwt>
<totfact> 0.43579633E+03</totfact>
</mgrwt>
</event>
<event>
 5    1  0.9399923E-003  0.6611492E+02  0.7546771E-02  0.1480600E+00
          2   -1    0    0  502    0  0.00000000000E+00  0.00000000000E+00  0.87853333624E+03  0.87853333624E+03  0.00000000000E+00 0. -1.
         -2   -1    0    0    0  501 -0.00000000000E+00 -0.00000000000E+00 -0.93833810249E+02  0.93833810249E+02  0.00000000000E+00 0.  1.
         25    1    1    2    0    0 -0.61993997975E+02 -0.66358646350E+02  0.69740144048E+03  0.71431120313E+03  0.12500000000E+03 0.  0.
          1    1    1    2  502    0  0.86673763389E+01  0.27988178900E+02  0.15849453672E+03  0.16117996073E+03  0.00000000000E+00 0. -1.
         -1    1    1    2    0  501  0.53326621636E+02  0.38370467450E+02 -0.71196451205E+02  0.96875982636E+02  0.00000000000E+00 0.  1.
<mgrwt>
<rscale>  0 0.44012895E+02</rscale>
<asrwt>0</asrwt>
<pdfrwt beam="1">  1        2 0.13515897E+00 0.29299515E+02</pdfrwt>
<pdfrwt beam="2">  1       -2 0.14435971E-01 0.66114916E+02</pdfrwt>
<totfact> 0.11799561E+03</totfact>
</mgrwt>
</event>
<event>
 5    1  0.9399923E-003  0.7856869E+02  0.7546771E-02  0.1361904E+00
          1   -1    0    0  501    0 -0.00000000000E+00  0.00000000000E+00  0.28279826650E+04  0.28279826650E+04  0.00000000000E+00 0. -1.
          2   -1    0    0  502    0  0.00000000000E+00 -0.00000000000E+00 -0.13327709613E+04  0.13327709613E+04  0.00000000000E+00 0. -1.
         25    1    1    2    0    0 -0.62744483545E+02 -0.82762364615E+02 -0.23281766311E+03  0.28392876477E+03  0.12500000000E+03 0.  0.
          2    1    1    2  501    0 -0.12133876993E+02  0.60215141197E+02  0.28006669812E+04  0.28013405066E+04  0.00000000000E+00 0. -1.
          1    1    1    2  502    0  0.74878360538E+02  0.22547223418E+02 -0.10726376143E+04  0.10754843550E+04  0.00000000000E+00 0. -1.
<mgrwt>
<rscale>  0 0.69470297E+02</rscale>
<asrwt>0</asrwt>
<pdfrwt beam="2">  1        2 0.20504169E+00 0.78568685E+02</pdfrwt>
<pdfrwt beam="1">  1        1 0.43507425E+00 0.61425518E+02</pdfrwt>
<totfact> 0.30515268E+00</totfact>
</mgrwt>
</event>
<event>
 5    1  0.9399923E-003  0.7265346E+02  0.7546771E-02  0.1352562E+00
          2   -1    0    0  502    0  0.00000000000E+00  0.00000000000E+00  0.26525427688E+04  0.26525427688E+04  0.00000000000E+00 0. -1.
          1   -1    0    0  501    0 -0.00000000000E+00 -0.00000000000E+00 -0.82913371907E+03  0.82913371907E+03  0.00000000000E+00 0. -1.
         25    1    1    2    0    0 -0.26271949633E+02 -0.14140868115E+03  0.15582715245E+03  0.24615794093E+03  0.12500000000E+03 0.  0.
          2    1    1    2  501    0  0.15964948189E+02  0.70276896630E+02 -0.78178381985E+03  0.78509850513E+03  0.00000000000E+00 0. -1.
          1    1    1    2  502    0  0.10307001444E+02  0.71131784521E+02  0.24493657171E+04  0.24504200418E+04  0.00000000000E+00 0. -1.
<mgrwt>
<rscale>  0 0.72263003E+02</rscale>
<asrwt>0</asrwt>
<pdfrwt beam="1">  1        2 0.40808350E+00 0.71874648E+02</pdfrwt>
<pdfrwt beam="2">  1        1 0.12755903E+00 0.72653456E+02</pdfrwt>
<totfact> 0.12731565E+01</totfact>
</mgrwt>
</event>
<event>
 5    1  0.9399923E-003  0.1163067E+03  0.7546771E-02  0.1334829E+00
          1   -1    0    0  501    0 -0.00000000000E+00  0.00000000000E+00  0.23982423642E+03  0.23982423642E+03  0.00000000000E+00 0. -1.
          2   -1    0    0  502    0  0.00000000000E+00 -0.00000000000E+00 -0.25445018615E+04  0.25445018615E+04  0.00000000000E+00 0. -1.
         25    1    1    2    0    0  0.16038093430E+02 -0.71997844290E+02 -0.30431605288E+03  0.33715600256E+03  0.12500000000E+03 0.  0.
          2    1    1    2  501    0  0.84044718480E+01  0.11824410227E+03  0.20734743177E+03  0.23884149625E+03  0.00000000000E+00 0. -1.
          1    1    1    2  502    0 -0.24442565278E+02 -0.46246257979E+02 -0.22077090040E+04  0.22083285991E+04  0.00000000000E+00 0. -1.
<mgrwt>
<rscale>  0 0.77998726E+02</rscale>
<asrwt>0</asrwt>
<pdfrwt beam="2">  1        2 0.39146184E+00 0.52308273E+02</pdfrwt>
<pdfrwt beam="1">  1        1 0.36896035E-01 0.11630668E+03</pdfrwt>
<totfact> 0.74958742E+01</totfact>
</mgrwt>
</event>
<event>
 5    1  0.9399923E-003  0.1146356E+03  0.7546771E-02  0.1328536E+00
          1   -1    0    0  501    0 -0.00000000000E+00  0.00000000000E+00  0.15256278753E+04  0.15256278753E+04  0.00000000000E+00 0. -1.
          2   -1    0    0  502    0  0.00000000000E+00 -0.00000000000E+00 -0.84687104117E+03  0.84687104117E+03  0.00000000000E+00 0. -1.
         25    1    1    2    0    0 -0.48286066793E+02  0.10330077730E+03  0.14308468098E+03  0.22158705009E+03  0.12500000000E+03 0.  0.
          2    1    1    2  501    0  0.92632102138E+02 -0.68968057112E+02  0.13398313613E+04  0.13447993814E+04  0.00000000000E+00 0. -1.
          1    1    1    2  502    0 -0.44346035345E+02 -0.34332720189E+02 -0.80415920815E+03  0.80611248507E+03  0.00000000000E+00 0. -1.
<mgrwt>
<rscale>  0 0.80181738E+02</rscale>
<asrwt>0</asrwt>
<pdfrwt beam="2">  1        2 0.13028785E+00 0.56083032E+02</pdfrwt>
<pdfrwt beam="1">  1        1 0.23471198E+00 0.11463558E+03</pdfrwt>
<totfact> 0.35999765E+01</totfact>
</mgrwt>
</event>
<event>
 5    1  0.9399923E-003  0.1086249E+03  0.7546771E-02  0.1382140E+00
          1   -1    0    0  501    0 -0.00000000000E+00  0.00000000000E+00  0.39856385123E+03  0.39856385123E+03  0.00000000000E+00 0. -1.
          2   -1    0    0  502    0  0.00000000000E+00 -0.00000000000E+00 -0.85578262539E+03  0.85578262539E+03  0.00000000000E+00 0. -1.
         25    1    1    2    0    0 -0.41230133366E+02 -0.13781499558E+03 -0.54783795362E+01  0.19065127733E+03  0.12500000000E+03 0.  0.
          2    1    1    2  501    0  0.17474718117E+02  0.33287413012E+02  0.30101109380E+03  0.30334979187E+03  0.00000000000E+00 0. -1.
          1    1    1    2  502    0  0.23755415249E+02  0.10452758257E+03 -0.75275148842E+03  0.76034540742E+03  0.00000000000E+00 0. -1.
<mgrwt>
<rscale>  0 0.63904640E+02</rscale>
<asrwt>0</asrwt>
<pdfrwt beam="2">  1        2 0.13165886E+00 0.10862494E+03</pdfrwt>
<pdfrwt beam="1">  1        1 0.61317516E-01 0.37595447E+02</pdfrwt>
<totfact> 0.28750280E+02</totfact>
</mgrwt>
</event>
<event>
 5    1  0.9399923E-003  0.2497179E+03  0.7546771E-02  0.1160676E+00
          1   -1    0    0  501    0 -0.00000000000E+00  0.00000000000E+00  0.16202622787E+04  0.16202622787E+04  0.00000000000E+00 0. -1.
          2   -1    0    0  502    0  0.00000000000E+00 -0.00000000000E+00 -0.23020236761E+03  0.23020236761E+03  0.00000000000E+00 0. -1.
         25    1    1    2    0    0  0.13614331927E+03 -0.22911824817E+02  0.71433284209E+02  0.19946846666E+03  0.12500000000E+03 0.  0.
          2    1    1    2  501    0 -0.25292194339E+03  0.10171717042E+03  0.14396726298E+04  0.14652553270E+04  0.00000000000E+00 0. -1.
          1    1    1    2  502    0  0.11677862412E+03 -0.78805345600E+02 -0.12104600290E+03  0.18574085271E+03  0.00000000000E+00 0. -1.
<mgrwt>
<rscale>  0 0.18756483E+03</rscale>
<asrwt>0</asrwt>
<pdfrwt beam="2">  1        2 0.35415750E-01 0.14088126E+03</pdfrwt>
<pdfrwt beam="1">  1        1 0.24927111E+00 0.24971786E+03</pdfrwt>
<totfact> 0.11891130E+02</totfact>
</mgrwt>
</event>
<event>
 5    1  0.9399923E-003  0.1193968E+03  0.7546771E-02  0.1260236E+00
         -2   -1    0    0    0  501 -0.00000000000E+00  0.00000000000E+00  0.18667661079E+02  0.18667661079E+02  0.00000000000E+00 0.  1.
          2   -1    0    0  502    0  0.00000000000E+00 -0.00000000000E+00 -0.30685969030E+04  0.30685969030E+04  0.00000000000E+00 0. -1.
         25    1    1    2    0    0  0.42345144681E+02 -0.23501112627E+02 -0.11578394237E+04  0.11655739121E+04  0.12500000000E+03 0.  0.
          1    1    1    2  502    0  0.47030727669E+02  0.10974379807E+03 -0.15979426673E+04  0.16023970665E+04  0.00000000000E+00 0. -1.
         -1    1    1    2    0  501 -0.89375872350E+02 -0.86242685444E+02 -0.29414715095E+03  0.31929358554E+03  0.00000000000E+00 0.  1.
<mgrwt>
<rscale>  0 0.11018054E+03</rscale>
<asrwt>0</asrwt>
<pdfrwt beam="2">  1        2 0.47209179E+00 0.11939678E+03</pdfrwt>
<pdfrwt beam="1">  1       -2 0.28719481E-02 0.10167571E+03</pdfrwt>
<totfact> 0.87795263E+02</totfact>
</mgrwt>
</event>
<event>
 5    1  0.9399923E-003  0.7518450E+02  0.7546771E-02  0.1372248E+00
          2   -1    0    0  502    0  0.00000000000E+00  0.00000000000E+00  0.15136453600E+03  0.15136453600E+03  0.00000000000E+00 0. -1.
          1   -1    0    0  501    0 -0.00000000000E+00 -0.00000000000E+00 -0.14602607987E+03  0.14602607987E+03  0.00000000000E+00 0. -1.
         25    1    1    2    0    0  0.29286433380E+02  0.53189934663E+02  0.19916570817E+01  0.13898140533E+03  0.12500000000E+03 0.  0.
          2    1    1    2  501    0  0.20360272077E+02 -0.84882726804E+02 -0.28020341173E+02  0.91677464560E+02  0.00000000000E+00 0. -1.
          1    1    1    2  502    0 -0.49646705457E+02  0.31692792141E+02  0.31367140224E+02  0.66731745986E+02  0.00000000000E+00 0. -1.
<mgrwt>
<rscale>  0 0.66546067E+02</rscale>
<asrwt>0</asrwt>
<pdfrwt beam="1">  1        2 0.23286852E-01 0.58900157E+02</pdfrwt>
<pdfrwt beam="2">  1        1 0.22465551E-01 0.75184504E+02</pdfrwt>
<totfact> 0.63641200E+03</totfact>
</mgrwt>
</event>
<event>
 5    1  0.9399923E-003  0.2815521E+02  0.7546771E-02  0.1671280E+00
          2   -1    0    0  502    0  0.00000000000E+00  0.00000000000E+00  0.32669941648E+03  0.32669941648E+03  0.00000000000E+00 0. -1.
         -2   -1    0    0    0  501 -0.00000000000E+00 -0.00000000000E+00 -0.29089674971E+03  0.29089674971E+03  0.00000000000E+00 0.  1.
         25    1    1    2    0    0  0.27967868336E+01  0.87218727550E+01  0.13648154936E+03  0.18530004424E+03  0.12500000000E+03 0.  0.
          1    1    1    2  502    0  0.18549641115E+02  0.97820315954E+01  0.16439196025E+03  0.16572415009E+03  0.00000000000E+00 0. -1.
         -1    1    1    2    0  501 -0.21346427949E+02 -0.18503904350E+02 -0.26507084284E+03  0.26657197187E+03  0.00000000000E+00 0.  1.
<mgrwt>
<rscale>  0 0.24298954E+02</rscale>
<asrwt>0</asrwt>
<pdfrwt beam="1">  1        2 0.50261449E-01 0.20970869E+02</pdfrwt>
<pdfrwt beam="2">  1       -2 0.44753346E-01 0.28155207E+02</pdfrwt>
<totfact> 0.46401236E+02</totfact>
</mgrwt>
</event>
<event>
 5    1  0.9399923E-003  0.1375453E+03  0.7546771E-02  0.1218644E+00
          2   -1    0    0  502    0  0.00000000000E+00  0.00000000000E+00  0.23510297667E+04  0.23510297667E+04  0.00000000000E+00 0. -1.
          1   -1    0    0  501    0 -0.00000000000E+00 -0.00000000000E+00 -0.20398138396E+03  0.20398138396E+03  0.00000000000E+00 0. -1.
         25    1    1    2    0    0  0.32519975591E+01 -0.14936637825E+01  0.39956440693E+02  0.13127956304E+03  0.12500000000E+03 0.  0.
          2    1    1    2  501    0  0.12940380933E+03 -0.46619459478E+02 -0.12579211502E+03  0.18639306874E+03  0.00000000000E+00 0. -1.
          1    1    1    2  502    0 -0.13265580689E+03  0.48113123261E+02  0.22328840570E+04  0.22373385189E+04  0.00000000000E+00 0. -1.
<mgrwt>
<rscale>  0 0.13612253E+03</rscale>
<asrwt>0</asrwt>
<pdfrwt beam="1">  1        2 0.36169687E+00 0.13471443E+03</pdfrwt>
<pdfrwt beam="2">  1        1 0.31381753E-01 0.13754534E+03</pdfrwt>
<totfact> 0.10171844E+02</totfact>
</mgrwt>
</event>
<event>
 5    1  0.9399923E-003  0.8521704E+02  0.7546771E-02  0.1352591E+00
          1   -1    0    0  501    0 -0.00000000000E+00  0.00000000000E+00  0.22563862321E+03  0.22563862321E+03  0.00000000000E+00 0. -1.
          2   -1    0    0  502    0  0.00000000000E+00 -0.00000000000E+00 -0.86716740470E+03  0.86716740470E+03  0.00000000000E+00 0. -1.
         25    1    1    2    0    0 -0.11512156429E+03 -0.71374531178E+01 -0.13775001799E+03  0.21886979064E+03  0.12500000000E+03 0.  0.
          2    1    1    2  501    0  0.69460090377E+02  0.47981336110E+02  0.17399790803E+03  0.19339644456E+03  0.00000000000E+00 0. -1.
          1    1    1    2  502    0  0.45661473911E+02 -0.40843882992E+02 -0.67777667154E+03  0.68053979271E+03  0.00000000000E+00 0. -1.
<mgrwt>
<rscale>  0 0.72254260E+02</rscale>
<asrwt>0</asrwt>
<pdfrwt beam="2">  1        2 0.13341037E+00 0.61263309E+02</pdfrwt>
<pdfrwt beam="1">  1        1 0.34713635E-01 0.85217044E+02</pdfrwt>
<totfact> 0.57578339E+02</totfact>
</mgrwt>
</event>
<event>
 5    1  0.9399923E-003  0.1532300E+03  0.7546771E-02  0.1313187E+00
          2   -1    0    0  502    0  0.00000000000E+00  0.00000000000E+00  0.16099304572E+04  0.16099304572E+04  0.00000000000E+00 0. -1.
         -2   -1    0    0    0  501 -0.00000000000E+00 -0.00000000000E+00 -0.31244810255E+03  0.31244810255E+03  0.00000000000E+00 0.  1.
         25    1    1    2    0    0  0.79643665347E+02 -0.16145740602E+03  0.45844253912E+03  0.50813991092E+03  0.12500000000E+03 0.  0.
          1    1    1    2  502    0 -0.34590889427E+02  0.14456605543E+03  0.11196798796E+04  0.11295038321E+04  0.00000000000E+00 0. -1.
         -1    1    1    2    0  501 -0.45052775920E+02  0.16891350591E+02 -0.28064006402E+03  0.28473481676E+03  0.00000000000E+00 0.  1.
<mgrwt>
<rscale>  0 0.85864372E+02</rscale>
<asrwt>0</asrwt>
<pdfrwt beam="1">  1        2 0.24768160E+00 0.15323003E+03</pdfrwt>
<pdfrwt beam="2">  1       -2 0.48068940E-01 0.48115178E+02</pdfrwt>
<totfact> 0.52495167E+01</totfact>
</mgrwt>
</event>
<event>
 5    1  0.9399923E-003  0.9974653E+02  0.7546771E-02  0.1393098E+00
          2   -1    0    0  502    0  0.00000000000E+00  0.00000000000E+00  0.84639984911E+03  0.84639984911E+03  0.00000000000E+00 0. -1.
         -2   -1    0    0    0  501 -0.00000000000E+00 -0.00000000000E+00 -0.10502452453E+03  0.10502452453E+03  0.00000000000E+00 0.  1.
         25    1    1    2    0    0  0.52663076305E+02 -0.52799590559E+02  0.21543025034E+03  0.25999305593E+03  0.12500000000E+03 0.  0.
          1    1    1    2  502    0 -0.90101612593E+02  0.54543637628E+02  0.59960469129E+03  0.60878493314E+03  0.00000000000E+00 0. -1.
         -1    1    1    2    0  501  0.37438536288E+02 -0.17440470698E+01 -0.73659617044E+02  0.82646384571E+02  0.00000000000E+00 0.  1.
<mgrwt>
<rscale>  0 0.61142570E+02</rscale>
<asrwt>0</asrwt>
<pdfrwt beam="1">  1        2 0.13021536E+00 0.99746532E+02</pdfrwt>
<pdfrwt beam="2">  1       -2 0.16157620E-01 0.37479137E+02</pdfrwt>
<totfact> 0.94531974E+02</totfact>
</mgrwt>
</event>
<event>
 5    1  0.9399923E-003  0.8909462E+02  0.7546771E-02  0.1429534E+00
          1   -1    0    0  501    0 -0.00000000000E+00  0.00000000000E+00  0.15851410152E+03  0.15851410152E+03  0.00000000000E+00 0. -1.
          2   -1    0    0  502    0  0.00000000000E+00 -0.00000000000E+00 -0.23154368584E+03  0.23154368584E+03  0.00000000000E+00 0. -1.
         25    1    1    2    0    0  0.64740487588E+01  0.75215150683E+02 -0.97166859326E+02  0.17540134193E+03  0.12500000000E+03 0.  0.
          2    1    1    2  501    0 -0.21718684529E+02  0.22942460126E+02  0.90058192728E+02  0.95438649465E+02  0.00000000000E+00 0. -1.
          1    1    1    2  502    0  0.15244635771E+02 -0.98157610809E+02 -0.65920917725E+02  0.11921779596E+03  0.00000000000E+00 0. -1.
<mgrwt>
<rscale>  0 0.53053575E+02</rscale>
<asrwt>0</asrwt>
<pdfrwt beam="2">  1        2 0.35622106E-01 0.89094618E+02</pdfrwt>
<pdfrwt beam="1">  1        1 0.24386785E-01 0.31592052E+02</pdfrwt>
<totfact> 0.35851395E+03</totfact>
</mgrwt>
</event>
<event>
 5    1  0.9399923E-003  0.7474647E+02  0.7546771E-02  0.1430265E+00
          1   -1    0    0  501    0 -0.00000000000E+00  0.00000000000E+00  0.78590612523E+02  0.78590612523E+02  0.00000000000E+00 0. -1.
          2   -1    0    0  502    0  0.00000000000E+00 -0.00000000000E+00 -0.62379631479E+03  0.62379631479E+03  0.00000000000E+00 0. -1.
         25    1    1    2    0    0  0.46963952188E+02  0.84523918853E+02 -0.25407919363E+03  0.29921755012E+03  0.12500000000E+03 0.  0.
          2    1    1    2  501    0  0.67315347571E+01 -0.36838275536E+02  0.45522353615E+02  0.58946219415E+02  0.00000000000E+00 0. -1.
          1    1    1    2  502    0 -0.53695486945E+02 -0.47685643317E+02 -0.33664886225E+03  0.34422315778E+03  0.00000000000E+00 0. -1.
<mgrwt>
<rscale>  0 0.52906760E+02</rscale>
<asrwt>0</asrwt>
<pdfrwt beam="2">  1        2 0.95968665E-01 0.74746471E+02</pdfrwt>
<pdfrwt beam="1">  1        1 0.12090863E-01 0.37448259E+02</pdfrwt>
<totfact> 0.29916397E+03</totfact>
</mgrwt>
</event>
<event>
 5    1  0.9399923E-003  0.6399780E+02  0.7546771E-02  0.1410388E+00
         -2   -1    0    0    0  501 -0.00000000000E+00  0.00000000000E+00  0.66131960815E+02  0.66131960815E+02  0.00000000000E+00 0.  1.
          2   -1    0    0  502    0  0.00000000000E+00 -0.00000000000E+00 -0.11601997018E+04  0.11601997018E+04  0.00000000000E+00 0. -1.
         25    1    1    2    0    0  0.33430773562E+02 -0.19307164247E+02 -0.36640447278E+03  0.38905991940E+03  0.12500000000E+03 0.  0.
          1    1    1    2  502    0 -0.22278158529E+02 -0.45830894768E+02 -0.76137880794E+03  0.76308222129E+03  0.00000000000E+00 0. -1.
         -3    1    1    2    0  501 -0.11152615032E+02  0.65138059016E+02  0.33715539686E+02  0.74189521974E+02  0.00000000000E+00 0.  1.
<mgrwt>
<rscale>  0 0.57107299E+02</rscale>
<asrwt>0</asrwt>
<pdfrwt beam="2">  1        2 0.17849224E+00 0.50958682E+02</pdfrwt>
<pdfrwt beam="1">  1       -2 0.10174149E-01 0.63997801E+02</pdfrwt>
<totfact> 0.13774558E+03</totfact>
</mgrwt>
</event>
<event>
 5    1  0.9399923E-003  0.7755292E+02  0.7546771E-02  0.1352099E+00
          2   -1    0    0  502    0  0.00000000000E+00  0.00000000000E+00  0.50239701159E+03  0.50239701159E+03  0.00000000000E+00 0. -1.
         -2   -1    0    0    0  501 -0.00000000000E+00 -0.00000000000E+00 -0.15269123286E+03  0.15269123286E+03  0.00000000000E+00 0.  1.
         25    1    1    2    0    0 -0.38601029450E+02 -0.12758729324E+02  0.16059000817E+03  0.20752584266E+03  0.12500000000E+03 0.  0.
          1    1    1    2  502    0  0.82220846670E+02 -0.38884664683E+02  0.30232300627E+03  0.31570791073E+03  0.00000000000E+00 0. -1.
         -1    1    1    2    0  501 -0.43619817220E+02  0.51643394008E+02 -0.11320723570E+03  0.13185449106E+03  0.00000000000E+00 0.  1.
<mgrwt>
<rscale>  0 0.72405522E+02</rscale>
<asrwt>0</asrwt>
<pdfrwt beam="1">  1        2 0.77291847E-01 0.77552924E+02</pdfrwt>
<pdfrwt beam="2">  1       -2 0.23490959E-01 0.67599768E+02</pdfrwt>
<totfact> 0.96490544E+02</totfact>
</mgrwt>
</event>
<event>
 5    1  0.9399923E-003  0.1922385E+03  0.7546771E-02  0.1190158E+00
          1   -1    0    0  502    0  0.00000000000E+00  0.00000000000E+00  0.72768783232E+03  0.72768783232E+03  0.00000000000E+00 0. -1.
         -1   -1    0    0    0  501 -0.00000000000E+00 -0.00000000000E+00 -0.26940676739E+03  0.26940676739E+03  0.00000000000E+00 0.  1.
         25    1    1    2    0    0 -0.14308363839E+03  0.19541813363E+03  0.11829909677E+03  0.29712093636E+03  0.12500000000E+03 0.  0.
          2    1    1    2  502    0 -0.31147768511E+02 -0.12727752373E+03  0.45960335995E+03  0.47791735688E+03  0.00000000000E+00 0. -1.
         -2    1    1    2    0  501  0.17423140690E+03 -0.68140609896E+02 -0.11962139179E+03  0.22205630647E+03  0.00000000000E+00 0.  1.
<mgrwt>
<rscale>  0 0.15871251E+03</rscale>
<asrwt>0</asrwt>
<pdfrwt beam="1">  1        1 0.11195197E+00 0.13103340E+03</pdfrwt>
<pdfrwt beam="2">  1       -1 0.41447195E-01 0.19223847E+03</pdfrwt>
<totfact> 0.16091159E+02</totfact>
</mgrwt>
</event>
<event>
 5    1  0.9399923E-003  0.7665659E+02  0.7546771E-02  0.1433634E+00
          1   -1    0    0  501    0 -0.00000000000E+00  0.00000000000E+00  0.12638168744E+03  0.12638168744E+03  0.00000000000E+00 0. -1.
          2   -1    0    0  502    0  0.00000000000E+00 -0.00000000000E+00 -0.60948927831E+03  0.60948927831E+03  0.00000000000E+00 0. -1.
         25    1    1    2    0    0  0.86982513107E+02  0.36315905311E+02 -0.74824173481E+02  0.17351789390E+03  0.12500000000E+03 0.  0.
          2    1    1    2  501    0 -0.31849243071E+02  0.15899026221E+02  0.69759434813E+02  0.78316869603E+02  0.00000000000E+00 0. -1.
          1    1    1    2  502    0 -0.55133270036E+02 -0.52214931532E+02 -0.47804285220E+03  0.48403620224E+03  0.00000000000E+00 0. -1.
<mgrwt>
<rscale>  0 0.52237458E+02</rscale>
<asrwt>0</asrwt>
<pdfrwt beam="2">  1        2 0.93767582E-01 0.76656588E+02</pdfrwt>
<pdfrwt beam="1">  1        1 0.19443336E-01 0.35597097E+02</pdfrwt>
<totfact> 0.17005923E+03</totfact>
</mgrwt>
</event>
<event>
 5    1  0.9399923E-003  0.6203180E+02  0.7546771E-02  0.1461817E+00
          1   -1    0    0  501    0 -0.00000000000E+00  0.00000000000E+00  0.36887555453E+02  0.36887555453E+02  0.00000000000E+00 0. -1.
          2   -1    0    0  502    0  0.00000000000E+00 -0.00000000000E+00 -0.11469295809E+04  0.11469295809E+04  0.00000000000E+00 0. -1.
         25    1    1    2    0    0 -0.23982595720E+02 -0.80663626439E+02 -0.39994383024E+03  0.42738957974E+03  0.12500000000E+03 0.  0.
          2    1    1    2  501    0  0.37275825138E+02  0.47512293178E+02 -0.17451596664E+02  0.62860666310E+02  0.00000000000E+00 0. -1.
          1    1    1    2  502    0 -0.13293229418E+02  0.33151333261E+02 -0.69264659859E+03  0.69356689035E+03  0.00000000000E+00 0. -1.
<mgrwt>
<rscale>  0 0.47070208E+02</rscale>
<asrwt>0</asrwt>
<pdfrwt beam="2">  1        2 0.17645069E+00 0.35717235E+02</pdfrwt>
<pdfrwt beam="1">  1        1 0.56750091E-02 0.62031804E+02</pdfrwt>
<totfact> 0.40610937E+03</totfact>
</mgrwt>
</event>
<event>
 5    1  0.9399923E-003  0.5931836E+02  0.7546771E-02  0.1456005E+00
          2   -1    0    0  502    0  0.00000000000E+00  0.00000000000E+00  0.28006877455E+03  0.28006877455E+03  0.00000000000E+00 0. -1.
          1   -1    0    0  501    0 -0.00000000000E+00 -0.00000000000E+00 -0.91727333287E+03  0.91727333287E+03  0.00000000000E+00 0. -1.
         25    1    1    2    0    0  0.40213900204E+02 -0.76082892274E+02 -0.28374264011E+03  0.32177732997E+03  0.12500000000E+03 0.  0.
          2    1    1    2  501    0  0.54565782136E+01  0.38580072949E+02 -0.61053993109E+03  0.61178199036E+03  0.00000000000E+00 0. -1.
          1    1    1    2  502    0 -0.45670478417E+02  0.37502819325E+02  0.25707801288E+03  0.26378278708E+03  0.00000000000E+00 0. -1.
<mgrwt>
<rscale>  0 0.48075805E+02</rscale>
<asrwt>0</asrwt>
<pdfrwt beam="1">  1        2 0.43087503E-01 0.59318365E+02</pdfrwt>
<pdfrwt beam="2">  1        1 0.14111898E+00 0.38964038E+02</pdfrwt>
<totfact> 0.32944262E+02</totfact>
</mgrwt>
</event>
<event>
 5    1  0.9399923E-003  0.6041947E+02  0.7546771E-02  0.1481852E+00
          2   -1    0    0  502    0  0.00000000000E+00  0.00000000000E+00  0.68933808410E+03  0.68933808410E+03  0.00000000000E+00 0. -1.
         -2   -1    0    0    0  501 -0.00000000000E+00 -0.00000000000E+00 -0.14347436274E+03  0.14347436274E+03  0.00000000000E+00 0.  1.
         25    1    1    2    0    0  0.23476570605E+02  0.41816156317E+02  0.44910707561E+03  0.46863835274E+03  0.12500000000E+03 0.  0.
          1    1    1    2  502    0  0.29419943436E+02 -0.12016805045E+02  0.22238511424E+03  0.22464433158E+03  0.00000000000E+00 0. -1.
         -1    1    1    2    0  501 -0.52896514041E+02 -0.29799351273E+02 -0.12562846849E+03  0.13952976253E+03  0.00000000000E+00 0.  1.
<mgrwt>
<rscale>  0 0.43818953E+02</rscale>
<asrwt>0</asrwt>
<pdfrwt beam="1">  1        2 0.10605201E+00 0.31779501E+02</pdfrwt>
<pdfrwt beam="2">  1       -2 0.22072979E-01 0.60419472E+02</pdfrwt>
<totfact> 0.77123987E+02</totfact>
</mgrwt>
</event>
<event>
 5    1  0.9399923E-003  0.6790894E+02  0.7546771E-02  0.1376168E+00
          1   -1    0    0  501    0 -0.00000000000E+00  0.00000000000E+00  0.25821327575E+04  0.25821327575E+04  0.00000000000E+00 0. -1.
          2   -1    0    0  502    0  0.00000000000E+00 -0.00000000000E+00 -0.77824030550E+03  0.77824030550E+03  0.00000000000E+00 0. -1.
         25    1    1    2    0    0 -0.37893900139E+02  0.96021222650E+02 -0.73340144922E+01  0.16228003770E+03  0.12500000000E+03 0.  0.
          2    1    1    2  501    0 -0.17410192556E+02 -0.65553386285E+02  0.25027619965E+04  0.25036808847E+04  0.00000000000E+00 0. -1.
          1    1    1    2  502    0  0.55304092695E+02 -0.30467836365E+02 -0.69153553002E+03  0.69441214059E+03  0.00000000000E+00 0. -1.
<mgrwt>
<rscale>  0 0.65481778E+02</rscale>
<asrwt>0</asrwt>
<pdfrwt beam="2">  1        2 0.11972928E+00 0.63141363E+02</pdfrwt>
<pdfrwt beam="1">  1        1 0.39725119E+00 0.67908943E+02</pdfrwt>
<totfact> 0.91209139E+00</totfact>
</mgrwt>
</event>
<event>
 5    1  0.9399923E-003  0.8239124E+02  0.7546771E-02  0.1322596E+00
          2   -1    0    0  502    0  0.00000000000E+00  0.00000000000E+00  0.52883502249E+04  0.52883502249E+04  0.00000000000E+00 0. -1.
         -2   -1    0    0    0  501 -0.00000000000E+00 -0.00000000000E+00 -0.18729228629E+02  0.18729228629E+02  0.00000000000E+00 0.  1.
         25    1    1    2    0    0 -0.91560230212E+02  0.27543176833E+01  0.44656276778E+03  0.47268823509E+03  0.12500000000E+03 0.  0.
          1    1    1    2  502    0  0.48780122253E+02  0.67491299409E+02  0.45081669285E+04  0.45089359754E+04  0.00000000000E+00 0. -1.
         -1    1    1    2    0  501  0.42780107959E+02 -0.70245617093E+02  0.31489130006E+03  0.32545524302E+03  0.00000000000E+00 0.  1.
<mgrwt>
<rscale>  0 0.82319136E+02</rscale>
<asrwt>0</asrwt>
<pdfrwt beam="1">  1        2 0.81359116E+00 0.82391241E+02</pdfrwt>
<pdfrwt beam="2">  1       -2 0.28814240E-02 0.82247093E+02</pdfrwt>
<totfact> 0.11918169E+01</totfact>
</mgrwt>
</event>
<event>
 5    1  0.9399923E-003  0.2919163E+03  0.7546771E-02  0.1305810E+00
          2   -1    0    0  502    0  0.00000000000E+00  0.00000000000E+00  0.28985329110E+03  0.28985329110E+03  0.00000000000E+00 0. -1.
          1   -1    0    0  501    0 -0.00000000000E+00 -0.00000000000E+00 -0.48773653602E+03  0.48773653602E+03  0.00000000000E+00 0. -1.
         25    1    1    2    0    0 -0.26562333633E+03  0.71477249444E+02 -0.19903876613E+03  0.36180959691E+03  0.12500000000E+03 0.  0.
          2    1    1    2  501    0 -0.18635599615E+02  0.19546094839E+02 -0.97696104513E+02  0.10136007219E+03  0.00000000000E+00 0. -1.
          1    1    1    2  502    0  0.28425893595E+03 -0.91023344283E+02  0.98851625720E+02  0.31442015803E+03  0.00000000000E+00 0. -1.
<mgrwt>
<rscale>  0 0.88789369E+02</rscale>
<asrwt>0</asrwt>
<pdfrwt beam="1">  1        2 0.44592814E-01 0.29191627E+03</pdfrwt>
<pdfrwt beam="2">  1        1 0.75036390E-01 0.27006210E+02</pdfrwt>
<totfact> 0.75734534E+02</totfact>
</mgrwt>
</event>
<event>
 5    1  0.9399923E-003  0.6430481E+02  0.7546771E-02  0.1455994E+00
          1   -1    0    0  501    0 -0.00000000000E+00  0.00000000000E+00  0.84161418863E+03  0.84161418863E+03  0.00000000000E+00 0. -1.
          2   -1    0    0  502    0  0.00000000000E+00 -0.00000000000E+00 -0.63181476336E+02  0.63181476336E+02  0.00000000000E+00 0. -1.
         25    1    1    2    0    0 -0.33995216779E+02 -0.59175021312E+02  0.11823222428E+03  0.18509785728E+03  0.12500000000E+03 0.  0.
          2    1    1    2  501    0 -0.15475613575E+01  0.64540443248E+02  0.67696414072E+03  0.68003552230E+03  0.00000000000E+00 0. -1.
          1    1    1    2  502    0  0.35542778137E+02 -0.53654219358E+01 -0.16763652709E+02  0.39662285390E+02  0.00000000000E+00 0. -1.
<mgrwt>
<rscale>  0 0.48077716E+02</rscale>
<asrwt>0</asrwt>
<pdfrwt beam="2">  1        2 0.97202277E-02 0.35945470E+02</pdfrwt>
<pdfrwt beam="1">  1        1 0.12947910E+00 0.64304815E+02</pdfrwt>
<totfact> 0.18097793E+03</totfact>
</mgrwt>
</event>
<event>
 5    1  0.9399923E-003  0.5285179E+02  0.7546771E-02  0.1499007E+00
          1   -1    0    0  501    0 -0.00000000000E+00  0.00000000000E+00  0.17515272500E+03  0.17515272500E+03  0.00000000000E+00 0. -1.
          2   -1    0    0  502    0  0.00000000000E+00 -0.00000000000E+00 -0.53017596894E+03  0.53017596894E+03  0.00000000000E+00 0. -1.
         25    1    1    2    0    0  0.27570864765E+02 -0.30788060466E+02 -0.17412309976E+03  0.21829317699E+03  0.12500000000E+03 0.  0.
          2    1    1    2  501    0  0.25952223746E+02  0.19128263820E+02  0.14908676400E+03  0.15253285414E+03  0.00000000000E+00 0. -1.
          1    1    1    2  502    0 -0.53523088511E+02  0.11659796647E+02 -0.32998690817E+03  0.33450266281E+03  0.00000000000E+00 0. -1.
<mgrwt>
<rscale>  0 0.41278738E+02</rscale>
<asrwt>0</asrwt>
<pdfrwt beam="2">  1        2 0.81565534E-01 0.52851793E+02</pdfrwt>
<pdfrwt beam="1">  1        1 0.26946573E-01 0.32239857E+02</pdfrwt>
<totfact> 0.13408405E+03</totfact>
</mgrwt>
</event>
<event>
 5    1  0.9399923E-003  0.7028892E+02  0.7546771E-02  0.1410556E+00
          2   -1    0    0  502    0  0.00000000000E+00  0.00000000000E+00  0.19779974001E+04  0.19779974001E+04  0.00000000000E+00 0. -1.
          1   -1    0    0  501    0 -0.00000000000E+00 -0.00000000000E+00 -0.35425810675E+03  0.35425810675E+03  0.00000000000E+00 0. -1.
         25    1    1    2    0    0 -0.13803526857E+02 -0.31483525205E+02 -0.58858049126E+02  0.14237633111E+03  0.12500000000E+03 0.  0.
          2    1    1    2  501    0 -0.65162801637E+00  0.75508015103E+02 -0.24773667819E+03  0.25898908603E+03  0.00000000000E+00 0. -1.
          1    1    1    2  502    0  0.14455154874E+02 -0.44024489898E+02  0.19303340206E+04  0.19308900897E+04  0.00000000000E+00 0. -1.
<mgrwt>
<rscale>  0 0.57069868E+02</rscale>
<asrwt>0</asrwt>
<pdfrwt beam="1">  1        2 0.30430729E+00 0.46336888E+02</pdfrwt>
<pdfrwt beam="2">  1        1 0.54501248E-01 0.70288919E+02</pdfrwt>
<totfact> 0.90453206E+01</totfact>
</mgrwt>
</event>
<event>
 5    1  0.9399923E-003  0.2702347E+03  0.7546771E-02  0.1153382E+00
         -2   -1    0    0    0  501 -0.00000000000E+00  0.00000000000E+00  0.27478468334E+03  0.27478468334E+03  0.00000000000E+00 0.  1.
          2   -1    0    0  502    0  0.00000000000E+00 -0.00000000000E+00 -0.12209757705E+04  0.12209757705E+04  0.00000000000E+00 0. -1.
         25    1    1    2    0    0 -0.17897074987E+03  0.96114521261E+02 -0.43571298977E+03  0.49672863815E+03  0.12500000000E+03 0.  0.
          1    1    1    2  502    0 -0.10750587913E+03 -0.92441082067E+02 -0.66055769196E+03  0.67560293968E+03  0.00000000000E+00 0. -1.
         -1    1    1    2    0  501  0.28647662900E+03 -0.36734391943E+01  0.15007959458E+03  0.32342887599E+03  0.00000000000E+00 0.  1.
<mgrwt>
<rscale>  0 0.19574246E+03</rscale>
<asrwt>0</asrwt>
<pdfrwt beam="2">  1        2 0.18784243E+00 0.14178458E+03</pdfrwt>
<pdfrwt beam="1">  1       -2 0.42274566E-01 0.27023468E+03</pdfrwt>
<totfact> 0.10965008E+02</totfact>
</mgrwt>
</event>
<event>
 5    1  0.9399923E-003  0.7020548E+02  0.7546771E-02  0.1368202E+00
          2   -1    0    0  502    0  0.00000000000E+00  0.00000000000E+00  0.82494176566E+03  0.82494176566E+03  0.00000000000E+00 0. -1.
          1   -1    0    0  501    0 -0.00000000000E+00 -0.00000000000E+00 -0.50490362844E+03  0.50490362844E+03  0.00000000000E+00 0. -1.
         25    1    1    2    0    0  0.95132232921E-01 -0.11323957163E+03  0.63805850634E+02  0.18033135115E+03  0.12500000000E+03 0.  0.
          2    1    1    2  501    0  0.36520063852E+02  0.59261050086E+02 -0.44240030031E+03  0.44784329049E+03  0.00000000000E+00 0. -1.
          1    1    1    2  502    0 -0.36615196085E+02  0.53978521544E+02  0.69863258690E+03  0.70167075246E+03  0.00000000000E+00 0. -1.
<mgrwt>
<rscale>  0 0.67669646E+02</rscale>
<asrwt>0</asrwt>
<pdfrwt beam="1">  1        2 0.12691412E+00 0.65225404E+02</pdfrwt>
<pdfrwt beam="2">  1        1 0.77677481E-01 0.70205483E+02</pdfrwt>
<totfact> 0.22719107E+02</totfact>
</mgrwt>
</event>
<event>
 5    1  0.9399923E-003  0.1092932E+03  0.7546771E-02  0.1303581E+00
          1   -1    0    0  502    0  0.00000000000E+00  0.00000000000E+00  0.87328758544E+03  0.87328758544E+03  0.00000000000E+00 0. -1.
         -1   -1    0    0    0  501 -0.00000000000E+00 -0.00000000000E+00 -0.12902889812E+03  0.12902889812E+03  0.00000000000E+00 0.  1.
         25    1    1    2    0    0  0.40423626197E+02  0.19533465154E+01  0.11944439691E+02  0.13193011315E+03  0.12500000000E+03 0.  0.
          2    1    1    2  502    0 -0.11403249134E+03 -0.31423421727E+01  0.77629439747E+03  0.78463129873E+03  0.00000000000E+00 0. -1.
         -2    1    1    2    0  501  0.73608865144E+02  0.11889956573E+01 -0.43980149842E+02  0.85755071678E+02  0.00000000000E+00 0.  1.
<mgrwt>
<rscale>  0 0.89699501E+02</rscale>
<asrwt>0</asrwt>
<pdfrwt beam="1">  1        1 0.13435193E+00 0.10929324E+03</pdfrwt>
<pdfrwt beam="2">  1       -1 0.19850600E-01 0.73618467E+02</pdfrwt>
<totfact> 0.41451376E+02</totfact>
</mgrwt>
</event>
<event>
 5    1  0.9399923E-003  0.1608748E+03  0.7546771E-02  0.1300978E+00
          1   -1    0    0  501    0 -0.00000000000E+00  0.00000000000E+00  0.40163027003E+03  0.40163027003E+03  0.00000000000E+00 0. -1.
          2   -1    0    0  502    0  0.00000000000E+00 -0.00000000000E+00 -0.98119172187E+03  0.98119172187E+03  0.00000000000E+00 0. -1.
         25    1    1    2    0    0 -0.15223826660E+03 -0.10851881557E+03 -0.13484592529E+03  0.26222365781E+03  0.12500000000E+03 0.  0.
          2    1    1    2  501    0  0.49787417416E+02 -0.12046423207E+02  0.32793689337E+03  0.33191340630E+03  0.00000000000E+00 0. -1.
          1    1    1    2  502    0  0.10245084918E+03  0.12056523878E+03 -0.77265241993E+03  0.78868492779E+03  0.00000000000E+00 0. -1.
<mgrwt>
<rscale>  0 0.90778061E+02</rscale>
<asrwt>0</asrwt>
<pdfrwt beam="2">  1        2 0.15095257E+00 0.16087476E+03</pdfrwt>
<pdfrwt beam="1">  1        1 0.61789272E-01 0.51224049E+02</pdfrwt>
<totfact> 0.23311994E+02</totfact>
</mgrwt>
</event>
<event>
 5    1  0.9399923E-003  0.1405701E+03  0.7546771E-02  0.1352375E+00
         -1   -1    0    0    0  501 -0.00000000000E+00  0.00000000000E+00  0.26963440303E+03  0.26963440303E+03  0.00000000000E+00 0.  1.
          1   -1    0    0  502    0  0.00000000000E+00 -0.00000000000E+00 -0.14848194928E+04  0.14848194928E+04  0.00000000000E+00 0. -1.
         25    1    1    2    0    0 -0.40802958104E+02 -0.14429003923E+03 -0.20051977265E+02  0.19624367150E+03  0.12500000000E+03 0.  0.
          2    1    1    2  502    0  0.70238181080E+02  0.12153129443E+03 -0.13711436871E+04  0.13783099319E+04  0.00000000000E+00 0. -1.
         -2    1    1    2    0  501 -0.29435222976E+02  0.22758744805E+02  0.17601057466E+03  0.17990029241E+03  0.00000000000E+00 0.  1.
<mgrwt>
<rscale>  0 0.72320494E+02</rscale>
<asrwt>0</asrwt>
<pdfrwt beam="2">  1        1 0.22843377E+00 0.14057015E+03</pdfrwt>
<pdfrwt beam="1">  1       -1 0.41482216E-01 0.37207430E+02</pdfrwt>
<totfact> 0.45222166E+01</totfact>
</mgrwt>
</event>
<event>
 5    1  0.9399923E-003  0.1641133E+03  0.7546771E-02  0.1258297E+00
         -2   -1    0    0    0  501 -0.00000000000E+00  0.00000000000E+00  0.21539315293E+03  0.21539315293E+03  0.00000000000E+00 0.  1.
          2   -1    0    0  502    0  0.00000000000E+00 -0.00000000000E+00 -0.33215581816E+03  0.33215581816E+03  0.00000000000E+00 0. -1.
         25    1    1    2    0    0  0.87850858696E+02  0.73196332826E+02  0.27536595571E-01  0.16941215208E+03  0.12500000000E+03 0.  0.
          1    1    1    2  502    0 -0.15942541919E+03 -0.96897858959E+02 -0.19474389181E+03  0.26968656391E+03  0.00000000000E+00 0. -1.
         -1    1    1    2    0  501  0.71574560497E+02  0.23701526133E+02  0.77953689986E+02  0.10845025511E+03  0.00000000000E+00 0.  1.
<mgrwt>
<rscale>  0 0.11123677E+03</rscale>
<asrwt>0</asrwt>
<pdfrwt beam="2">  1        2 0.51100895E-01 0.16411328E+03</pdfrwt>
<pdfrwt beam="1">  1       -2 0.33137408E-01 0.75396817E+02</pdfrwt>
<totfact> 0.81989655E+02</totfact>
</mgrwt>
</event>
<event>
 5    1  0.9399923E-003  0.4132178E+02  0.7546771E-02  0.1572464E+00
         -2   -1    0    0    0  501 -0.00000000000E+00  0.00000000000E+00  0.47808803642E+03  0.47808803642E+03  0.00000000000E+00 0.  1.
          2   -1    0    0  502    0  0.00000000000E+00 -0.00000000000E+00 -0.15015160377E+03  0.15015160377E+03  0.00000000000E+00 0. -1.
         25    1    1    2    0    0  0.50554280226E+02 -0.14370812667E+02 -0.60327492723E+02  0.14841381972E+03  0.12500000000E+03 0.  0.
          1    1    1    2  502    0 -0.21000130599E+02 -0.14441381021E+02 -0.41165990516E+02  0.48416915909E+02  0.00000000000E+00 0. -1.
         -1    1    1    2    0  501 -0.29554149628E+02  0.28812193688E+02  0.42942991589E+03  0.43140890455E+03  0.00000000000E+00 0.  1.
<mgrwt>
<rscale>  0 0.32452202E+02</rscale>
<asrwt>0</asrwt>
<pdfrwt beam="2">  1        2 0.23100247E-01 0.25486447E+02</pdfrwt>
<pdfrwt beam="1">  1       -2 0.73552005E-01 0.41321782E+02</pdfrwt>
<totfact> 0.38287749E+02</totfact>
</mgrwt>
</event>
<event>
 5    1  0.9399923E-003  0.6327460E+02  0.7546771E-02  0.1459923E+00
         -2   -1    0    0    0  501 -0.00000000000E+00  0.00000000000E+00  0.48428865743E+02  0.48428865743E+02  0.00000000000E+00 0.  1.
          2   -1    0    0  502    0  0.00000000000E+00 -0.00000000000E+00 -0.41749683087E+03  0.41749683087E+03  0.00000000000E+00 0. -1.
         25    1    1    2    0    0 -0.85750812309E+02 -0.35285598045E+02 -0.28207864051E+03  0.32216709123E+03  0.12500000000E+03 0.  0.
          1    1    1    2  502    0  0.27223766263E+02  0.22784251712E+02 -0.74637535927E+02  0.82649968814E+02  0.00000000000E+00 0. -1.
         -1    1    1    2    0  501  0.58527046046E+02  0.12501346333E+02 -0.12351788687E+02  0.61108636565E+02  0.00000000000E+00 0.  1.
<mgrwt>
<rscale>  0 0.47394655E+02</rscale>
<asrwt>0</asrwt>
<pdfrwt beam="2">  1        2 0.64230281E-01 0.35500079E+02</pdfrwt>
<pdfrwt beam="1">  1       -2 0.74505948E-02 0.63274602E+02</pdfrwt>
<totfact> 0.72715259E+03</totfact>
</mgrwt>
</event>
<event>
 5    1  0.9399923E-003  0.9394859E+02  0.7546771E-02  0.1294455E+00
          1   -1    0    0  501    0 -0.00000000000E+00  0.00000000000E+00  0.49672311839E+03  0.49672311839E+03  0.00000000000E+00 0. -1.
          2   -1    0    0  502    0  0.00000000000E+00 -0.00000000000E+00 -0.12512555510E+04  0.12512555510E+04  0.00000000000E+00 0. -1.
         25    1    1    2    0    0  0.14546861552E+03  0.10332159413E+03  0.14954920989E+03  0.26424692258E+03  0.12500000000E+03 0.  0.
          2    1    1    2  501    0 -0.88345348923E+02 -0.29594796047E+02  0.28045641776E+03  0.29552758736E+03  0.00000000000E+00 0. -1.
          1    1    1    2  502    0 -0.57123266594E+02 -0.73726798078E+02 -0.11845380603E+04  0.11882041595E+04  0.00000000000E+00 0. -1.
<mgrwt>
<rscale>  0 0.93558764E+02</rscale>
<asrwt>0</asrwt>
<pdfrwt beam="2">  1        2 0.19250085E+00 0.93948589E+02</pdfrwt>
<pdfrwt beam="1">  1        1 0.76418942E-01 0.93170557E+02</pdfrwt>
<totfact> 0.12824260E+02</totfact>
</mgrwt>
</event>
<event>
 5    1  0.9399923E-003  0.3767894E+02  0.7546771E-02  0.1545575E+00
          1   -1    0    0  502    0  0.00000000000E+00  0.00000000000E+00  0.34651944575E+03  0.34651944575E+03  0.00000000000E+00 0. -1.
         -3   -1    0    0    0  501 -0.00000000000E+00 -0.00000000000E+00 -0.21832619474E+03  0.21832619474E+03  0.00000000000E+00 0.  1.
         25    1    1    2    0    0  0.98390541015E+01  0.32606181681E+01 -0.63377123595E+02  0.14053148548E+03  0.12500000000E+03 0.  0.
          2    1    1    2  502    0  0.11302071619E+02  0.31165904183E+02  0.30350595902E+03  0.30531118153E+03  0.00000000000E+00 0. -1.
         -2    1    1    2    0  501 -0.21141125721E+02 -0.34426522351E+02 -0.11193558442E+03  0.11900297348E+03  0.00000000000E+00 0.  1.
<mgrwt>
<rscale>  0 0.35343028E+02</rscale>
<asrwt>0</asrwt>
<pdfrwt beam="1">  1        1 0.53310684E-01 0.33151929E+02</pdfrwt>
<pdfrwt beam="2">  1       -3 0.33588645E-01 0.37678941E+02</pdfrwt>
<totfact> 0.30549542E+02</totfact>
</mgrwt>
</event>
<event>
 5    1  0.9399923E-003  0.8915936E+02  0.7546771E-02  0.1459899E+00
          1   -1    0    0  501    0 -0.00000000000E+00  0.00000000000E+00  0.10119073944E+04  0.10119073944E+04  0.00000000000E+00 0. -1.
          2   -1    0    0  502    0  0.00000000000E+00 -0.00000000000E+00 -0.11851364176E+04  0.11851364176E+04  0.00000000000E+00 0. -1.
         25    1    1    2    0    0  0.51272149028E+02 -0.57948267592E+02  0.19121643211E+03  0.24119610049E+03  0.12500000000E+03 0.  0.
          2    1    1    2  501    0 -0.75311473378E+02  0.50394938455E+02  0.79298360752E+03  0.79814439147E+03  0.00000000000E+00 0. -1.
          1    1    1    2  502    0  0.24039324350E+02  0.75533291370E+01 -0.11574290628E+04  0.11577033201E+04  0.00000000000E+00 0. -1.
<mgrwt>
<rscale>  0 0.47398760E+02</rscale>
<asrwt>0</asrwt>
<pdfrwt beam="2">  1        2 0.18232868E+00 0.25198053E+02</pdfrwt>
<pdfrwt beam="1">  1        1 0.15567806E+00 0.89159365E+02</pdfrwt>
<totfact> 0.54883566E+01</totfact>
</mgrwt>
</event>
<event>
 5    1  0.9399923E-003  0.5357302E+02  0.7546771E-02  0.1545895E+00
          2   -1    0    0  502    0  0.00000000000E+00  0.00000000000E+00  0.19661595264E+04  0.19661595264E+04  0.00000000000E+00 0. -1.
          1   -1    0    0  501    0 -0.00000000000E+00 -0.00000000000E+00 -0.58755920089E+02  0.58755920089E+02  0.00000000000E+00 0. -1.
         25    1    1    2    0    0 -0.10554632477E+02  0.74719619431E+02  0.46888950451E+03  0.49109753536E+03  0.12500000000E+03 0.  0.
          2    1    1    2  501    0  0.70418992022E+01 -0.22177088398E+02 -0.44315937517E+02  0.50053110914E+02  0.00000000000E+00 0. -1.
          1    1    1    2  502    0  0.35127332751E+01 -0.52542531033E+02  0.14828300393E+04  0.14837648002E+04  0.00000000000E+00 0. -1.
<mgrwt>
<rscale>  0 0.35306524E+02</rscale>
<asrwt>0</asrwt>
<pdfrwt beam="1">  1        2 0.30248603E+00 0.53573024E+02</pdfrwt>
<pdfrwt beam="2">  1        1 0.90393738E-02 0.23268253E+02</pdfrwt>
<totfact> 0.76623725E+02</totfact>
</mgrwt>
</event>
<event>
 5    1  0.9399923E-003  0.8598654E+02  0.7546771E-02  0.1372917E+00
          2   -1    0    0  502    0  0.00000000000E+00  0.00000000000E+00  0.88638078936E+03  0.88638078936E+03  0.00000000000E+00 0. -1.
         -2   -1    0    0    0  501 -0.00000000000E+00 -0.00000000000E+00 -0.51312407559E+03  0.51312407559E+03  0.00000000000E+00 0.  1.
         25    1    1    2    0    0  0.21073171270E+02 -0.64756332157E+02  0.21485245935E+02  0.14395859438E+03  0.12500000000E+03 0.  0.
          1    1    1    2  502    0  0.26807713547E+02  0.82941330601E+02  0.79983209959E+03  0.80456777549E+03  0.00000000000E+00 0. -1.
         -1    1    1    2    0  501 -0.47880884817E+02 -0.18184998444E+02 -0.44806063176E+03  0.45097849508E+03  0.00000000000E+00 0.  1.
<mgrwt>
<rscale>  0 0.66363017E+02</rscale>
<asrwt>0</asrwt>
<pdfrwt beam="1">  1        2 0.13636628E+00 0.85986540E+02</pdfrwt>
<pdfrwt beam="2">  1       -2 0.78942165E-01 0.51217900E+02</pdfrwt>
<totfact> 0.49933516E+01</totfact>
</mgrwt>
</event>
<event>
 5    1  0.9399923E-003  0.9115163E+02  0.7546771E-02  0.1304084E+00
          2   -1    0    0  502    0  0.00000000000E+00  0.00000000000E+00  0.13577245350E+04  0.13577245350E+04  0.00000000000E+00 0. -1.
          1   -1    0    0  501    0 -0.00000000000E+00 -0.00000000000E+00 -0.24673989266E+03  0.24673989266E+03  0.00000000000E+00 0. -1.
         25    1    1    2    0    0  0.72292083700E+02  0.21348433068E+02  0.92880337092E+02  0.17301346184E+03  0.12500000000E+03 0.  0.
          2    1    1    2  501    0 -0.68630583207E+02  0.66439882833E+02 -0.19396022298E+03  0.21620588123E+03  0.00000000000E+00 0. -1.
          1    1    1    2  502    0 -0.36615004938E+01 -0.87788315901E+02  0.12120645282E+04  0.12152450845E+04  0.00000000000E+00 0. -1.
<mgrwt>
<rscale>  0 0.89493047E+02</rscale>
<asrwt>0</asrwt>
<pdfrwt beam="1">  1        2 0.20888069E+00 0.87864640E+02</pdfrwt>
<pdfrwt beam="2">  1        1 0.37959984E-01 0.91151633E+02</pdfrwt>
<totfact> 0.26906379E+02</totfact>
</mgrwt>
</event>
<event>
 5    1  0.9399923E-003  0.2884838E+03  0.7546771E-02  0.1293671E+00
          2   -1    0    0  502    0  0.00000000000E+00  0.00000000000E+00  0.16011550139E+04  0.16011550139E+04  0.00000000000E+00 0. -1.
          1   -1    0    0  501    0 -0.00000000000E+00 -0.00000000000E+00 -0.19728973508E+03  0.19728973508E+03  0.00000000000E+00 0. -1.
         25    1    1    2    0    0  0.99195473816E+02  0.29207189413E+03  0.24024301776E+03  0.41047221703E+03  0.12500000000E+03 0.  0.
          2    1    1    2  501    0 -0.89899966151E+02 -0.26295512081E+03  0.60475373222E+02  0.28440230351E+03  0.00000000000E+00 0. -1.
          1    1    1    2  502    0 -0.92955076649E+01 -0.29116773314E+02  0.11031468878E+04  0.11035702284E+04  0.00000000000E+00 0. -1.
<mgrwt>
<rscale>  0 0.93900916E+02</rscale>
<asrwt>0</asrwt>
<pdfrwt beam="1">  1        2 0.24633153E+00 0.30564570E+02</pdfrwt>
<pdfrwt beam="2">  1        1 0.30352268E-01 0.28848376E+03</pdfrwt>
<totfact> 0.29754801E+02</totfact>
</mgrwt>
</event>
<event>
 5    1  0.9399923E-003  0.1395622E+03  0.7546771E-02  0.1352549E+00
          2   -1    0    0  502    0  0.00000000000E+00  0.00000000000E+00  0.87442603046E+03  0.87442603046E+03  0.00000000000E+00 0. -1.
          1   -1    0    0  501    0 -0.00000000000E+00 -0.00000000000E+00 -0.55624232694E+03  0.55624232694E+03  0.00000000000E+00 0. -1.
         25    1    1    2    0    0  0.31335514763E+02  0.10945824826E+03  0.80751655382E+02  0.18737356389E+03  0.12500000000E+03 0.  0.
          2    1    1    2  501    0 -0.17628404471E+02  0.33008388279E+02 -0.49530189444E+03  0.49671347977E+03  0.00000000000E+00 0. -1.
          1    1    1    2  502    0 -0.13707110293E+02 -0.14246663654E+03  0.73273394259E+03  0.74658131374E+03  0.00000000000E+00 0. -1.
<mgrwt>
<rscale>  0 0.72267033E+02</rscale>
<asrwt>0</asrwt>
<pdfrwt beam="1">  1        2 0.13452708E+00 0.13956216E+03</pdfrwt>
<pdfrwt beam="2">  1        1 0.85575743E-01 0.37420774E+02</pdfrwt>
<totfact> 0.18398362E+02</totfact>
</mgrwt>
</event>
<event>
 5    1  0.9399923E-003  0.1592404E+03  0.7546771E-02  0.1285120E+00
         -2   -1    0    0    0  501 -0.00000000000E+00  0.00000000000E+00  0.11281336560E+03  0.11281336560E+03  0.00000000000E+00 0.  1.
          2   -1    0    0  502    0  0.00000000000E+00 -0.00000000000E+00 -0.12245748228E+04  0.12245748228E+04  0.00000000000E+00 0. -1.
         25    1    1    2    0    0  0.89882325622E+02  0.88293512497E+02 -0.27552844484E+03  0.32774304069E+03  0.12500000000E+03 0.  0.
          1    1    1    2  502    0 -0.14955016957E+03 -0.82059891198E+02 -0.90352870318E+03  0.91949072667E+03  0.00000000000E+00 0. -1.
         -1    1    1    2    0  501  0.59667843952E+02 -0.62336212985E+01  0.67295690800E+02  0.90154421059E+02  0.00000000000E+00 0.  1.
<mgrwt>
<rscale>  0 0.97740681E+02</rscale>
<asrwt>0</asrwt>
<pdfrwt beam="2">  1        2 0.18839613E+00 0.15924037E+03</pdfrwt>
<pdfrwt beam="1">  1       -2 0.17355902E-01 0.59992580E+02</pdfrwt>
<totfact> 0.50584295E+02</totfact>
</mgrwt>
</event>
<event>
 5    1  0.9399923E-003  0.2547617E+03  0.7546771E-02  0.1149881E+00
          1   -1    0    0  501    0 -0.00000000000E+00  0.00000000000E+00  0.79818878457E+03  0.79818878457E+03  0.00000000000E+00 0. -1.
          2   -1    0    0  502    0  0.00000000000E+00 -0.00000000000E+00 -0.65195690428E+03  0.65195690428E+03  0.00000000000E+00 0. -1.
         25    1    1    2    0    0 -0.21094791250E+03  0.16814132497E+03 -0.68648617445E+01  0.29739309555E+03  0.12500000000E+03 0.  0.
          2    1    1    2  501    0  0.25847305398E+03 -0.18773544320E+02  0.61371843698E+03  0.66619147810E+03  0.00000000000E+00 0. -1.
          1    1    1    2  502    0 -0.47525141477E+02 -0.14936778065E+03 -0.46062169495E+03  0.48656111521E+03  0.00000000000E+00 0. -1.
<mgrwt>
<rscale>  0 0.19983225E+03</rscale>
<asrwt>0</asrwt>
<pdfrwt beam="2">  1        2 0.10030106E+00 0.15674621E+03</pdfrwt>
<pdfrwt beam="1">  1        1 0.12279827E+00 0.25476169E+03</pdfrwt>
<totfact> 0.14765160E+02</totfact>
</mgrwt>
</event>
<event>
 5    1  0.9399923E-003  0.8465329E+02  0.7546771E-02  0.1404569E+00
          2   -1    0    0  502    0  0.00000000000E+00  0.00000000000E+00  0.35536067944E+03  0.35536067944E+03  0.00000000000E+00 0. -1.
          1   -1    0    0  501    0 -0.00000000000E+00 -0.00000000000E+00 -0.31228818819E+03  0.31228818819E+03  0.00000000000E+00 0. -1.
         25    1    1    2    0    0  0.44226452515E+02 -0.32105421389E+02  0.42479216705E+02  0.14288534227E+03  0.12500000000E+03 0.  0.
          2    1    1    2  501    0  0.40251965469E+02  0.23606121294E+01 -0.25280656219E+03  0.25600185762E+03  0.00000000000E+00 0. -1.
          1    1    1    2  502    0 -0.84478417984E+02  0.29744809259E+02  0.25339983674E+03  0.26876166773E+03  0.00000000000E+00 0. -1.
<mgrwt>
<rscale>  0 0.58423592E+02</rscale>
<asrwt>0</asrwt>
<pdfrwt beam="1">  1        2 0.54670874E-01 0.84653294E+02</pdfrwt>
<pdfrwt beam="2">  1        1 0.48044337E-01 0.40321126E+02</pdfrwt>
<totfact> 0.10322311E+03</totfact>
</mgrwt>
</event>
<event>
 5    1  0.9399923E-003  0.3244391E+02  0.7546771E-02  0.1584789E+00
          1   -1    0    0  501    0 -0.00000000000E+00  0.00000000000E+00  0.76571575837E+02  0.76571575837E+02  0.00000000000E+00 0. -1.
          2   -1    0    0  502    0  0.00000000000E+00 -0.00000000000E+00 -0.87522732091E+03  0.87522732091E+03  0.00000000000E+00 0. -1.
         25    1    1    2    0    0  0.10445694119E+02 -0.10758174347E+02 -0.67442069638E+02  0.14282255984E+03  0.12500000000E+03 0.  0.
          2    1    1    2  501    0 -0.33020429724E+02 -0.91180091991E+01  0.30981395450E+02  0.46188025883E+02  0.00000000000E+00 0. -1.
          1    1    1    2  502    0  0.22574735605E+02  0.19876183546E+02 -0.76219507088E+03  0.76278831103E+03  0.00000000000E+00 0. -1.
<mgrwt>
<rscale>  0 0.31238524E+02</rscale>
<asrwt>0</asrwt>
<pdfrwt beam="2">  1        2 0.13465036E+00 0.30077921E+02</pdfrwt>
<pdfrwt beam="1">  1        1 0.11780242E-01 0.32443909E+02</pdfrwt>
<totfact> 0.21337015E+03</totfact>
</mgrwt>
</event>
<event>
 5    1  0.9399923E-003  0.8175964E+02  0.7546771E-02  0.1379994E+00
          2   -1    0    0  502    0  0.00000000000E+00  0.00000000000E+00  0.21972530381E+03  0.21972530381E+03  0.00000000000E+00 0. -1.
          1   -1    0    0  501    0 -0.00000000000E+00 -0.00000000000E+00 -0.18419286424E+04  0.18419286424E+04  0.00000000000E+00 0. -1.
         25    1    1    2    0    0 -0.92886795399E+01  0.32603525710E+02  0.13187617354E+03  0.18483937515E+03  0.12500000000E+03 0.  0.
          2    1    1    2  501    0  0.45481723850E+02 -0.68291842901E+02 -0.18038269632E+04  0.18056921321E+04  0.00000000000E+00 0. -1.
          3    1    1    2  502    0 -0.36193044310E+02  0.35688317191E+02  0.49747451005E+02  0.71122438947E+02  0.00000000000E+00 0. -1.
<mgrwt>
<rscale>  0 0.64465223E+02</rscale>
<asrwt>0</asrwt>
<pdfrwt beam="1">  1        2 0.33803892E-01 0.50829051E+02</pdfrwt>
<pdfrwt beam="2">  1        1 0.28337364E+00 0.81759640E+02</pdfrwt>
<totfact> 0.99404694E+01</totfact>
</mgrwt>
</event>
<event>
 5    1  0.9399923E-003  0.7321821E+02  0.7546771E-02  0.1358961E+00
          2   -1    0    0  502    0  0.00000000000E+00  0.00000000000E+00  0.97316896383E+03  0.97316896383E+03  0.00000000000E+00 0. -1.
          1   -1    0    0  501    0 -0.00000000000E+00 -0.00000000000E+00 -0.14763532706E+03  0.14763532706E+03  0.00000000000E+00 0. -1.
         25    1    1    2    0    0  0.23053809519E+01 -0.33882164163E+02  0.21907600616E+03  0.25450464103E+03  0.12500000000E+03 0.  0.
          2    1    1    2  501    0  0.65049320101E+02  0.39190073232E+02 -0.11711350973E+03  0.13958098024E+03  0.00000000000E+00 0. -1.
          1    1    1    2  502    0 -0.67354701053E+02 -0.53079090688E+01  0.72357114034E+03  0.72671866962E+03  0.00000000000E+00 0. -1.
<mgrwt>
<rscale>  0 0.70334061E+02</rscale>
<asrwt>0</asrwt>
<pdfrwt beam="1">  1        2 0.14971830E+00 0.67563523E+02</pdfrwt>
<pdfrwt beam="2">  1        1 0.22713128E-01 0.73218209E+02</pdfrwt>
<totfact> 0.82993316E+02</totfact>
</mgrwt>
</event>
<event>
 5    1  0.9399923E-003  0.1438078E+03  0.7546771E-02  0.1272119E+00
          1   -1    0    0  501    0 -0.00000000000E+00  0.00000000000E+00  0.16931716637E+04  0.16931716637E+04  0.00000000000E+00 0. -1.
          2   -1    0    0  502    0  0.00000000000E+00 -0.00000000000E+00 -0.21275408080E+04  0.21275408080E+04  0.00000000000E+00 0. -1.
         25    1    1    2    0    0 -0.81202594387E+02  0.81765216170E+02  0.19918539601E+03  0.26187637140E+03  0.12500000000E+03 0.  0.
          2    1    1    2  501    0  0.14355680818E+03 -0.39730984515E+02  0.14581710743E+04  0.14657591856E+04  0.00000000000E+00 0. -1.
          1    1    1    2  502    0 -0.62354213791E+02 -0.42034231655E+02 -0.20917256145E+04  0.20930769147E+04  0.00000000000E+00 0. -1.
<mgrwt>
<rscale>  0 0.10399153E+03</rscale>
<asrwt>0</asrwt>
<pdfrwt beam="2">  1        2 0.32731397E+00 0.75199233E+02</pdfrwt>
<pdfrwt beam="1">  1        1 0.26048795E+00 0.14380782E+03</pdfrwt>
<totfact> 0.57640193E+00</totfact>
</mgrwt>
</event>
<event>
 5    1  0.9399923E-003  0.8545179E+02  0.7546771E-02  0.1440015E+00
          2   -1    0    0  502    0  0.00000000000E+00  0.00000000000E+00  0.75406369883E+03  0.75406369883E+03  0.00000000000E+00 0. -1.
          1   -1    0    0  501    0 -0.00000000000E+00 -0.00000000000E+00 -0.97666379601E+03  0.97666379601E+03  0.00000000000E+00 0. -1.
         25    1    1    2    0    0 -0.84935860030E+02  0.46619985680E+02 -0.20846085923E+02  0.15952141763E+03  0.12500000000E+03 0.  0.
          2    1    1    2  501    0  0.58610051897E+02 -0.61901658312E+02 -0.88409055678E+03  0.88819089506E+03  0.00000000000E+00 0. -1.
          1    1    1    2  502    0  0.26325808133E+02  0.15281672631E+02  0.68233654552E+03  0.68301518215E+03  0.00000000000E+00 0. -1.
<mgrwt>
<rscale>  0 0.51001275E+02</rscale>
<asrwt>0</asrwt>
<pdfrwt beam="1">  1        2 0.11600980E+00 0.30439739E+02</pdfrwt>
<pdfrwt beam="2">  1        1 0.15025597E+00 0.85451786E+02</pdfrwt>
<totfact> 0.10114111E+02</totfact>
</mgrwt>
</event>
<event>
 5    1  0.9399923E-003  0.3182520E+02  0.7546771E-02  0.1581305E+00
          2   -1    0    0  502    0  0.00000000000E+00  0.00000000000E+00  0.15806741823E+04  0.15806741823E+04  0.00000000000E+00 0. -1.
          1   -1    0    0  501    0 -0.00000000000E+00 -0.00000000000E+00 -0.82109553071E+03  0.82109553071E+03  0.00000000000E+00 0. -1.
         25    1    1    2    0    0 -0.31552440033E+02  0.18049105521E+02 -0.21465894702E+02  0.13193601221E+03  0.12500000000E+03 0.  0.
          2    1    1    2  501    0  0.28209440826E+02  0.13622990286E+02 -0.74389865458E+03  0.74455796732E+03  0.00000000000E+00 0. -1.
          1    1    1    2  502    0  0.33429992073E+01 -0.31672095807E+02  0.15249432009E+04  0.15252757335E+04  0.00000000000E+00 0. -1.
<mgrwt>
<rscale>  0 0.31574936E+02</rscale>
<asrwt>0</asrwt>
<pdfrwt beam="1">  1        2 0.24318064E+00 0.31825199E+02</pdfrwt>
<pdfrwt beam="2">  1        1 0.12632239E+00 0.31326641E+02</pdfrwt>
<totfact> 0.50698622E+01</totfact>
</mgrwt>
</event>
<event>
 5    1  0.9399923E-003  0.2415763E+03  0.7546771E-02  0.1224465E+00
          1   -1    0    0  501    0 -0.00000000000E+00  0.00000000000E+00  0.23756373435E+04  0.23756373435E+04  0.00000000000E+00 0. -1.
          2   -1    0    0  502    0  0.00000000000E+00 -0.00000000000E+00 -0.34370474238E+04  0.34370474238E+04  0.00000000000E+00 0. -1.
         25    1    1    2    0    0  0.66199899950E+02 -0.26585017119E+03  0.31627427859E+03  0.43670717829E+03  0.12500000000E+03 0.  0.
          2    1    1    2  501    0 -0.67860848529E+02  0.24553518789E+02  0.19941823398E+04  0.19954877034E+04  0.00000000000E+00 0. -1.
          1    1    1    2  502    0  0.16609485786E+01  0.24129665240E+03 -0.33718666987E+04  0.33804898856E+04  0.00000000000E+00 0. -1.
<mgrwt>
<rscale>  0 0.13203659E+03</rscale>
<asrwt>0</asrwt>
<pdfrwt beam="2">  1        2 0.52877653E+00 0.24157631E+03</pdfrwt>
<pdfrwt beam="1">  1        1 0.36548267E+00 0.72166267E+02</pdfrwt>
<totfact> 0.36091602E-01</totfact>
</mgrwt>
</event>
<event>
 5    1  0.9399923E-003  0.9280562E+02  0.7546771E-02  0.1301715E+00
         -2   -1    0    0    0  501 -0.00000000000E+00  0.00000000000E+00  0.93054783552E+03  0.93054783552E+03  0.00000000000E+00 0.  1.
          2   -1    0    0  502    0  0.00000000000E+00 -0.00000000000E+00 -0.77431424434E+03  0.77431424434E+03  0.00000000000E+00 0. -1.
         25    1    1    2    0    0 -0.18803694434E+02 -0.26939870324E+02 -0.23984045550E+03  0.27244775578E+03  0.12500000000E+03 0.  0.
          1    1    1    2  502    0  0.11112209961E+03  0.17442793821E+02 -0.50966662873E+03  0.52193145577E+03  0.00000000000E+00 0. -1.
         -1    1    1    2    0  501 -0.92318405175E+02  0.94970765032E+01  0.90574067541E+03  0.91048286831E+03  0.00000000000E+00 0.  1.
<mgrwt>
<rscale>  0 0.90471186E+02</rscale>
<asrwt>0</asrwt>
<pdfrwt beam="2">  1        2 0.11912527E+00 0.88195475E+02</pdfrwt>
<pdfrwt beam="1">  1       -2 0.14316121E+00 0.92805616E+02</pdfrwt>
<totfact> 0.14674534E+01</totfact>
</mgrwt>
</event>
<event>
 5    1  0.9399923E-003  0.6109477E+02  0.7546771E-02  0.1397059E+00
          1   -1    0    0  501    0 -0.00000000000E+00  0.00000000000E+00  0.10907400559E+03  0.10907400559E+03  0.00000000000E+00 0. -1.
          2   -1    0    0  502    0  0.00000000000E+00 -0.00000000000E+00 -0.65300306767E+03  0.65300306767E+03  0.00000000000E+00 0. -1.
         25    1    1    2    0    0 -0.20058318365E+01  0.61065308497E+01 -0.16624463402E+03  0.20809514992E+03  0.12500000000E+03 0.  0.
          2    1    1    2  501    0  0.62790611602E+02  0.40114712049E-01  0.74646539734E+02  0.97543674366E+02  0.00000000000E+00 0. -1.
          1    1    1    2  502    0 -0.60784779765E+02 -0.61466455617E+01 -0.45233096779E+03  0.45643824897E+03  0.00000000000E+00 0. -1.
<mgrwt>
<rscale>  0 0.60184477E+02</rscale>
<asrwt>0</asrwt>
<pdfrwt beam="2">  1        2 0.10046201E+00 0.61094768E+02</pdfrwt>
<pdfrwt beam="1">  1        1 0.16780616E-01 0.59287748E+02</pdfrwt>
<totfact> 0.19471936E+03</totfact>
</mgrwt>
</event>
<event>
 5    1  0.9399923E-003  0.5199704E+02  0.7546771E-02  0.1450554E+00
          2   -1    0    0  502    0  0.00000000000E+00  0.00000000000E+00  0.17476711491E+04  0.17476711491E+04  0.00000000000E+00 0. -1.
          1   -1    0    0  501    0 -0.00000000000E+00 -0.00000000000E+00 -0.38881327655E+03  0.38881327655E+03  0.00000000000E+00 0. -1.
         25    1    1    2    0    0 -0.10896105926E+02  0.50175746816E+02 -0.14843856970E+03  0.20073699128E+03  0.12500000000E+03 0.  0.
          2    1    1    2  501    0  0.48933035885E+02 -0.23842086731E+02 -0.21045135163E+03  0.21737676625E+03  0.00000000000E+00 0. -1.
          1    1    1    2  502    0 -0.38036929959E+02 -0.26333660085E+02  0.17177477939E+04  0.17183706682E+04  0.00000000000E+00 0. -1.
<mgrwt>
<rscale>  0 0.49046320E+02</rscale>
<asrwt>0</asrwt>
<pdfrwt beam="1">  1        2 0.26887248E+00 0.46263049E+02</pdfrwt>
<pdfrwt beam="2">  1        1 0.59817428E-01 0.51997037E+02</pdfrwt>
<totfact> 0.10467563E+02</totfact>
</mgrwt>
</event>
<event>
 5    1  0.9399923E-003  0.1334061E+03  0.7546771E-02  0.1361163E+00
          1   -1    0    0  501    0 -0.00000000000E+00  0.00000000000E+00  0.34551831524E+03  0.34551831524E+03  0.00000000000E+00 0. -1.
          2   -1    0    0  502    0  0.00000000000E+00 -0.00000000000E+00 -0.63929197446E+03  0.63929197446E+03  0.00000000000E+00 0. -1.
         25    1    1    2    0    0  0.13709285992E+03  0.14803780970E+02 -0.25729458330E+03  0.31755173873E+03  0.12500000000E+03 0.  0.
          2    1    1    2  501    0 -0.12415777760E+03 -0.48829654179E+02  0.30025568603E+03  0.32856196654E+03  0.00000000000E+00 0. -1.
          1    1    1    2  502    0 -0.12935082329E+02  0.34025873209E+02 -0.33673476195E+03  0.33869658443E+03  0.00000000000E+00 0. -1.
<mgrwt>
<rscale>  0 0.69686419E+02</rscale>
<asrwt>0</asrwt>
<pdfrwt beam="2">  1        2 0.98352611E-01 0.36401599E+02</pdfrwt>
<pdfrwt beam="1">  1        1 0.53156664E-01 0.13340615E+03</pdfrwt>
<totfact> 0.49435105E+02</totfact>
</mgrwt>
</event>
<event>
 5    1  0.9399923E-003  0.1152639E+03  0.7546771E-02  0.1422673E+00
          1   -1    0    0  501    0 -0.00000000000E+00  0.00000000000E+00  0.84704213893E+02  0.84704213893E+02  0.00000000000E+00 0. -1.
          2   -1    0    0  502    0  0.00000000000E+00 -0.00000000000E+00 -0.30731140627E+04  0.30731140627E+04  0.00000000000E+00 0. -1.
         25    1    1    2    0    0 -0.99518436219E+02 -0.79748395985E+02 -0.24735043003E+03  0.30507533668E+03  0.12500000000E+03 0.  0.
          2    1    1    2  501    0  0.24658768819E+02 -0.73493918461E+01  0.51633461687E+02  0.57689538098E+02  0.00000000000E+00 0. -1.
          1    1    1    2  502    0  0.74859667400E+02  0.87097787831E+02 -0.27926928804E+04  0.27950534018E+04  0.00000000000E+00 0. -1.
<mgrwt>
<rscale>  0 0.54459335E+02</rscale>
<asrwt>0</asrwt>
<pdfrwt beam="2">  1        2 0.47278677E+00 0.11526388E+03</pdfrwt>
<pdfrwt beam="1">  1        1 0.13031418E-01 0.25730691E+02</pdfrwt>
<totfact> 0.11510505E+02</totfact>
</mgrwt>
</event>
<event>
 5    1  0.9399923E-003  0.7733376E+02  0.7546771E-02  0.1361325E+00
          2   -1    0    0  502    0  0.00000000000E+00  0.00000000000E+00  0.44426800248E+03  0.44426800248E+03  0.00000000000E+00 0. -1.
          1   -1    0    0  501    0 -0.00000000000E+00 -0.00000000000E+00 -0.12868874247E+04  0.12868874247E+04  0.00000000000E+00 0. -1.
         25    1    1    2    0    0  0.86283343757E+02 -0.29699490492E+02  0.36926488592E+03  0.40038535328E+03  0.12500000000E+03 0.  0.
          2    1    1    2  501    0 -0.53287174574E+02 -0.33060125613E+02 -0.12491127735E+04  0.12506858981E+04  0.00000000000E+00 0. -1.
          1    1    1    2  502    0 -0.32996169184E+02  0.62759616105E+02  0.37228465275E+02  0.80084175847E+02  0.00000000000E+00 0. -1.
<mgrwt>
<rscale>  0 0.69638852E+02</rscale>
<asrwt>0</asrwt>
<pdfrwt beam="1">  1        2 0.68348924E-01 0.77333759E+02</pdfrwt>
<pdfrwt beam="2">  1        1 0.19798268E+00 0.62709608E+02</pdfrwt>
<totfact> 0.11071448E+02</totfact>
</mgrwt>
</event>
<event>
 5    1  0.9399923E-003  0.1093472E+03  0.7546771E-02  0.1307104E+00
         -1   -1    0    0    0  501 -0.00000000000E+00  0.00000000000E+00  0.32126220743E+03  0.32126220743E+03  0.00000000000E+00 0.  1.
          1   -1    0    0  502    0  0.00000000000E+00 -0.00000000000E+00 -0.30795307336E+04  0.30795307336E+04  0.00000000000E+00 0. -1.
         25    1    1    2    0    0 -0.24359007473E+02  0.92957980724E+02  0.16209986683E+03  0.22613251481E+03  0.12500000000E+03 0.  0.
          2    1    1    2  502    0  0.89237558906E+02 -0.63505881890E+02 -0.30364669852E+04  0.30384417209E+04  0.00000000000E+00 0. -1.
         -2    1    1    2    0  501 -0.64878551433E+02 -0.29452098833E+02  0.11609859223E+03  0.13621870532E+03  0.00000000000E+00 0.  1.
<mgrwt>
<rscale>  0 0.88266947E+02</rscale>
<asrwt>0</asrwt>
<pdfrwt beam="2">  1        1 0.47377394E+00 0.10934716E+03</pdfrwt>
<pdfrwt beam="1">  1       -1 0.49424956E-01 0.71250632E+02</pdfrwt>
<totfact> 0.31765681E+00</totfact>
</mgrwt>
</event>
<event>
 5    1  0.9399923E-003  0.7584265E+02  0.7546771E-02  0.1364609E+00
          2   -1    0    0  502    0  0.00000000000E+00  0.00000000000E+00  0.10185081549E+03  0.10185081549E+03  0.00000000000E+00 0. -1.
          1   -1    0    0  501    0 -0.00000000000E+00 -0.00000000000E+00 -0.29969942424E+04  0.29969942424E+04  0.00000000000E+00 0. -1.
         25    1    1    2    0    0  0.49077386602E+02  0.23861704403E+02 -0.32458981516E+03  0.35208169353E+03  0.12500000000E+03 0.  0.
          2    1    1    2  501    0  0.20723023387E+02 -0.58657084849E+02 -0.26409599694E+04  0.26416925743E+04  0.00000000000E+00 0. -1.
          1    1    1    2  502    0 -0.69800409990E+02  0.34795380446E+02  0.70406357609E+02  0.10507079007E+03  0.00000000000E+00 0. -1.
<mgrwt>
<rscale>  0 0.68689003E+02</rscale>
<asrwt>0</asrwt>
<pdfrwt beam="1">  1        2 0.15669357E-01 0.75842648E+02</pdfrwt>
<pdfrwt beam="2">  1        1 0.46107601E+00 0.62210106E+02</pdfrwt>
<totfact> 0.44346218E+01</totfact>
</mgrwt>
</event>
<event>
 5    1  0.9399923E-003  0.1193123E+03  0.7546771E-02  0.1409180E+00
          2   -1    0    0  502    0  0.00000000000E+00  0.00000000000E+00  0.21624510053E+04  0.21624510053E+04  0.00000000000E+00 0. -1.
          1   -1    0    0  501    0 -0.00000000000E+00 -0.00000000000E+00 -0.21400437644E+02  0.21400437644E+02  0.00000000000E+00 0. -1.
         25    1    1    2    0    0 -0.14336046648E+03 -0.19563374315E+01  0.16677591657E+04  0.16785713227E+04  0.12500000000E+03 0.  0.
          2    1    1    2  501    0  0.11612318304E+03 -0.24576129875E+01  0.20535337090E+03  0.23592507379E+03  0.00000000000E+00 0. -1.
          1    1    1    2  502    0  0.27237283436E+02  0.44139504190E+01  0.26793803109E+03  0.26935504649E+03  0.00000000000E+00 0. -1.
<mgrwt>
<rscale>  0 0.57377165E+02</rscale>
<asrwt>0</asrwt>
<pdfrwt beam="1">  1        2 0.33268460E+00 0.27592618E+02</pdfrwt>
<pdfrwt beam="2">  1        1 0.32923767E-02 0.11931231E+03</pdfrwt>
<totfact> 0.30052201E+03</totfact>
</mgrwt>
</event>
<event>
 5    1  0.9399923E-003  0.7959656E+02  0.7546771E-02  0.1346869E+00
          2   -1    0    0  502    0  0.00000000000E+00  0.00000000000E+00  0.12616699997E+04  0.12616699997E+04  0.00000000000E+00 0. -1.
          1   -1    0    0  501    0 -0.00000000000E+00 -0.00000000000E+00 -0.32428104912E+04  0.32428104912E+04  0.00000000000E+00 0. -1.
         25    1    1    2    0    0  0.11901656190E+02  0.65485311459E+02  0.81409212895E+03  0.82631771726E+03  0.12500000000E+03 0.  0.
          2    1    1    2  501    0  0.56348692431E+02 -0.56253067428E+02 -0.32335185023E+04  0.32344986454E+04  0.00000000000E+00 0. -1.
          1    1    1    2  502    0 -0.68250348621E+02 -0.92322440303E+01  0.43828588184E+03  0.44366412819E+03  0.00000000000E+00 0. -1.
<mgrwt>
<rscale>  0 0.74040323E+02</rscale>
<asrwt>0</asrwt>
<pdfrwt beam="1">  1        2 0.19410308E+00 0.68871942E+02</pdfrwt>
<pdfrwt beam="2">  1        1 0.49889391E+00 0.79596556E+02</pdfrwt>
<totfact> 0.16761352E+00</totfact>
</mgrwt>
</event>
<event>
 5    1  0.9399923E-003  0.1092723E+03  0.7546771E-02  0.1318849E+00
          1   -1    0    0  501    0 -0.00000000000E+00  0.00000000000E+00  0.18465809986E+03  0.18465809986E+03  0.00000000000E+00 0. -1.
          2   -1    0    0  502    0  0.00000000000E+00 -0.00000000000E+00 -0.88590288463E+03  0.88590288463E+03  0.00000000000E+00 0. -1.
         25    1    1    2    0    0  0.11445907128E+03 -0.96607874110E+02 -0.50577142505E+03  0.54209196151E+03  0.12500000000E+03 0.  0.
          2    1    1    2  501    0 -0.26041513682E+02  0.58597002884E+02  0.15355972374E+03  0.16641020984E+03  0.00000000000E+00 0. -1.
          1    1    1    2  502    0 -0.88417557601E+02  0.38010871225E+02 -0.34903308347E+03  0.36205881315E+03  0.00000000000E+00 0. -1.
<mgrwt>
<rscale>  0 0.83707098E+02</rscale>
<asrwt>0</asrwt>
<pdfrwt beam="2">  1        2 0.13629275E+00 0.10927233E+03</pdfrwt>
<pdfrwt beam="1">  1        1 0.28408939E-01 0.64123078E+02</pdfrwt>
<totfact> 0.69412924E+02</totfact>
</mgrwt>
</event>
<event>
 5    1  0.9399923E-003  0.5662689E+02  0.7546771E-02  0.1421528E+00
         -2   -1    0    0    0  501 -0.00000000000E+00  0.00000000000E+00  0.50703879713E+03  0.50703879713E+03  0.00000000000E+00 0.  1.
          2   -1    0    0  502    0  0.00000000000E+00 -0.00000000000E+00 -0.13616294634E+03  0.13616294634E+03  0.00000000000E+00 0. -1.
         25    1    1    2    0    0 -0.18486220708E+02  0.20067590337E+02  0.34156818491E+03  0.36474412056E+03  0.12500000000E+03 0.  0.
          1    1    1    2  502    0  0.13428086536E+01  0.56610967307E+02 -0.10703744753E+03  0.12109343470E+03  0.00000000000E+00 0. -1.
         -1    1    1    2    0  501  0.17143412055E+02 -0.76678557643E+02  0.13634511341E+03  0.15736418821E+03  0.00000000000E+00 0.  1.
<mgrwt>
<rscale>  0 0.54698938E+02</rscale>
<asrwt>0</asrwt>
<pdfrwt beam="2">  1        2 0.20948146E-01 0.56626891E+02</pdfrwt>
<pdfrwt beam="1">  1       -2 0.78005968E-01 0.52836625E+02</pdfrwt>
<totfact> 0.38864423E+02</totfact>
</mgrwt>
</event>
<event>
 5    1  0.9399923E-003  0.2100876E+03  0.7546771E-02  0.1228254E+00
          1   -1    0    0  502    0  0.00000000000E+00  0.00000000000E+00  0.83708232974E+03  0.83708232974E+03  0.00000000000E+00 0. -1.
         -1   -1    0    0    0  501 -0.00000000000E+00 -0.00000000000E+00 -0.62301325685E+03  0.62301325685E+03  0.00000000000E+00 0.  1.
         25    1    1    2    0    0 -0.79544106884E+02  0.21186519741E+03  0.16403260748E+03  0.30617939698E+03  0.12500000000E+03 0.  0.
          2    1    1    2  502    0 -0.58715764762E+02 -0.54011976924E+02  0.57919782289E+03  0.58466653122E+03  0.00000000000E+00 0. -1.
         -2    1    1    2    0  501  0.13825987165E+03 -0.15785322049E+03 -0.52916135748E+03  0.56924965839E+03  0.00000000000E+00 0.  1.
<mgrwt>
<rscale>  0 0.12946340E+03</rscale>
<asrwt>0</asrwt>
<pdfrwt beam="1">  1        1 0.12878190E+00 0.79779914E+02</pdfrwt>
<pdfrwt beam="2">  1       -1 0.95848193E-01 0.21008761E+03</pdfrwt>
<totfact> 0.26005158E+01</totfact>
</mgrwt>
</event>
<event>
 5    1  0.9399923E-003  0.8599943E+02  0.7546771E-02  0.1408880E+00
          2   -1    0    0  502    0  0.00000000000E+00  0.00000000000E+00  0.29693679326E+04  0.29693679326E+04  0.00000000000E+00 0. -1.
          1   -1    0    0  501    0 -0.00000000000E+00 -0.00000000000E+00 -0.10866193084E+02  0.10866193084E+02  0.00000000000E+00 0. -1.
         25    1    1    2    0    0 -0.78312047946E+02 -0.17609234971E+02  0.10248914023E+04  0.10356013946E+04  0.12500000000E+03 0.  0.
          2    1    1    2  501    0  0.71359399287E+02  0.55344784939E+02  0.38129331307E+03  0.39184154919E+03  0.00000000000E+00 0. -1.
          1    1    1    2  502    0  0.69526486584E+01 -0.37735549968E+02  0.15523170242E+04  0.15527911819E+04  0.00000000000E+00 0. -1.
<mgrwt>
<rscale>  0 0.57444397E+02</rscale>
<asrwt>0</asrwt>
<pdfrwt beam="1">  1        2 0.45682519E+00 0.38370706E+02</pdfrwt>
<pdfrwt beam="2">  1        1 0.16717244E-02 0.85999428E+02</pdfrwt>
<totfact> 0.27246791E+03</totfact>
</mgrwt>
</event>
<event>
 5    1  0.9399923E-003  0.1736824E+03  0.7546771E-02  0.1291875E+00
         -2   -1    0    0    0  501 -0.00000000000E+00  0.00000000000E+00  0.11503817111E+03  0.11503817111E+03  0.00000000000E+00 0.  1.
          2   -1    0    0  502    0  0.00000000000E+00 -0.00000000000E+00 -0.70424657849E+03  0.70424657849E+03  0.00000000000E+00 0. -1.
         25    1    1    2    0    0 -0.14869007590E+03 -0.47912183310E+02 -0.18307063272E+03  0.27119028844E+03  0.12500000000E+03 0.  0.
          1    1    1    2  502    0 -0.36052268083E+02  0.36950507502E+02 -0.35130085321E+03  0.35507378882E+03  0.00000000000E+00 0. -1.
         -1    1    1    2    0  501  0.18474234398E+03  0.10961675808E+02 -0.54836921464E+02  0.19302067235E+03  0.00000000000E+00 0.  1.
<mgrwt>
<rscale>  0 0.94690521E+02</rscale>
<asrwt>0</asrwt>
<pdfrwt beam="2">  1        2 0.10834563E+00 0.51624665E+02</pdfrwt>
<pdfrwt beam="1">  1       -2 0.17698180E-01 0.17368238E+03</pdfrwt>
<totfact> 0.11198984E+03</totfact>
</mgrwt>
</event>
<event>
 5    1  0.9399923E-003  0.2410889E+03  0.7546771E-02  0.1282935E+00
          2   -1    0    0  502    0  0.00000000000E+00  0.00000000000E+00  0.16199885005E+03  0.16199885005E+03  0.00000000000E+00 0. -1.
          1   -1    0    0  501    0 -0.00000000000E+00 -0.00000000000E+00 -0.17321828942E+04  0.17321828942E+04  0.00000000000E+00 0. -1.
         25    1    1    2    0    0  0.11674805896E+03 -0.19618987100E+03 -0.78097312287E+02  0.27174393267E+03  0.12500000000E+03 0.  0.
          2    1    1    2  501    0 -0.15587240027E+03  0.18590976474E+03 -0.15404213272E+04  0.15594090262E+04  0.00000000000E+00 0. -1.
          1    1    1    2  502    0  0.39124341309E+02  0.10280106266E+02  0.48334595374E+02  0.63028785310E+02  0.00000000000E+00 0. -1.
<mgrwt>
<rscale>  0 0.98755355E+02</rscale>
<asrwt>0</asrwt>
<pdfrwt beam="1">  1        2 0.24922899E-01 0.40452375E+02</pdfrwt>
<pdfrwt beam="2">  1        1 0.26648969E+00 0.24108894E+03</pdfrwt>
<totfact> 0.14194985E+02</totfact>
</mgrwt>
</event>
<event>
 5    1  0.9399923E-003  0.8148297E+02  0.7546771E-02  0.1373129E+00
          2   -1    0    0  502    0  0.00000000000E+00  0.00000000000E+00  0.96261468756E+02  0.96261468756E+02  0.00000000000E+00 0. -1.
          1   -1    0    0  501    0 -0.00000000000E+00 -0.00000000000E+00 -0.26455631893E+03  0.26455631893E+03  0.00000000000E+00 0. -1.
         25    1    1    2    0    0  0.59752556848E+01  0.20630365224E+02 -0.23760062807E+02  0.12903819680E+03  0.12500000000E+03 0.  0.
          2    1    1    2  501    0 -0.63835933633E+02  0.50640386182E+02 -0.10214628563E+03  0.13066498690E+03  0.00000000000E+00 0. -1.
          1    1    1    2  502    0  0.57860677948E+02 -0.71270751406E+02 -0.42388501746E+02  0.10111460398E+03  0.00000000000E+00 0. -1.
<mgrwt>
<rscale>  0 0.66305001E+02</rscale>
<asrwt>0</asrwt>
<pdfrwt beam="1">  1        2 0.14809457E-01 0.53954255E+02</pdfrwt>
<pdfrwt beam="2">  1        1 0.40700972E-01 0.81482975E+02</pdfrwt>
<totfact> 0.50677254E+03</totfact>
</mgrwt>
</event>
<event>
 5    1  0.9399923E-003  0.3798700E+02  0.7546771E-02  0.1527300E+00
         -2   -1    0    0    0  501 -0.00000000000E+00  0.00000000000E+00  0.33874416181E+02  0.33874416181E+02  0.00000000000E+00 0.  1.
          2   -1    0    0  502    0  0.00000000000E+00 -0.00000000000E+00 -0.39175381623E+03  0.39175381623E+03  0.00000000000E+00 0. -1.
         25    1    1    2    0    0 -0.13994344911E+02  0.10794958523E+02 -0.14522705107E+03  0.19242730883E+03  0.12500000000E+03 0.  0.
          1    1    1    2  502    0 -0.34461652814E+02 -0.13627092145E+02 -0.14672563193E+03  0.15133312334E+03  0.00000000000E+00 0. -1.
         -1    1    1    2    0  501  0.48455997725E+02  0.28321336224E+01 -0.65926717052E+02  0.81867800249E+02  0.00000000000E+00 0.  1.
<mgrwt>
<rscale>  0 0.37519678E+02</rscale>
<asrwt>0</asrwt>
<pdfrwt beam="2">  1        2 0.60269818E-01 0.37058105E+02</pdfrwt>
<pdfrwt beam="1">  1       -2 0.52114486E-02 0.37986999E+02</pdfrwt>
<totfact> 0.12462251E+04</totfact>
</mgrwt>
</event>
<event>
 5    1  0.9399923E-003  0.1517505E+03  0.7546771E-02  0.1242045E+00
          2   -1    0    0  502    0  0.00000000000E+00  0.00000000000E+00  0.12111128605E+04  0.12111128605E+04  0.00000000000E+00 0. -1.
         -2   -1    0    0    0  501 -0.00000000000E+00 -0.00000000000E+00 -0.11572127593E+03  0.11572127593E+03  0.00000000000E+00 0.  1.
         25    1    1    2    0    0 -0.15413197713E+03 -0.15913749215E+03  0.58549356916E+03  0.63836441576E+03  0.12500000000E+03 0.  0.
          1    1    1    2  502    0  0.70594150582E+02  0.11202372882E+03  0.56332988197E+03  0.57868247410E+03  0.00000000000E+00 0. -1.
         -1    1    1    2    0  501  0.83537826551E+02  0.47113763338E+02 -0.53431866514E+02  0.10978724662E+03  0.00000000000E+00 0.  1.
<mgrwt>
<rscale>  0 0.12064011E+03</rscale>
<asrwt>0</asrwt>
<pdfrwt beam="1">  1        2 0.18632505E+00 0.15175054E+03</pdfrwt>
<pdfrwt beam="2">  1       -2 0.17803274E-01 0.95907639E+02</pdfrwt>
<totfact> 0.50630835E+02</totfact>
</mgrwt>
</event>
<event>
 5    1  0.9399923E-003  0.6716548E+02  0.7546771E-02  0.1438114E+00
          1   -1    0    0  501    0 -0.00000000000E+00  0.00000000000E+00  0.66668452107E+03  0.66668452107E+03  0.00000000000E+00 0. -1.
          2   -1    0    0  502    0  0.00000000000E+00 -0.00000000000E+00 -0.68634587982E+03  0.68634587982E+03  0.00000000000E+00 0. -1.
         25    1    1    2    0    0  0.30008173680E+01  0.44884988784E+02 -0.25554475796E+02  0.13528376974E+03  0.12500000000E+03 0.  0.
          2    1    1    2  501    0 -0.41236188666E+02 -0.53892075906E+02  0.60929767420E+03  0.61306478849E+03  0.00000000000E+00 0. -1.
          1    1    1    2  502    0  0.38235371298E+02  0.90070871219E+01 -0.60340455716E+03  0.60468184265E+03  0.00000000000E+00 0. -1.
<mgrwt>
<rscale>  0 0.51365269E+02</rscale>
<asrwt>0</asrwt>
<pdfrwt beam="2">  1        2 0.10559167E+00 0.39281945E+02</pdfrwt>
<pdfrwt beam="1">  1        1 0.10256685E+00 0.67165485E+02</pdfrwt>
<totfact> 0.19888327E+02</totfact>
</mgrwt>
</event>
<event>
 5    1  0.9399923E-003  0.5169179E+02  0.7546771E-02  0.1443387E+00
          2   -1    0    0  502    0  0.00000000000E+00  0.00000000000E+00  0.11149261725E+04  0.11149261725E+04  0.00000000000E+00 0. -1.
          1   -1    0    0  501    0 -0.00000000000E+00 -0.00000000000E+00 -0.25511921702E+04  0.25511921702E+04  0.00000000000E+00 0. -1.
         25    1    1    2    0    0  0.10870359747E+02  0.95108604519E+01  0.30341285174E+01  0.12586829276E+03  0.12500000000E+03 0.  0.
          2    1    1    2  501    0  0.19418777171E+02 -0.48118071210E+02 -0.24889314669E+04  0.24894722904E+04  0.00000000000E+00 0. -1.
          1    1    1    2  502    0 -0.30289136918E+02  0.38607210758E+02  0.10496313407E+04  0.10507777595E+04  0.00000000000E+00 0. -1.
<mgrwt>
<rscale>  0 0.50364277E+02</rscale>
<asrwt>0</asrwt>
<pdfrwt beam="1">  1        2 0.17152711E+00 0.49070852E+02</pdfrwt>
<pdfrwt beam="2">  1        1 0.39249110E+00 0.51691794E+02</pdfrwt>
<totfact> 0.63811712E+00</totfact>
</mgrwt>
</event>
<event>
 5    1  0.9399923E-003  0.5769213E+02  0.7546771E-02  0.1424776E+00
          1   -1    0    0  501    0 -0.00000000000E+00  0.00000000000E+00  0.64186492865E+03  0.64186492865E+03  0.00000000000E+00 0. -1.
          2   -1    0    0  502    0  0.00000000000E+00 -0.00000000000E+00 -0.85522645168E+02  0.85522645168E+02  0.00000000000E+00 0. -1.
         25    1    1    2    0    0 -0.10713057238E+02 -0.28419765140E+02  0.22506147339E+03  0.25922985833E+03  0.12500000000E+03 0.  0.
          2    1    1    2  501    0 -0.32694975927E+02  0.54396907269E+02  0.38742267766E+03  0.39258669888E+03  0.00000000000E+00 0. -1.
          1    1    1    2  502    0  0.43408033165E+02 -0.25977142129E+02 -0.56141867571E+02  0.75571016605E+02  0.00000000000E+00 0. -1.
<mgrwt>
<rscale>  0 0.54023011E+02</rscale>
<asrwt>0</asrwt>
<pdfrwt beam="2">  1        2 0.13157330E-01 0.50587244E+02</pdfrwt>
<pdfrwt beam="1">  1        1 0.98748447E-01 0.57692126E+02</pdfrwt>
<totfact> 0.19211283E+03</totfact>
</mgrwt>
</event>
<event>
 5    1  0.9399923E-003  0.7328404E+02  0.7546771E-02  0.1350914E+00
          2   -1    0    0  502    0  0.00000000000E+00  0.00000000000E+00  0.65932512141E+03  0.65932512141E+03  0.00000000000E+00 0. -1.
          1   -1    0    0  501    0 -0.00000000000E+00 -0.00000000000E+00 -0.13486622454E+03  0.13486622454E+03  0.00000000000E+00 0. -1.
         25    1    1    2    0    0 -0.25744738944E+02  0.92661838890E+02  0.18134911991E+03  0.24033624625E+03  0.12500000000E+03 0.  0.
          2    1    1    2  501    0  0.66077301916E+02 -0.32702388611E+02 -0.89098893468E+02  0.11564717405E+03  0.00000000000E+00 0. -1.
          1    1    1    2  502    0 -0.40332562972E+02 -0.59959450279E+02  0.43220867042E+03  0.43820792565E+03  0.00000000000E+00 0. -1.
<mgrwt>
<rscale>  0 0.72771418E+02</rscale>
<asrwt>0</asrwt>
<pdfrwt beam="1">  1        2 0.10143463E+00 0.72262378E+02</pdfrwt>
<pdfrwt beam="2">  1        1 0.20748650E-01 0.73284043E+02</pdfrwt>
<totfact> 0.14847220E+03</totfact>
</mgrwt>
</event>
<event>
 5    1  0.9399923E-003  0.7053241E+02  0.7546771E-02  0.1477241E+00
          2   -1    0    0  502    0  0.00000000000E+00  0.00000000000E+00  0.32434889326E+03  0.32434889326E+03  0.00000000000E+00 0. -1.
         -2   -1    0    0    0  501 -0.00000000000E+00 -0.00000000000E+00 -0.35283445969E+03  0.35283445969E+03  0.00000000000E+00 0.  1.
         25    1    1    2    0    0 -0.80762304529E+01 -0.48264869148E+02  0.62220354905E+01  0.13438168334E+03  0.12500000000E+03 0.  0.
          3    1    1    2  502    0  0.29983020610E+02  0.65902994456E+02  0.24817681848E+03  0.25852257045E+03  0.00000000000E+00 0. -1.
         -1    1    1    2    0  501 -0.21906790157E+02 -0.17638125308E+02 -0.28288442039E+03  0.28427909916E+03  0.00000000000E+00 0.  1.
<mgrwt>
<rscale>  0 0.44538952E+02</rscale>
<asrwt>0</asrwt>
<pdfrwt beam="1">  1        2 0.49899830E-01 0.70532414E+02</pdfrwt>
<pdfrwt beam="2">  1       -2 0.54282225E-01 0.28124916E+02</pdfrwt>
<totfact> 0.32786685E+02</totfact>
</mgrwt>
</event>
<event>
 5    1  0.9399923E-003  0.6063956E+02  0.7546771E-02  0.1456954E+00
         -1   -1    0    0    0  502 -0.00000000000E+00  0.00000000000E+00  0.61227427502E+03  0.61227427502E+03  0.00000000000E+00 0.  1.
         -2   -1    0    0    0  501  0.00000000000E+00 -0.00000000000E+00 -0.12701927022E+03  0.12701927022E+03  0.00000000000E+00 0.  1.
         25    1    1    2    0    0  0.63301770307E+02  0.48796023988E+02  0.55093879038E+02  0.15826718418E+03  0.12500000000E+03 0.  0.
         -2    1    1    2    0  502 -0.25869455831E+02 -0.54417873477E+02  0.49891564698E+03  0.50254090032E+03  0.00000000000E+00 0.  1.
         -1    1    1    2    0  501 -0.37432314477E+02  0.56218494895E+01 -0.68754521220E+02  0.78485460736E+02  0.00000000000E+00 0.  1.
<mgrwt>
<rscale>  0 0.47909667E+02</rscale>
<asrwt>0</asrwt>
<pdfrwt beam="2">  1       -2 0.19541427E-01 0.37852125E+02</pdfrwt>
<pdfrwt beam="1">  1       -1 0.94196041E-01 0.60639561E+02</pdfrwt>
<totfact> 0.18314422E+02</totfact>
</mgrwt>
</event>
<event>
 5    1  0.9399923E-003  0.6100196E+02  0.7546771E-02  0.1400473E+00
          1   -1    0    0  501    0 -0.00000000000E+00  0.00000000000E+00  0.88142859366E+02  0.88142859366E+02  0.00000000000E+00 0. -1.
          2   -1    0    0  502    0  0.00000000000E+00 -0.00000000000E+00 -0.14538047648E+04  0.14538047648E+04  0.00000000000E+00 0. -1.
         25    1    1    2    0    0 -0.68771357771E+02 -0.86158641424E+02 -0.38842848205E+03  0.42267540360E+03  0.12500000000E+03 0.  0.
          2    1    1    2  501    0  0.19120826732E+02  0.54537068424E+02  0.58286495913E+02  0.82080530292E+02  0.00000000000E+00 0. -1.
          1    1    1    2  502    0  0.49650531039E+02  0.31621573001E+02 -0.10355199193E+04  0.10371916903E+04  0.00000000000E+00 0. -1.
<mgrwt>
<rscale>  0 0.59375212E+02</rscale>
<asrwt>0</asrwt>
<pdfrwt beam="2">  1        2 0.22366225E+00 0.61001956E+02</pdfrwt>
<pdfrwt beam="1">  1        1 0.13560441E-01 0.57791849E+02</pdfrwt>
<totfact> 0.87163651E+02</totfact>
</mgrwt>
</event>
<event>
 5    1  0.9399923E-003  0.9829866E+02  0.7546771E-02  0.1380095E+00
          1   -1    0    0  501    0 -0.00000000000E+00  0.00000000000E+00  0.60946060373E+03  0.60946060373E+03  0.00000000000E+00 0. -1.
          2   -1    0    0  502    0  0.00000000000E+00 -0.00000000000E+00 -0.13287217071E+04  0.13287217071E+04  0.00000000000E+00 0. -1.
         25    1    1    2    0    0  0.59875710288E+02 -0.82557561845E+02  0.27645426786E+02  0.16367688084E+03  0.12500000000E+03 0.  0.
          2    1    1    2  501    0 -0.85575604028E+02  0.49032681717E+02  0.50870792506E+03  0.51818060645E+03  0.00000000000E+00 0. -1.
          1    1    1    2  502    0  0.25699893741E+02  0.33524880128E+02 -0.12556144552E+04  0.12563248235E+04  0.00000000000E+00 0. -1.
<mgrwt>
<rscale>  0 0.64438730E+02</rscale>
<asrwt>0</asrwt>
<pdfrwt beam="2">  1        2 0.20441872E+00 0.42242184E+02</pdfrwt>
<pdfrwt beam="1">  1        1 0.93763170E-01 0.98298657E+02</pdfrwt>
<totfact> 0.94447342E+01</totfact>
</mgrwt>
</event>
<event>
 5    1  0.9399923E-003  0.2270729E+03  0.7546771E-02  0.1285915E+00
          1   -1    0    0  501    0 -0.00000000000E+00  0.00000000000E+00  0.11150813299E+04  0.11150813299E+04  0.00000000000E+00 0. -1.
          2   -1    0    0  502    0  0.00000000000E+00 -0.00000000000E+00 -0.19354054881E+03  0.19354054881E+03  0.00000000000E+00 0. -1.
         25    1    1    2    0    0 -0.21721069112E+03 -0.58171468483E+02  0.13009309638E+03  0.28829432496E+03  0.12500000000E+03 0.  0.
          2    1    1    2  501    0  0.20577579138E+03  0.98332396312E+02  0.88710566066E+03  0.91595272239E+03  0.00000000000E+00 0. -1.
          1    1    1    2  502    0  0.11434899736E+02 -0.40160927829E+02 -0.95657975957E+02  0.10437483135E+03  0.00000000000E+00 0. -1.
<mgrwt>
<rscale>  0 0.97375101E+02</rscale>
<asrwt>0</asrwt>
<pdfrwt beam="2">  1        2 0.29775470E-01 0.41757120E+02</pdfrwt>
<pdfrwt beam="1">  1        1 0.17155097E+00 0.22707290E+03</pdfrwt>
<totfact> 0.30802852E+02</totfact>
</mgrwt>
</event>
<event>
 5    1  0.9399923E-003  0.3620951E+03  0.7546771E-02  0.1266862E+00
          1   -1    0    0  501    0 -0.00000000000E+00  0.00000000000E+00  0.34022683087E+03  0.34022683087E+03  0.00000000000E+00 0. -1.
          2   -1    0    0  502    0  0.00000000000E+00 -0.00000000000E+00 -0.21453968878E+04  0.21453968878E+04  0.00000000000E+00 0. -1.
         25    1    1    2    0    0 -0.25551687837E+03  0.24489787931E+03 -0.35274222302E+03  0.51508826654E+03  0.12500000000E+03 0.  0.
          2    1    1    2  501    0 -0.27388088166E+02 -0.15407963776E+02  0.23862809655E+03  0.24068834867E+03  0.00000000000E+00 0. -1.
          1    1    1    2  502    0  0.28290496654E+03 -0.22948991553E+03 -0.16910559305E+04  0.17298471035E+04  0.00000000000E+00 0. -1.
<mgrwt>
<rscale>  0 0.10667115E+03</rscale>
<asrwt>0</asrwt>
<pdfrwt beam="2">  1        2 0.33006106E+00 0.36209505E+03</pdfrwt>
<pdfrwt beam="1">  1        1 0.52342589E-01 0.31424715E+02</pdfrwt>
<totfact> 0.62395928E+01</totfact>
</mgrwt>
</event>
<event>
 5    1  0.9399923E-003  0.4964768E+02  0.7546771E-02  0.1579054E+00
          1   -1    0    0  501    0 -0.00000000000E+00  0.00000000000E+00  0.82343994521E+03  0.82343994521E+03  0.00000000000E+00 0. -1.
          2   -1    0    0  502    0  0.00000000000E+00 -0.00000000000E+00 -0.76597979652E+03  0.76597979652E+03  0.00000000000E+00 0. -1.
         25    1    1    2    0    0  0.51520243443E+02 -0.14632764386E+02  0.46044241165E+03  0.48010485077E+03  0.12500000000E+03 0.  0.
          2    1    1    2  501    0 -0.12504343244E+02 -0.16070161351E+02  0.35205686818E+03  0.35264521423E+03  0.00000000000E+00 0. -1.
          1    1    1    2  502    0 -0.39015900199E+02  0.30702925737E+02 -0.75503913114E+03  0.75666967673E+03  0.00000000000E+00 0. -1.
<mgrwt>
<rscale>  0 0.31795019E+02</rscale>
<asrwt>0</asrwt>
<pdfrwt beam="2">  1        2 0.11784305E+00 0.49647681E+02</pdfrwt>
<pdfrwt beam="1">  1        1 0.12668307E+00 0.20361942E+02</pdfrwt>
<totfact> 0.13776260E+02</totfact>
</mgrwt>
</event>
<event>
 5    1  0.9399923E-003  0.3959057E+02  0.7546771E-02  0.1572503E+00
          2   -1    0    0  502    0  0.00000000000E+00  0.00000000000E+00  0.31996943517E+03  0.31996943517E+03  0.00000000000E+00 0. -1.
          1   -1    0    0  501    0 -0.00000000000E+00 -0.00000000000E+00 -0.35772395260E+03  0.35772395260E+03  0.00000000000E+00 0. -1.
         25    1    1    2    0    0 -0.18489389381E+02 -0.16781641954E+02  0.12774283475E+03  0.18046249709E+03  0.12500000000E+03 0.  0.
          2    1    1    2  501    0  0.39743578738E+02  0.79660007597E+00 -0.32909431060E+03  0.33148642792E+03  0.00000000000E+00 0. -1.
          1    1    1    2  502    0 -0.21254189357E+02  0.15985041878E+02  0.16359695843E+03  0.16574446277E+03  0.00000000000E+00 0. -1.
<mgrwt>
<rscale>  0 0.32448228E+02</rscale>
<asrwt>0</asrwt>
<pdfrwt beam="1">  1        2 0.49226067E-01 0.26594400E+02</pdfrwt>
<pdfrwt beam="2">  1        1 0.55034454E-01 0.39590570E+02</pdfrwt>
<totfact> 0.96927129E+02</totfact>
</mgrwt>
</event>
<event>
 5    1  0.1107970E-002  0.7519966E+02  0.7546771E-02  0.1394897E+00
          2   -1    0    0  502    0  0.00000000000E+00  0.00000000000E+00  0.22488386119E+04  0.22488386119E+04  0.00000000000E+00 0. -1.
          1   -1    0    0  501    0 -0.00000000000E+00 -0.00000000000E+00 -0.60021957107E+03  0.60021957107E+03  0.00000000000E+00 0. -1.
         25    1    1    2    0    0 -0.61166716464E+02 -0.22114590266E+01 -0.15914523797E+03  0.21142011381E+03  0.12500000000E+03 0.  0.
          2    1    1    2  501    0  0.63618323281E+02 -0.46731295432E+02 -0.41090964008E+03  0.41842303634E+03  0.00000000000E+00 0. -1.
          1    1    1    2  502    0 -0.24516068165E+01  0.48942754459E+02  0.22186739189E+04  0.22192150328E+04  0.00000000000E+00 0. -1.
<mgrwt>
<rscale>  0 0.60704968E+02</rscale>
<asrwt>0</asrwt>
<pdfrwt beam="1">  1        2 0.34597517E+00 0.49004118E+02</pdfrwt>
<pdfrwt beam="2">  1        1 0.92341473E-01 0.75199662E+02</pdfrwt>
<totfact> 0.33983845E+01</totfact>
</mgrwt>
</event>
<event>
 5    1  0.9399923E-003  0.1515024E+03  0.7546771E-02  0.1415630E+00
          1   -1    0    0  502    0  0.00000000000E+00  0.00000000000E+00  0.60117884979E+03  0.60117884979E+03  0.00000000000E+00 0. -1.
         -1   -1    0    0    0  501 -0.00000000000E+00 -0.00000000000E+00 -0.18958166241E+03  0.18958166241E+03  0.00000000000E+00 0.  1.
         25    1    1    2    0    0 -0.23200113554E+02 -0.16282790478E+03  0.26350908812E+02  0.20825595367E+03  0.12500000000E+03 0.  0.
          2    1    1    2  502    0 -0.51932520455E+01  0.20003917551E+02  0.42974239945E+03  0.43023906897E+03  0.00000000000E+00 0. -1.
         -2    1    1    2    0  501  0.28393365600E+02  0.14282398723E+03 -0.44496120886E+02  0.15226548956E+03  0.00000000000E+00 0.  1.
<mgrwt>
<rscale>  0 0.55956291E+02</rscale>
<asrwt>0</asrwt>
<pdfrwt beam="1">  1        1 0.92489053E-01 0.20667041E+02</pdfrwt>
<pdfrwt beam="2">  1       -1 0.29166410E-01 0.15150241E+03</pdfrwt>
<totfact> 0.40888560E+02</totfact>
</mgrwt>
</event>
<event>
 5    1  0.9399923E-003  0.3356750E+02  0.7546771E-02  0.1584899E+00
          1   -1    0    0  501    0 -0.00000000000E+00  0.00000000000E+00  0.43356425282E+03  0.43356425282E+03  0.00000000000E+00 0. -1.
          2   -1    0    0  502    0  0.00000000000E+00 -0.00000000000E+00 -0.51962640215E+03  0.51962640215E+03  0.00000000000E+00 0. -1.
         25    1    1    2    0    0 -0.29835485887E+02  0.32039772215E+02 -0.33939543009E+02  0.13672452524E+03  0.12500000000E+03 0.  0.
          2    1    1    2  501    0  0.29011357451E+02  0.15258083524E+01  0.38096895278E+03  0.38207503182E+03  0.00000000000E+00 0. -1.
          1    1    1    2  502    0  0.82412843662E+00 -0.33565580567E+02 -0.43309155910E+03  0.43439109792E+03  0.00000000000E+00 0. -1.
<mgrwt>
<rscale>  0 0.31227947E+02</rscale>
<asrwt>0</asrwt>
<pdfrwt beam="2">  1        2 0.79942523E-01 0.33567501E+02</pdfrwt>
<pdfrwt beam="1">  1        1 0.66702193E-01 0.29051454E+02</pdfrwt>
<totfact> 0.47416012E+02</totfact>
</mgrwt>
</event>
<event>
 5    1  0.9399923E-003  0.8879811E+02  0.7546771E-02  0.1343394E+00
          1   -1    0    0  501    0 -0.00000000000E+00  0.00000000000E+00  0.36165821325E+04  0.36165821325E+04  0.00000000000E+00 0. -1.
          2   -1    0    0  502    0  0.00000000000E+00 -0.00000000000E+00 -0.19268800394E+03  0.19268800394E+03  0.00000000000E+00 0. -1.
         25    1    1    2    0    0  0.23600331534E+02 -0.13784848746E+02  0.71635192950E+01  0.12815347718E+03  0.12500000000E+03 0.  0.
          2    1    1    2  501    0 -0.61462423442E+02  0.64895261320E+02  0.35406755163E+04  0.35418035147E+04  0.00000000000E+00 0. -1.
          1    1    1    2  502    0  0.37862091907E+02 -0.51110412574E+02 -0.12394490706E+03  0.13931314462E+03  0.00000000000E+00 0. -1.
<mgrwt>
<rscale>  0 0.75154206E+02</rscale>
<asrwt>0</asrwt>
<pdfrwt beam="2">  1        2 0.29644311E-01 0.63606700E+02</pdfrwt>
<pdfrwt beam="1">  1        1 0.55639720E+00 0.88798110E+02</pdfrwt>
<totfact> 0.74367294E+00</totfact>
</mgrwt>
</event>
<event>
 5    1  0.9399923E-003  0.1803622E+03  0.7546771E-02  0.1260256E+00
          1   -1    0    0  501    0 -0.00000000000E+00  0.00000000000E+00  0.76755947088E+03  0.76755947088E+03  0.00000000000E+00 0. -1.
          2   -1    0    0  502    0  0.00000000000E+00 -0.00000000000E+00 -0.95203740759E+03  0.95203740759E+03  0.00000000000E+00 0. -1.
         25    1    1    2    0    0  0.21081694887E+03 -0.48559906553E+02  0.48252259771E+03  0.54337363550E+03  0.12500000000E+03 0.  0.
          2    1    1    2  501    0 -0.15288628926E+03  0.14317388782E+02  0.23008379734E+03  0.27661843551E+03  0.00000000000E+00 0. -1.
          1    1    1    2  502    0 -0.57930659611E+02  0.34242517771E+02 -0.89708433175E+03  0.89960480747E+03  0.00000000000E+00 0. -1.
<mgrwt>
<rscale>  0 0.11016957E+03</rscale>
<asrwt>0</asrwt>
<pdfrwt beam="2">  1        2 0.14646729E+00 0.67294215E+02</pdfrwt>
<pdfrwt beam="1">  1        1 0.11808607E+00 0.18036221E+03</pdfrwt>
<totfact> 0.10326776E+02</totfact>
</mgrwt>
</event>
<event>
 5    1  0.9399923E-003  0.7964291E+02  0.7546771E-02  0.1342976E+00
          2   -1    0    0  502    0  0.00000000000E+00  0.00000000000E+00  0.39436366045E+03  0.39436366045E+03  0.00000000000E+00 0. -1.
          1   -1    0    0  501    0 -0.00000000000E+00 -0.00000000000E+00 -0.11982022867E+04  0.11982022867E+04  0.00000000000E+00 0. -1.
         25    1    1    2    0    0  0.26343417010E+02  0.35191671713E+01 -0.42947218237E+03  0.44808226431E+03  0.12500000000E+03 0.  0.
          2    1    1    2  501    0 -0.97490281831E+02 -0.55031231479E+01 -0.75295639075E+03  0.75926146076E+03  0.00000000000E+00 0. -1.
          1    1    1    2  502    0  0.71146864821E+02  0.19839559766E+01  0.37858994691E+03  0.38522222204E+03  0.00000000000E+00 0. -1.
<mgrwt>
<rscale>  0 0.75289747E+02</rscale>
<asrwt>0</asrwt>
<pdfrwt beam="1">  1        2 0.60671334E-01 0.71174521E+02</pdfrwt>
<pdfrwt beam="2">  1        1 0.18433881E+00 0.79642909E+02</pdfrwt>
<totfact> 0.14076939E+02</totfact>
</mgrwt>
</event>
<event>
 5    1  0.9399923E-003  0.2525307E+03  0.7546771E-02  0.1189090E+00
          2   -1    0    0  502    0  0.00000000000E+00  0.00000000000E+00  0.31530349141E+04  0.31530349141E+04  0.00000000000E+00 0. -1.
         -2   -1    0    0    0  501 -0.00000000000E+00 -0.00000000000E+00 -0.30077170388E+03  0.30077170388E+03  0.00000000000E+00 0.  1.
         25    1    1    2    0    0  0.64533392234E+02 -0.31851720016E+03  0.10130792484E+03  0.36263764441E+03  0.12500000000E+03 0.  0.
          1    1    1    2  502    0  0.58114532865E+01  0.10076649815E+03  0.28428019898E+04  0.28445932597E+04  0.00000000000E+00 0. -1.
         -1    1    1    2    0  501 -0.70344845521E+02  0.21775070201E+03 -0.91846704458E+02  0.24657571380E+03  0.00000000000E+00 0.  1.
<mgrwt>
<rscale>  0 0.15965251E+03</rscale>
<asrwt>0</asrwt>
<pdfrwt beam="1">  1        2 0.48508227E+00 0.10093394E+03</pdfrwt>
<pdfrwt beam="2">  1       -2 0.46272572E-01 0.25253075E+03</pdfrwt>
<totfact> 0.89774741E+00</totfact>
</mgrwt>
</event>
<event>
 5    1  0.9399923E-003  0.4998292E+02  0.7546771E-02  0.1503096E+00
         -1   -1    0    0    0  501 -0.00000000000E+00  0.00000000000E+00  0.49592131039E+02  0.49592131039E+02  0.00000000000E+00 0.  1.
          1   -1    0    0  502    0  0.00000000000E+00 -0.00000000000E+00 -0.12092422823E+04  0.12092422823E+04  0.00000000000E+00 0. -1.
         25    1    1    2    0    0 -0.17095350123E+02  0.12931343956E+02 -0.55132604198E+03  0.56572508803E+03  0.12500000000E+03 0.  0.
          2    1    1    2  502    0  0.44466482811E+02 -0.31627871051E+02 -0.64289976589E+03  0.64521136018E+03  0.00000000000E+00 0. -1.
         -2    1    1    2    0  501 -0.27371132688E+02  0.18696527095E+02  0.34575656636E+02  0.47897965112E+02  0.00000000000E+00 0.  1.
<mgrwt>
<rscale>  0 0.40703754E+02</rscale>
<asrwt>0</asrwt>
<pdfrwt beam="2">  1        1 0.18603725E+00 0.49982923E+02</pdfrwt>
<pdfrwt beam="1">  1       -1 0.76295597E-02 0.33147233E+02</pdfrwt>
<totfact> 0.10084193E+03</totfact>
</mgrwt>
</event>
<event>
 5    1  0.9399923E-003  0.3428919E+02  0.7546771E-02  0.1606730E+00
         -2   -1    0    0    0  501 -0.00000000000E+00  0.00000000000E+00  0.35672528616E+02  0.35672528616E+02  0.00000000000E+00 0.  1.
          2   -1    0    0  502    0  0.00000000000E+00 -0.00000000000E+00 -0.20451058491E+04  0.20451058491E+04  0.00000000000E+00 0. -1.
         25    1    1    2    0    0 -0.50801966397E+01  0.57794125502E+02 -0.41555704252E+03  0.43781117497E+03  0.12500000000E+03 0.  0.
          1    1    1    2  502    0 -0.18263095544E+01 -0.24854657644E+02 -0.16067426689E+04  0.16069359332E+04  0.00000000000E+00 0. -1.
         -1    1    1    2    0  501  0.69065061941E+01 -0.32939467858E+02  0.12866390909E+02  0.36031269553E+02  0.00000000000E+00 0.  1.
<mgrwt>
<rscale>  0 0.29232579E+02</rscale>
<asrwt>0</asrwt>
<pdfrwt beam="2">  1        2 0.31463165E+00 0.24921666E+02</pdfrwt>
<pdfrwt beam="1">  1       -2 0.54880817E-02 0.34289187E+02</pdfrwt>
<totfact> 0.12941903E+03</totfact>
</mgrwt>
</event>
<event>
 5    1  0.9399923E-003  0.1227053E+03  0.7546771E-02  0.1292284E+00
         -1   -1    0    0    0  501 -0.00000000000E+00  0.00000000000E+00  0.46650204854E+03  0.46650204854E+03  0.00000000000E+00 0.  1.
          1   -1    0    0  502    0  0.00000000000E+00 -0.00000000000E+00 -0.95071673690E+03  0.95071673690E+03  0.00000000000E+00 0. -1.
         25    1    1    2    0    0  0.10910245170E+03  0.29318960472E+02 -0.18239259179E+03  0.24830425681E+03  0.12500000000E+03 0.  0.
          2    1    1    2  502    0 -0.82388248026E+02 -0.97032776145E+02 -0.72674150927E+03  0.73780512627E+03  0.00000000000E+00 0. -1.
         -2    1    1    2    0  501 -0.26714203677E+02  0.67713815672E+02  0.42491941270E+03  0.43110940235E+03  0.00000000000E+00 0.  1.
<mgrwt>
<rscale>  0 0.94509664E+02</rscale>
<asrwt>0</asrwt>
<pdfrwt beam="2">  1        1 0.14626411E+00 0.12270529E+03</pdfrwt>
<pdfrwt beam="1">  1       -1 0.71769546E-01 0.72792922E+02</pdfrwt>
<totfact> 0.39096944E+01</totfact>
</mgrwt>
</event>
<event>
 5    1  0.9399923E-003  0.4964583E+02  0.7546771E-02  0.1526793E+00
         -2   -1    0    0    0  501 -0.00000000000E+00  0.00000000000E+00  0.10051792135E+02  0.10051792135E+02  0.00000000000E+00 0.  1.
          2   -1    0    0  502    0  0.00000000000E+00 -0.00000000000E+00 -0.26803191071E+04  0.26803191071E+04  0.00000000000E+00 0. -1.
         25    1    1    2    0    0  0.31882876259E+02 -0.41314424476E+02 -0.95811654429E+03  0.96764441398E+03  0.12500000000E+03 0.  0.
          1    1    1    2  502    0  0.15270488703E+02  0.24005370915E+02 -0.15950950564E+04  0.15953487659E+04  0.00000000000E+00 0. -1.
         -1    1    1    2    0  501 -0.47153364962E+02  0.17309053561E+02 -0.11705571426E+03  0.12737771941E+03  0.00000000000E+00 0.  1.
<mgrwt>
<rscale>  0 0.37582730E+02</rscale>
<asrwt>0</asrwt>
<pdfrwt beam="2">  1        2 0.41235673E+00 0.28450758E+02</pdfrwt>
<pdfrwt beam="1">  1       -2 0.15464298E-02 0.49645834E+02</pdfrwt>
<totfact> 0.39733692E+03</totfact>
</mgrwt>
</event>
<event>
 5    1  0.9399923E-003  0.1248529E+03  0.7546771E-02  0.1296580E+00
          1   -1    0    0  501    0 -0.00000000000E+00  0.00000000000E+00  0.38089716479E+03  0.38089716479E+03  0.00000000000E+00 0. -1.
          2   -1    0    0  502    0  0.00000000000E+00 -0.00000000000E+00 -0.15572777740E+04  0.15572777740E+04  0.00000000000E+00 0. -1.
         25    1    1    2    0    0 -0.14103505445E+03  0.10140010074E+03  0.61893118477E+02  0.22277483055E+03  0.12500000000E+03 0.  0.
          2    1    1    2  501    0  0.73019582700E+02 -0.91449219909E+02  0.22335533051E+03  0.25215555308E+03  0.00000000000E+00 0. -1.
          3    1    1    2  502    0  0.68015471748E+02 -0.99508808266E+01 -0.14616290582E+04  0.14632445552E+04  0.00000000000E+00 0. -1.
<mgrwt>
<rscale>  0 0.92640872E+02</rscale>
<asrwt>0</asrwt>
<pdfrwt beam="2">  1        2 0.23958120E+00 0.68739540E+02</pdfrwt>
<pdfrwt beam="1">  1        1 0.58599564E-01 0.12485290E+03</pdfrwt>
<totfact> 0.12713731E+02</totfact>
</mgrwt>
</event>
<event>
 5    1  0.9399923E-003  0.8110651E+02  0.7546771E-02  0.1370508E+00
         -1   -1    0    0    0  501 -0.00000000000E+00  0.00000000000E+00  0.85066877751E+03  0.85066877751E+03  0.00000000000E+00 0.  1.
          1   -1    0    0  502    0  0.00000000000E+00 -0.00000000000E+00 -0.57687010482E+03  0.57687010482E+03  0.00000000000E+00 0. -1.
         25    1    1    2    0    0  0.28033690430E+02 -0.42837424254E+02  0.31376302948E+01  0.13511394243E+03  0.12500000000E+03 0.  0.
          2    1    1    2  502    0  0.10655659807E+02  0.82476069640E+02 -0.50650544214E+03  0.51328706205E+03  0.00000000000E+00 0. -1.
         -2    1    1    2    0  501 -0.38689350238E+02 -0.39638645386E+02  0.77716648453E+03  0.77913787785E+03  0.00000000000E+00 0.  1.
<mgrwt>
<rscale>  0 0.67026233E+02</rscale>
<asrwt>0</asrwt>
<pdfrwt beam="2">  1        1 0.88749246E-01 0.81106511E+02</pdfrwt>
<pdfrwt beam="1">  1       -1 0.13087212E+00 0.55390324E+02</pdfrwt>
<totfact> 0.22960594E+01</totfact>
</mgrwt>
</event>
<event>
 5    1  0.9399923E-003  0.9911205E+02  0.7546771E-02  0.1313077E+00
          1   -1    0    0  501    0 -0.00000000000E+00  0.00000000000E+00  0.50328325360E+03  0.50328325360E+03  0.00000000000E+00 0. -1.
          2   -1    0    0  502    0  0.00000000000E+00 -0.00000000000E+00 -0.26582536001E+04  0.26582536001E+04  0.00000000000E+00 0. -1.
         25    1    1    2    0    0 -0.69093889864E+02  0.11717344474E+03 -0.16131869181E+03  0.24525966260E+03  0.12500000000E+03 0.  0.
          2    1    1    2  501    0  0.87775880694E+02 -0.45093627167E+02  0.45546309377E+03  0.46603076104E+03  0.00000000000E+00 0. -1.
          1    1    1    2  502    0 -0.18681990830E+02 -0.72079817576E+02 -0.24491147485E+04  0.24502464301E+04  0.00000000000E+00 0. -1.
<mgrwt>
<rscale>  0 0.85907118E+02</rscale>
<asrwt>0</asrwt>
<pdfrwt beam="2">  1        2 0.40896209E+00 0.74461513E+02</pdfrwt>
<pdfrwt beam="1">  1        1 0.77428193E-01 0.99112047E+02</pdfrwt>
<totfact> 0.24680869E+01</totfact>
</mgrwt>
</event>
<event>
 5    1  0.9399923E-003  0.6076134E+02  0.7546771E-02  0.1496406E+00
         -1   -1    0    0    0  501 -0.00000000000E+00  0.00000000000E+00  0.35306795676E+03  0.35306795676E+03  0.00000000000E+00 0.  1.
          1   -1    0    0  502    0  0.00000000000E+00 -0.00000000000E+00 -0.73985528418E+03  0.73985528418E+03  0.00000000000E+00 0. -1.
         25    1    1    2    0    0  0.71012557118E+02 -0.38210743400E+02  0.88800827430E+01  0.14901912645E+03  0.12500000000E+03 0.  0.
          2    1    1    2  502    0 -0.59229973487E+02  0.12205092177E+02 -0.66767206265E+03  0.67040520380E+03  0.00000000000E+00 0. -1.
         -2    1    1    2    0  501 -0.11782583631E+02  0.26005651223E+02  0.27200465249E+03  0.27349891069E+03  0.00000000000E+00 0.  1.
<mgrwt>
<rscale>  0 0.41650428E+02</rscale>
<asrwt>0</asrwt>
<pdfrwt beam="2">  1        1 0.11382389E+00 0.60761335E+02</pdfrwt>
<pdfrwt beam="1">  1       -1 0.54318147E-01 0.28550362E+02</pdfrwt>
<totfact> 0.10077358E+02</totfact>
</mgrwt>
</event>
<event>
 5    1  0.9399923E-003  0.5595361E+02  0.7546771E-02  0.1475332E+00
          2   -1    0    0  502    0  0.00000000000E+00  0.00000000000E+00  0.12339656050E+03  0.12339656050E+03  0.00000000000E+00 0. -1.
          1   -1    0    0  501    0 -0.00000000000E+00 -0.00000000000E+00 -0.23064614108E+03  0.23064614108E+03  0.00000000000E+00 0. -1.
         25    1    1    2    0    0 -0.36615005547E+01  0.21728121023E+02 -0.16630403137E+03  0.20920695179E+03  0.12500000000E+03 0.  0.
          2    1    1    2  501    0  0.25471863374E+01  0.35846319577E+02 -0.24403291123E+02  0.43439238059E+02  0.00000000000E+00 0. -1.
          3    1    1    2  502    0  0.11143142173E+01 -0.57574440600E+02  0.83457741909E+02  0.10139651173E+03  0.00000000000E+00 0. -1.
<mgrwt>
<rscale>  0 0.44841815E+02</rscale>
<asrwt>0</asrwt>
<pdfrwt beam="1">  1        2 0.18984086E-01 0.55953610E+02</pdfrwt>
<pdfrwt beam="2">  1        1 0.35484021E-01 0.35936705E+02</pdfrwt>
<totfact> 0.44799911E+03</totfact>
</mgrwt>
</event>
<event>
 5    1  0.9399923E-003  0.1179410E+03  0.7546771E-02  0.1311664E+00
          2   -1    0    0  502    0  0.00000000000E+00  0.00000000000E+00  0.70723375249E+03  0.70723375249E+03  0.00000000000E+00 0. -1.
          1   -1    0    0  501    0 -0.00000000000E+00 -0.00000000000E+00 -0.18947547330E+03  0.18947547330E+03  0.00000000000E+00 0. -1.
         25    1    1    2    0    0 -0.94399502925E+02  0.13521711469E+02  0.43347687128E+03  0.46110877325E+03  0.12500000000E+03 0.  0.
          2    1    1    2  501    0 -0.63318418150E+02  0.27597547415E+01 -0.14418821438E+03  0.15750263328E+03  0.00000000000E+00 0. -1.
          1    1    1    2  502    0  0.15771792107E+03 -0.16281466211E+02  0.22846962230E+03  0.27809781927E+03  0.00000000000E+00 0. -1.
<mgrwt>
<rscale>  0 0.86457665E+02</rscale>
<asrwt>0</asrwt>
<pdfrwt beam="1">  1        2 0.10880519E+00 0.11794101E+03</pdfrwt>
<pdfrwt beam="2">  1        1 0.29150073E-01 0.63378532E+02</pdfrwt>
<totfact> 0.88495337E+02</totfact>
</mgrwt>
</event>
<event>
 5    1  0.9399923E-003  0.5040141E+02  0.7546771E-02  0.1450746E+00
          2   -1    0    0  502    0  0.00000000000E+00  0.00000000000E+00  0.29384825942E+04  0.29384825942E+04  0.00000000000E+00 0. -1.
         -2   -1    0    0    0  501 -0.00000000000E+00 -0.00000000000E+00 -0.34382187322E+03  0.34382187322E+03  0.00000000000E+00 0.  1.
         25    1    1    2    0    0  0.35360431784E+02 -0.23455893660E+02  0.32614434896E+03  0.35184609625E+03  0.12500000000E+03 0.  0.
          1    1    1    2  502    0  0.36474830303E+01  0.50840363510E+02  0.25975202429E+04  0.25980202962E+04  0.00000000000E+00 0. -1.
         -1    1    1    2    0  501 -0.39007914814E+02 -0.27384469850E+02 -0.32900387095E+03  0.33243807500E+03  0.00000000000E+00 0.  1.
<mgrwt>
<rscale>  0 0.49011818E+02</rscale>
<asrwt>0</asrwt>
<pdfrwt beam="1">  1        2 0.45207423E+00 0.50401413E+02</pdfrwt>
<pdfrwt beam="2">  1       -2 0.52895675E-01 0.47660535E+02</pdfrwt>
<totfact> 0.10279468E+01</totfact>
</mgrwt>
</event>
<event>
 5    1  0.9399923E-003  0.6693710E+02  0.7546771E-02  0.1447738E+00
          2   -1    0    0  502    0  0.00000000000E+00  0.00000000000E+00  0.15448766474E+04  0.15448766474E+04  0.00000000000E+00 0. -1.
          1   -1    0    0  501    0 -0.00000000000E+00 -0.00000000000E+00 -0.21253582092E+03  0.21253582092E+03  0.00000000000E+00 0. -1.
         25    1    1    2    0    0 -0.56867793289E+02 -0.60509235450E+02  0.94073566524E+02  0.17711620312E+03  0.12500000000E+03 0.  0.
          2    1    1    2  501    0  0.61984666054E+02  0.24176017372E+02 -0.16429442587E+03  0.17725472353E+03  0.00000000000E+00 0. -1.
          1    1    1    2  502    0 -0.51168727646E+01  0.36333218077E+02  0.14025616858E+04  0.14030415416E+04  0.00000000000E+00 0. -1.
<mgrwt>
<rscale>  0 0.49558449E+02</rscale>
<asrwt>0</asrwt>
<pdfrwt beam="1">  1        2 0.23767332E+00 0.36691758E+02</pdfrwt>
<pdfrwt beam="2">  1        1 0.32697820E-01 0.66937098E+02</pdfrwt>
<totfact> 0.27820942E+02</totfact>
</mgrwt>
</event>
<event>
 5    1  0.9399923E-003  0.1174126E+03  0.7546771E-02  0.1273279E+00
          2   -1    0    0  502    0  0.00000000000E+00  0.00000000000E+00  0.60024320083E+03  0.60024320083E+03  0.00000000000E+00 0. -1.
          1   -1    0    0  501    0 -0.00000000000E+00 -0.00000000000E+00 -0.20280809672E+04  0.20280809672E+04  0.00000000000E+00 0. -1.
         25    1    1    2    0    0  0.56594337278E+02  0.11116698175E+03 -0.35851818667E+03  0.39965148194E+03  0.12500000000E+03 0.  0.
          2    1    1    2  501    0  0.34409399625E+02 -0.11493613273E+03 -0.16432177261E+04  0.16475918234E+04  0.00000000000E+00 0. -1.
          1    1    1    2  502    0 -0.91003736904E+02  0.37691509793E+01  0.57389814633E+03  0.58108086269E+03  0.00000000000E+00 0. -1.
<mgrwt>
<rscale>  0 0.10341250E+03</rscale>
<asrwt>0</asrwt>
<pdfrwt beam="1">  1        2 0.92345107E-01 0.91081758E+02</pdfrwt>
<pdfrwt beam="2">  1        1 0.31201246E+00 0.11741260E+03</pdfrwt>
<totfact> 0.25335470E+01</totfact>
</mgrwt>
</event>
<event>
 5    1  0.9399923E-003  0.1534570E+03  0.7546771E-02  0.1308413E+00
          1   -1    0    0  502    0  0.00000000000E+00  0.00000000000E+00  0.10542768664E+04  0.10542768664E+04  0.00000000000E+00 0. -1.
         -1   -1    0    0    0  501 -0.00000000000E+00 -0.00000000000E+00 -0.17678460441E+03  0.17678460441E+03  0.00000000000E+00 0.  1.
         25    1    1    2    0    0  0.23345245079E+02  0.10935342810E+03  0.66820574163E+03  0.68893184413E+03  0.12500000000E+03 0.  0.
          2    1    1    2  502    0  0.36350996996E+02  0.34575662320E+02  0.33696695200E+03  0.34068107982E+03  0.00000000000E+00 0. -1.
         -2    1    1    2    0  501 -0.59696242075E+02 -0.14392909042E+03 -0.12768043167E+03  0.20144854683E+03  0.00000000000E+00 0.  1.
<mgrwt>
<rscale>  0 0.87742230E+02</rscale>
<asrwt>0</asrwt>
<pdfrwt beam="1">  1        1 0.16219644E+00 0.50168430E+02</pdfrwt>
<pdfrwt beam="2">  1       -1 0.27197632E-01 0.15345704E+03</pdfrwt>
<totfact> 0.19722895E+02</totfact>
</mgrwt>
</event>
<event>
 5    1  0.9399923E-003  0.4960321E+02  0.7546771E-02  0.1480787E+00
          2   -1    0    0  502    0  0.00000000000E+00  0.00000000000E+00  0.13941213726E+04  0.13941213726E+04  0.00000000000E+00 0. -1.
         -2   -1    0    0    0  501 -0.00000000000E+00 -0.00000000000E+00 -0.11474480293E+04  0.11474480293E+04  0.00000000000E+00 0.  1.
         25    1    1    2    0    0  0.15784642127E+02  0.50703009430E+02 -0.33390229598E+02  0.13985656054E+03  0.12500000000E+03 0.  0.
          1    1    1    2  502    0 -0.43745896902E+02 -0.23513846797E+02  0.13400695791E+04  0.13409895903E+04  0.00000000000E+00 0. -1.
         -1    1    1    2    0  501  0.27961254775E+02 -0.27189162633E+02 -0.10600060061E+04  0.10607232511E+04  0.00000000000E+00 0.  1.
<mgrwt>
<rscale>  0 0.43983833E+02</rscale>
<asrwt>0</asrwt>
<pdfrwt beam="1">  1        2 0.21448021E+00 0.49603211E+02</pdfrwt>
<pdfrwt beam="2">  1       -2 0.17653046E+00 0.39001056E+02</pdfrwt>
<totfact> 0.41324481E+00</totfact>
</mgrwt>
</event>
<event>
 5    1  0.9399923E-003  0.6003303E+02  0.7546771E-02  0.1445035E+00
          2   -1    0    0  502    0  0.00000000000E+00  0.00000000000E+00  0.12135043561E+04  0.12135043561E+04  0.00000000000E+00 0. -1.
          1   -1    0    0  501    0 -0.00000000000E+00 -0.00000000000E+00 -0.31443606740E+03  0.31443606740E+03  0.00000000000E+00 0. -1.
         25    1    1    2    0    0  0.21038901020E+02  0.65395825653E+01  0.25031741731E+02  0.12937151769E+03  0.12500000000E+03 0.  0.
          2    1    1    2  501    0 -0.49703469158E+02 -0.36878520179E+02 -0.25822498672E+03  0.26553832843E+03  0.00000000000E+00 0. -1.
          1    1    1    2  502    0  0.28664568138E+02  0.30338937614E+02  0.11322615337E+04  0.11330305774E+04  0.00000000000E+00 0. -1.
<mgrwt>
<rscale>  0 0.50056900E+02</rscale>
<asrwt>0</asrwt>
<pdfrwt beam="1">  1        2 0.18669298E+00 0.41738575E+02</pdfrwt>
<pdfrwt beam="2">  1        1 0.48374780E-01 0.60033032E+02</pdfrwt>
<totfact> 0.25091564E+02</totfact>
</mgrwt>
</event>
<event>
 5    1  0.9399923E-003  0.1076018E+03  0.7546771E-02  0.1290810E+00
          1   -1    0    0  501    0 -0.00000000000E+00  0.00000000000E+00  0.54289047745E+03  0.54289047745E+03  0.00000000000E+00 0. -1.
          2   -1    0    0  502    0  0.00000000000E+00 -0.00000000000E+00 -0.28001791460E+04  0.28001791460E+04  0.00000000000E+00 0. -1.
         25    1    1    2    0    0  0.30218249057E+02  0.18773103203E+03 -0.17257762606E+03  0.28559432764E+03  0.12500000000E+03 0.  0.
          2    1    1    2  501    0 -0.14652376763E+02 -0.82876402873E+02  0.48163900316E+03  0.48893692810E+03  0.00000000000E+00 0. -1.
          1    1    1    2  502    0 -0.15565872294E+02 -0.10485462916E+03 -0.25663500456E+04  0.25685383677E+04  0.00000000000E+00 0. -1.
<mgrwt>
<rscale>  0 0.95162743E+02</rscale>
<asrwt>0</asrwt>
<pdfrwt beam="2">  1        2 0.43079678E+00 0.10760178E+03</pdfrwt>
<pdfrwt beam="1">  1        1 0.83521614E-01 0.84161691E+02</pdfrwt>
<totfact> 0.17811858E+01</totfact>
</mgrwt>
</event>
<event>
 5    1  0.9399923E-003  0.8363778E+02  0.7546771E-02  0.1399377E+00
          2   -1    0    0  502    0  0.00000000000E+00  0.00000000000E+00  0.18314045342E+03  0.18314045342E+03  0.00000000000E+00 0. -1.
          1   -1    0    0  501    0 -0.00000000000E+00 -0.00000000000E+00 -0.37070107075E+04  0.37070107075E+04  0.00000000000E+00 0. -1.
         25    1    1    2    0    0  0.36384936228E+02 -0.91288554892E+02 -0.66748720076E+03  0.68616443147E+03  0.12500000000E+03 0.  0.
          2    1    1    2  501    0  0.24887225273E+02  0.34473775261E+02 -0.30199832593E+04  0.30202825533E+04  0.00000000000E+00 0. -1.
          1    1    1    2  502    0 -0.61272161501E+02  0.56814779631E+02  0.16360020596E+03  0.18370417619E+03  0.00000000000E+00 0. -1.
<mgrwt>
<rscale>  0 0.59633426E+02</rscale>
<asrwt>0</asrwt>
<pdfrwt beam="1">  1        2 0.28175452E-01 0.83637783E+02</pdfrwt>
<pdfrwt beam="2">  1        1 0.57030938E+00 0.42518410E+02</pdfrwt>
<totfact> 0.79497821E+00</totfact>
</mgrwt>
</event>
<event>
 5    1  0.1025981E-002  0.6379581E+02  0.7546771E-02  0.1462858E+00
          1   -1    0    0  501    0 -0.00000000000E+00  0.00000000000E+00  0.24763289837E+04  0.24763289837E+04  0.00000000000E+00 0. -1.
          2   -1    0    0  502    0  0.00000000000E+00 -0.00000000000E+00 -0.92327591288E+03  0.92327591288E+03  0.00000000000E+00 0. -1.
         25    1    1    2    0    0  0.30322541828E+02  0.45653304268E+02  0.85174480491E+03  0.86261109049E+03  0.12500000000E+03 0.  0.
          2    1    1    2  501    0 -0.59720316916E+02 -0.27656829334E+02  0.16181582745E+04  0.16194961000E+04  0.00000000000E+00 0. -1.
          1    1    1    2  502    0  0.29397775088E+02 -0.17996474934E+02 -0.91685000865E+03  0.91749770608E+03  0.00000000000E+00 0. -1.
<mgrwt>
<rscale>  0 0.46893163E+02</rscale>
<asrwt>0</asrwt>
<pdfrwt beam="2">  1        2 0.14204245E+00 0.34468860E+02</pdfrwt>
<pdfrwt beam="1">  1        1 0.38097369E+00 0.63795809E+02</pdfrwt>
<totfact> 0.89769144E+00</totfact>
</mgrwt>
</event>
<event>
 5    1  0.9399923E-003  0.9364239E+02  0.7546771E-02  0.1438292E+00
         -2   -1    0    0    0  501  0.00000000000E+00  0.00000000000E+00  0.30985078768E+03  0.30985078768E+03  0.00000000000E+00 0.  1.
         -1   -1    0    0    0  502 -0.00000000000E+00 -0.00000000000E+00 -0.13499688830E+03  0.13499688830E+03  0.00000000000E+00 0.  1.
         25    1    1    2    0    0 -0.85362767892E+02  0.44927126074E+02  0.53675969693E+02  0.16676737847E+03  0.12500000000E+03 0.  0.
         -2    1    1    2    0  502  0.92102270449E+02 -0.17608591600E+02 -0.48855577553E+02  0.10573437557E+03  0.00000000000E+00 0.  1.
         -1    1    1    2    0  501 -0.67395025561E+01 -0.27318534474E+02  0.17003350725E+03  0.17234592193E+03  0.00000000000E+00 0.  1.
<mgrwt>
<rscale>  0 0.51330985E+02</rscale>
<asrwt>0</asrwt>
<pdfrwt beam="1">  1       -2 0.47669352E-01 0.28137577E+02</pdfrwt>
<pdfrwt beam="2">  1       -1 0.20768752E-01 0.93642392E+02</pdfrwt>
<totfact> 0.56854691E+02</totfact>
</mgrwt>
</event>
<event>
 5    1  0.9399923E-003  0.8084066E+02  0.7546771E-02  0.1372403E+00
          1   -1    0    0  501    0 -0.00000000000E+00  0.00000000000E+00  0.19225182967E+03  0.19225182967E+03  0.00000000000E+00 0. -1.
          2   -1    0    0  502    0  0.00000000000E+00 -0.00000000000E+00 -0.42331831172E+03  0.42331831172E+03  0.00000000000E+00 0. -1.
         25    1    1    2    0    0 -0.34413979210E+02 -0.90677529661E+02 -0.73670828525E+02  0.17452543461E+03  0.12500000000E+03 0.  0.
          2    1    1    2  501    0 -0.18925446996E+02  0.78512110924E+02  0.12750981067E+03  0.15093401181E+03  0.00000000000E+00 0. -1.
          1    1    1    2  502    0  0.53339426205E+02  0.12165418738E+02 -0.28490546420E+03  0.29011069496E+03  0.00000000000E+00 0. -1.
<mgrwt>
<rscale>  0 0.66503565E+02</rscale>
<asrwt>0</asrwt>
<pdfrwt beam="2">  1        2 0.65125894E-01 0.54709156E+02</pdfrwt>
<pdfrwt beam="1">  1        1 0.29577204E-01 0.80840656E+02</pdfrwt>
<totfact> 0.15561051E+03</totfact>
</mgrwt>
</event>
<event>
 5    1  0.9399923E-003  0.1549079E+03  0.7546771E-02  0.1286731E+00
          1   -1    0    0  501    0 -0.00000000000E+00  0.00000000000E+00  0.97588275204E+02  0.97588275204E+02  0.00000000000E+00 0. -1.
          2   -1    0    0  502    0  0.00000000000E+00 -0.00000000000E+00 -0.50698295321E+03  0.50698295321E+03  0.00000000000E+00 0. -1.
         25    1    1    2    0    0 -0.81282000442E+02  0.17919907795E+03 -0.25210287324E+03  0.34336559500E+03  0.12500000000E+03 0.  0.
          2    1    1    2  501    0  0.71697305416E+02 -0.11921910593E+03 -0.72422928695E+02  0.15683998031E+03  0.00000000000E+00 0. -1.
          1    1    1    2  502    0  0.95846950255E+01 -0.59979972017E+02 -0.84868876067E+02  0.10436565310E+03  0.00000000000E+00 0. -1.
<mgrwt>
<rscale>  0 0.97001321E+02</rscale>
<asrwt>0</asrwt>
<pdfrwt beam="2">  1        2 0.77997376E-01 0.60740953E+02</pdfrwt>
<pdfrwt beam="1">  1        1 0.15013581E-01 0.15490795E+03</pdfrwt>
<totfact> 0.30844665E+03</totfact>
</mgrwt>
</event>
<event>
 5    1  0.9399923E-003  0.8170902E+02  0.7546771E-02  0.1432479E+00
          2   -1    0    0  502    0  0.00000000000E+00  0.00000000000E+00  0.50393141749E+03  0.50393141749E+03  0.00000000000E+00 0. -1.
          1   -1    0    0  501    0 -0.00000000000E+00 -0.00000000000E+00 -0.77335338639E+02  0.77335338639E+02  0.00000000000E+00 0. -1.
         25    1    1    2    0    0 -0.14322716731E+02 -0.71022954539E+02  0.57878485974E+02  0.15564163782E+03  0.12500000000E+03 0.  0.
          2    1    1    2  501    0  0.32130465067E+02 -0.10126411816E+02 -0.12141654752E+02  0.35809646491E+02  0.00000000000E+00 0. -1.
          1    1    1    2  502    0 -0.17807748336E+02  0.81149366354E+02  0.38085924763E+03  0.38981547181E+03  0.00000000000E+00 0. -1.
<mgrwt>
<rscale>  0 0.52465698E+02</rscale>
<asrwt>0</asrwt>
<pdfrwt beam="1">  1        2 0.77527908E-01 0.81709021E+02</pdfrwt>
<pdfrwt beam="2">  1        1 0.11897745E-01 0.33688440E+02</pdfrwt>
<totfact> 0.38203464E+03</totfact>
</mgrwt>
</event>
<event>
 5    1  0.9399923E-003  0.4995155E+02  0.7546771E-02  0.1450207E+00
          2   -1    0    0  502    0  0.00000000000E+00  0.00000000000E+00  0.10944754094E+04  0.10944754094E+04  0.00000000000E+00 0. -1.
          1   -1    0    0  501    0 -0.00000000000E+00 -0.00000000000E+00 -0.70904610343E+03  0.70904610343E+03  0.00000000000E+00 0. -1.
         25    1    1    2    0    0 -0.18339786464E+02 -0.41072398209E+02  0.64815022118E+03  0.66162451502E+03  0.12500000000E+03 0.  0.
          2    1    1    2  501    0 -0.35195202334E+02  0.35446504709E+02 -0.69976738867E+03  0.70154797071E+03  0.00000000000E+00 0. -1.
          1    1    1    2  502    0  0.53534988798E+02  0.56258934996E+01  0.43704647350E+03  0.44034902714E+03  0.00000000000E+00 0. -1.
<mgrwt>
<rscale>  0 0.49109090E+02</rscale>
<asrwt>0</asrwt>
<pdfrwt beam="1">  1        2 0.16838083E+00 0.48280843E+02</pdfrwt>
<pdfrwt beam="2">  1        1 0.10908402E+00 0.49951546E+02</pdfrwt>
<totfact> 0.10357733E+02</totfact>
</mgrwt>
</event>
<event>
 5    1  0.9399923E-003  0.2035948E+03  0.7546771E-02  0.1271176E+00
          1   -1    0    0  501    0 -0.00000000000E+00  0.00000000000E+00  0.30340586491E+03  0.30340586491E+03  0.00000000000E+00 0. -1.
          2   -1    0    0  502    0  0.00000000000E+00 -0.00000000000E+00 -0.22454404568E+04  0.22454404568E+04  0.00000000000E+00 0. -1.
         25    1    1    2    0    0 -0.29081831705E+02  0.15889256448E+03 -0.38153763015E+03  0.43276848684E+03  0.12500000000E+03 0.  0.
          2    1    1    2  501    0  0.68342149806E+01 -0.20765920215E+03  0.23848496841E+03  0.31629753539E+03  0.00000000000E+00 0. -1.
          1    1    1    2  502    0  0.22247616724E+02  0.48766637671E+02 -0.17989819302E+04  0.17997802995E+04  0.00000000000E+00 0. -1.
<mgrwt>
<rscale>  0 0.10446544E+03</rscale>
<asrwt>0</asrwt>
<pdfrwt beam="2">  1        2 0.34545238E+00 0.53601692E+02</pdfrwt>
<pdfrwt beam="1">  1        1 0.46677825E-01 0.20359485E+03</pdfrwt>
<totfact> 0.79120150E+01</totfact>
</mgrwt>
</event>
<event>
 5    1  0.9399923E-003  0.9953836E+02  0.7546771E-02  0.1315574E+00
          1   -1    0    0  501    0 -0.00000000000E+00  0.00000000000E+00  0.33230069362E+03  0.33230069362E+03  0.00000000000E+00 0. -1.
          2   -1    0    0  502    0  0.00000000000E+00 -0.00000000000E+00 -0.21592325335E+04  0.21592325335E+04  0.00000000000E+00 0. -1.
         25    1    1    2    0    0  0.25372779090E+02  0.34351190018E+02 -0.13180849425E+03  0.18660723815E+03  0.12500000000E+03 0.  0.
          2    1    1    2  501    0 -0.24288013613E+02  0.68302641275E+02  0.29925346850E+03  0.30790874755E+03  0.00000000000E+00 0. -1.
          1    1    1    2  502    0 -0.10847654771E+01 -0.10265383129E+03 -0.19943768141E+04  0.19970172414E+04  0.00000000000E+00 0. -1.
<mgrwt>
<rscale>  0 0.84945759E+02</rscale>
<asrwt>0</asrwt>
<pdfrwt beam="2">  1        2 0.33218962E+00 0.99538363E+02</pdfrwt>
<pdfrwt beam="1">  1        1 0.51123184E-01 0.72492471E+02</pdfrwt>
<totfact> 0.72614621E+01</totfact>
</mgrwt>
</event>
<event>
 5    1  0.9399923E-003  0.3310486E+02  0.7546771E-02  0.1584536E+00
          2   -1    0    0  502    0  0.00000000000E+00  0.00000000000E+00  0.19402369750E+04  0.19402369750E+04  0.00000000000E+00 0. -1.
          1   -1    0    0  501    0 -0.00000000000E+00 -0.00000000000E+00 -0.13516533985E+04  0.13516533985E+04  0.00000000000E+00 0. -1.
         25    1    1    2    0    0  0.19145355234E+02 -0.51927622605E+02  0.12895139984E+04  0.12967399024E+04  0.12500000000E+03 0.  0.
          2    1    1    2  501    0  0.24593720909E+01  0.29420551276E+02 -0.13475026316E+04  0.13478260123E+04  0.00000000000E+00 0. -1.
          1    1    1    2  502    0 -0.21604727325E+02  0.22507071329E+02  0.64657220970E+03  0.64732445872E+03  0.00000000000E+00 0. -1.
<mgrwt>
<rscale>  0 0.31262763E+02</rscale>
<asrwt>0</asrwt>
<pdfrwt beam="1">  1        2 0.29849800E+00 0.33104862E+02</pdfrwt>
<pdfrwt beam="2">  1        1 0.20794668E+00 0.29523166E+02</pdfrwt>
<totfact> 0.15117326E+01</totfact>
</mgrwt>
</event>
<event>
 5    1  0.9399923E-003  0.1241567E+03  0.7546771E-02  0.1311286E+00
         -1   -1    0    0    0  501 -0.00000000000E+00  0.00000000000E+00  0.37008390887E+03  0.37008390887E+03  0.00000000000E+00 0.  1.
          1   -1    0    0  502    0  0.00000000000E+00 -0.00000000000E+00 -0.53808590922E+03  0.53808590922E+03  0.00000000000E+00 0. -1.
         25    1    1    2    0    0  0.46247167330E+02  0.58479287438E+02  0.24350220173E+03  0.28368459562E+03  0.12500000000E+03 0.  0.
          2    1    1    2  502    0 -0.41468936287E+02 -0.11870210022E+03 -0.50098357572E+03  0.51652144623E+03  0.00000000000E+00 0. -1.
         -2    1    1    2    0  501 -0.47782310428E+01  0.60222812779E+02  0.89479373645E+02  0.10796377623E+03  0.00000000000E+00 0.  1.
<mgrwt>
<rscale>  0 0.86605786E+02</rscale>
<asrwt>0</asrwt>
<pdfrwt beam="2">  1        1 0.82782447E-01 0.12415667E+03</pdfrwt>
<pdfrwt beam="1">  1       -1 0.56935986E-01 0.60412074E+02</pdfrwt>
<totfact> 0.13858258E+02</totfact>
</mgrwt>
</event>
<event>
 5    1  0.9399923E-003  0.2969843E+02  0.7546771E-02  0.1669803E+00
          2   -1    0    0  502    0  0.00000000000E+00  0.00000000000E+00  0.22425887684E+04  0.22425887684E+04  0.00000000000E+00 0. -1.
          1   -1    0    0  501    0 -0.00000000000E+00 -0.00000000000E+00 -0.16525408268E+03  0.16525408268E+03  0.00000000000E+00 0. -1.
         25    1    1    2    0    0  0.27012386219E+02 -0.27629066589E+02  0.16937298640E+03  0.21402159436E+03  0.12500000000E+03 0.  0.
          2    1    1    2  501    0  0.16648507738E+01  0.19974229625E+02 -0.14211913291E+03  0.14352557095E+03  0.00000000000E+00 0. -1.
          1    1    1    2  502    0 -0.28677236992E+02  0.76548369645E+01  0.20500808323E+04  0.20502956858E+04  0.00000000000E+00 0. -1.
<mgrwt>
<rscale>  0 0.24397957E+02</rscale>
<asrwt>0</asrwt>
<pdfrwt beam="1">  1        2 0.34501363E+00 0.29698432E+02</pdfrwt>
<pdfrwt beam="2">  1        1 0.25423707E-01 0.20043492E+02</pdfrwt>
<totfact> 0.17199114E+02</totfact>
</mgrwt>
</event>
<event>
 5    1  0.9399923E-003  0.1309146E+03  0.7546771E-02  0.1269986E+00
          2   -1    0    0  502    0  0.00000000000E+00  0.00000000000E+00  0.85380068914E+03  0.85380068914E+03  0.00000000000E+00 0. -1.
          1   -1    0    0  501    0 -0.00000000000E+00 -0.00000000000E+00 -0.29592220546E+03  0.29592220546E+03  0.00000000000E+00 0. -1.
         25    1    1    2    0    0 -0.14040743729E+03  0.15210919418E+03  0.29335627256E+03  0.38017674580E+03  0.12500000000E+03 0.  0.
          2    1    1    2  501    0  0.10105337083E+03 -0.77531496388E+02 -0.23267140316E+03  0.26525251843E+03  0.00000000000E+00 0. -1.
          1    1    1    2  502    0  0.39354066454E+02 -0.74577697790E+02  0.49719361428E+03  0.50429363037E+03  0.00000000000E+00 0. -1.
<mgrwt>
<rscale>  0 0.10506796E+03</rscale>
<asrwt>0</asrwt>
<pdfrwt beam="1">  1        2 0.13135395E+00 0.84324229E+02</pdfrwt>
<pdfrwt beam="2">  1        1 0.45526494E-01 0.13091464E+03</pdfrwt>
<totfact> 0.41636990E+02</totfact>
</mgrwt>
</event>
<event>
 5    1  0.9399923E-003  0.1211510E+03  0.7546771E-02  0.1418043E+00
          2   -1    0    0  502    0  0.00000000000E+00  0.00000000000E+00  0.72899577805E+03  0.72899577805E+03  0.00000000000E+00 0. -1.
          1   -1    0    0  501    0 -0.00000000000E+00 -0.00000000000E+00 -0.18957222871E+04  0.18957222871E+04  0.00000000000E+00 0. -1.
         25    1    1    2    0    0 -0.11151602773E+03 -0.41616952439E+02 -0.68692743024E+03  0.70828108092E+03  0.12500000000E+03 0.  0.
          2    1    1    2  501    0 -0.83743184045E+01  0.23945257377E+02 -0.11928709888E+04  0.11931406876E+04  0.00000000000E+00 0. -1.
          1    1    1    2  502    0  0.11989034614E+03  0.17671695063E+02  0.71307190998E+03  0.72329629662E+03  0.00000000000E+00 0. -1.
<mgrwt>
<rscale>  0 0.55437217E+02</rscale>
<asrwt>0</asrwt>
<pdfrwt beam="1">  1        2 0.11215319E+00 0.12115101E+03</pdfrwt>
<pdfrwt beam="2">  1        1 0.29164959E+00 0.25367392E+02</pdfrwt>
<totfact> 0.29607030E+01</totfact>
</mgrwt>
</event>
<event>
 5    1  0.9399923E-003  0.8252002E+02  0.7546771E-02  0.1463624E+00
          2   -1    0    0  502    0  0.00000000000E+00  0.00000000000E+00  0.25379433667E+04  0.25379433667E+04  0.00000000000E+00 0. -1.
          1   -1    0    0  501    0 -0.00000000000E+00 -0.00000000000E+00 -0.17018102542E+03  0.17018102542E+03  0.00000000000E+00 0. -1.
         25    1    1    2    0    0  0.50963166034E+02  0.94011968679E+02  0.74305814525E+02  0.18050442825E+03  0.12500000000E+03 0.  0.
          2    1    1    2  501    0 -0.46615400731E+01 -0.26087213418E+02 -0.11487186793E+03  0.11788901010E+03  0.00000000000E+00 0. -1.
          1    1    1    2  502    0 -0.46301625961E+02 -0.67924755261E+02  0.24083283947E+04  0.24097309538E+04  0.00000000000E+00 0. -1.
<mgrwt>
<rscale>  0 0.46763402E+02</rscale>
<asrwt>0</asrwt>
<pdfrwt beam="1">  1        2 0.39045280E+00 0.82520019E+02</pdfrwt>
<pdfrwt beam="2">  1        1 0.26181698E-01 0.26500428E+02</pdfrwt>
<totfact> 0.10338098E+02</totfact>
</mgrwt>
</event>
<event>
 5    1  0.9399923E-003  0.4074544E+02  0.7546771E-02  0.1511786E+00
          2   -1    0    0  502    0  0.00000000000E+00  0.00000000000E+00  0.44851737271E+03  0.44851737271E+03  0.00000000000E+00 0. -1.
          1   -1    0    0  501    0 -0.00000000000E+00 -0.00000000000E+00 -0.10122803509E+03  0.10122803509E+03  0.00000000000E+00 0. -1.
         25    1    1    2    0    0  0.57510050038E+02 -0.31529266451E+02  0.10236044773E+03  0.17436789199E+03  0.12500000000E+03 0.  0.
          2    1    1    2  501    0 -0.39971544360E+02 -0.25509000379E+01 -0.57750776444E+02  0.70280748640E+02  0.00000000000E+00 0. -1.
          1    1    1    2  502    0 -0.17538505678E+02  0.34080166489E+02  0.30267966633E+03  0.30509676718E+03  0.00000000000E+00 0. -1.
<mgrwt>
<rscale>  0 0.39518385E+02</rscale>
<asrwt>0</asrwt>
<pdfrwt beam="1">  1        2 0.69002671E-01 0.38328278E+02</pdfrwt>
<pdfrwt beam="2">  1        1 0.15573544E-01 0.40745444E+02</pdfrwt>
<totfact> 0.31502673E+03</totfact>
</mgrwt>
</event>
<event>
 5    1  0.9399923E-003  0.1403429E+03  0.7546771E-02  0.1314590E+00
          1   -1    0    0  501    0 -0.00000000000E+00  0.00000000000E+00  0.86621898864E+03  0.86621898864E+03  0.00000000000E+00 0. -1.
          2   -1    0    0  502    0  0.00000000000E+00 -0.00000000000E+00 -0.12249710214E+04  0.12249710214E+04  0.00000000000E+00 0. -1.
         25    1    1    2    0    0  0.83484419159E+02 -0.37073869964E+02  0.63324343257E+00  0.15482093229E+03  0.12500000000E+03 0.  0.
          2    1    1    2  501    0  0.46065155898E+02 -0.23849638759E+02  0.78316692866E+03  0.78488294796E+03  0.00000000000E+00 0. -1.
          1    1    1    2  502    0 -0.12954957506E+03  0.60923508723E+02 -0.11425522048E+04  0.11514861298E+04  0.00000000000E+00 0. -1.
<mgrwt>
<rscale>  0 0.85322928E+02</rscale>
<asrwt>0</asrwt>
<pdfrwt beam="2">  1        2 0.18845708E+00 0.14034291E+03</pdfrwt>
<pdfrwt beam="1">  1        1 0.13326446E+00 0.51872959E+02</pdfrwt>
<totfact> 0.61632424E+01</totfact>
</mgrwt>
</event>
<event>
 5    1  0.9399923E-003  0.1274056E+03  0.7546771E-02  0.1361583E+00
          1   -1    0    0  501    0 -0.00000000000E+00  0.00000000000E+00  0.52603609613E+03  0.52603609613E+03  0.00000000000E+00 0. -1.
          2   -1    0    0  502    0  0.00000000000E+00 -0.00000000000E+00 -0.11292242907E+04  0.11292242907E+04  0.00000000000E+00 0. -1.
         25    1    1    2    0    0 -0.11404213580E+03 -0.37165443382E+02 -0.17554174307E+03  0.24663086279E+03  0.12500000000E+03 0.  0.
          2    1    1    2  501    0  0.10439585442E+03  0.73902126594E+02  0.48174978940E+03  0.49844044611E+03  0.00000000000E+00 0. -1.
          1    1    1    2  502    0  0.96462813771E+01 -0.36736683212E+02 -0.90939624089E+03  0.91018907793E+03  0.00000000000E+00 0. -1.
<mgrwt>
<rscale>  0 0.69563820E+02</rscale>
<asrwt>0</asrwt>
<pdfrwt beam="2">  1        2 0.17372681E+00 0.37982030E+02</pdfrwt>
<pdfrwt beam="1">  1        1 0.80928631E-01 0.12740564E+03</pdfrwt>
<totfact> 0.14558379E+02</totfact>
</mgrwt>
</event>
<event>
 5    1  0.9399923E-003  0.9882578E+02  0.7546771E-02  0.1311115E+00
          2   -1    0    0  502    0  0.00000000000E+00  0.00000000000E+00  0.11460888894E+04  0.11460888894E+04  0.00000000000E+00 0. -1.
          1   -1    0    0  501    0 -0.00000000000E+00 -0.00000000000E+00 -0.12363598543E+03  0.12363598543E+03  0.00000000000E+00 0. -1.
         25    1    1    2    0    0 -0.11482535385E+03  0.10669845273E+03  0.23330136990E+03  0.30761006306E+03  0.12500000000E+03 0.  0.
          2    1    1    2  501    0  0.86896083181E+02 -0.36000904860E+02 -0.58693557280E+02  0.11086896811E+03  0.00000000000E+00 0. -1.
          1    1    1    2  502    0  0.27929270668E+02 -0.70697547867E+02  0.84784509130E+03  0.85124584361E+03  0.00000000000E+00 0. -1.
<mgrwt>
<rscale>  0 0.86672839E+02</rscale>
<asrwt>0</asrwt>
<pdfrwt beam="1">  1        2 0.17632136E+00 0.76014390E+02</pdfrwt>
<pdfrwt beam="2">  1        1 0.19020922E-01 0.98825775E+02</pdfrwt>
<totfact> 0.83030143E+02</totfact>
</mgrwt>
</event>
<event>
 5    1  0.9399923E-003  0.8747944E+02  0.7546771E-02  0.1433488E+00
         -2   -1    0    0    0  501 -0.00000000000E+00  0.00000000000E+00  0.24167096709E+02  0.24167096709E+02  0.00000000000E+00 0.  1.
          2   -1    0    0  502    0  0.00000000000E+00 -0.00000000000E+00 -0.17951075567E+04  0.17951075567E+04  0.00000000000E+00 0. -1.
         25    1    1    2    0    0  0.50267649927E+02 -0.98261004833E+02 -0.51350222495E+03  0.53989961727E+03  0.12500000000E+03 0.  0.
          1    1    1    2  502    0 -0.52401663397E+02  0.67106630732E+02 -0.12413138513E+04  0.12442304093E+04  0.00000000000E+00 0. -1.
         -1    1    1    2    0  501  0.21340134695E+01  0.31154374101E+02 -0.16124383758E+02  0.35144626768E+02  0.00000000000E+00 0.  1.
<mgrwt>
<rscale>  0 0.52266178E+02</rscale>
<asrwt>0</asrwt>
<pdfrwt beam="2">  1        2 0.27617031E+00 0.87479437E+02</pdfrwt>
<pdfrwt beam="1">  1       -2 0.37180159E-02 0.31227376E+02</pdfrwt>
<totfact> 0.25542076E+03</totfact>
</mgrwt>
</event>
<event>
 5    1  0.9399923E-003  0.1163610E+03  0.7546771E-02  0.1333617E+00
          1   -1    0    0  501    0 -0.00000000000E+00  0.00000000000E+00  0.11026366800E+04  0.11026366800E+04  0.00000000000E+00 0. -1.
          2   -1    0    0  502    0  0.00000000000E+00 -0.00000000000E+00 -0.88037867630E+03  0.88037867630E+03  0.00000000000E+00 0. -1.
         25    1    1    2    0    0 -0.35333077855E+01 -0.16663982372E+03 -0.40802794110E+02  0.21229974828E+03  0.12500000000E+03 0.  0.
          2    1    1    2  501    0  0.11038146883E+01  0.52828870535E+02  0.10118972389E+04  0.10132759397E+04  0.00000000000E+00 0. -1.
          1    1    1    2  502    0  0.24294930971E+01  0.11381095319E+03 -0.74883644111E+03  0.75743966825E+03  0.00000000000E+00 0. -1.
<mgrwt>
<rscale>  0 0.78412773E+02</rscale>
<asrwt>0</asrwt>
<pdfrwt beam="2">  1        2 0.13544287E+00 0.11636102E+03</pdfrwt>
<pdfrwt beam="1">  1        1 0.16963641E+00 0.52840401E+02</pdfrwt>
<totfact> 0.67227969E+01</totfact>
</mgrwt>
</event>
<event>
 5    1  0.9399923E-003  0.5635122E+02  0.7546771E-02  0.1433259E+00
          2   -1    0    0  502    0  0.00000000000E+00  0.00000000000E+00  0.70601561032E+03  0.70601561032E+03  0.00000000000E+00 0. -1.
          1   -1    0    0  501    0 -0.00000000000E+00 -0.00000000000E+00 -0.16511503303E+04  0.16511503303E+04  0.00000000000E+00 0. -1.
         25    1    1    2    0    0  0.64576750885E+02  0.69555902074E+02  0.56191758679E+02  0.16670541087E+03  0.12500000000E+03 0.  0.
          2    1    1    2  501    0 -0.18953183277E+02 -0.52922098934E+02 -0.15944057943E+04  0.15953964424E+04  0.00000000000E+00 0. -1.
          1    1    1    2  502    0 -0.45623567608E+02 -0.16633803140E+02  0.59307931565E+03  0.59506408728E+03  0.00000000000E+00 0. -1.
<mgrwt>
<rscale>  0 0.52311422E+02</rscale>
<asrwt>0</asrwt>
<pdfrwt beam="1">  1        2 0.10861779E+00 0.48561233E+02</pdfrwt>
<pdfrwt beam="2">  1        1 0.25402313E+00 0.56351223E+02</pdfrwt>
<totfact> 0.40195308E+01</totfact>
</mgrwt>
</event>
<event>
 5    1  0.9399923E-003  0.5368084E+02  0.7546771E-02  0.1468086E+00
          2   -1    0    0  502    0  0.00000000000E+00  0.00000000000E+00  0.84168141895E+03  0.84168141895E+03  0.00000000000E+00 0. -1.
         -2   -1    0    0    0  501 -0.00000000000E+00 -0.00000000000E+00 -0.34144570302E+02  0.34144570302E+02  0.00000000000E+00 0.  1.
         25    1    1    2    0    0 -0.48966994181E+02 -0.60428460740E+02  0.31412191931E+03  0.34691057288E+03  0.12500000000E+03 0.  0.
          1    1    1    2  502    0  0.10614783523E+02  0.51192291045E+02  0.48596531466E+03  0.48876948692E+03  0.00000000000E+00 0. -1.
         -1    1    1    2    0  501  0.38352210658E+02  0.92361696952E+01  0.74496146862E+01  0.40145929457E+02  0.00000000000E+00 0.  1.
<mgrwt>
<rscale>  0 0.46017807E+02</rscale>
<asrwt>0</asrwt>
<pdfrwt beam="1">  1        2 0.12948943E+00 0.53680839E+02</pdfrwt>
<pdfrwt beam="2">  1       -2 0.52530115E-02 0.39448687E+02</pdfrwt>
<totfact> 0.53580951E+03</totfact>
</mgrwt>
</event>
<event>
 5    1  0.9399923E-003  0.8273915E+02  0.7546771E-02  0.1405750E+00
          2   -1    0    0  502    0  0.00000000000E+00  0.00000000000E+00  0.11372356279E+04  0.11372356279E+04  0.00000000000E+00 0. -1.
          1   -1    0    0  501    0 -0.00000000000E+00 -0.00000000000E+00 -0.80355196513E+03  0.80355196513E+03  0.00000000000E+00 0. -1.
         25    1    1    2    0    0  0.10698047261E+03 -0.52940710550E+02 -0.78536874352E+02  0.18984356978E+03  0.12500000000E+03 0.  0.
          2    1    1    2  501    0 -0.77268036578E+02  0.24873890947E+02 -0.66651234791E+03  0.67143709299E+03  0.00000000000E+00 0. -1.
          1    1    1    2  502    0 -0.29712436035E+02  0.28066819603E+02  0.10787328850E+04  0.10795069302E+04  0.00000000000E+00 0. -1.
<mgrwt>
<rscale>  0 0.58152989E+02</rscale>
<asrwt>0</asrwt>
<pdfrwt beam="1">  1        2 0.17495933E+00 0.40872671E+02</pdfrwt>
<pdfrwt beam="2">  1        1 0.12362338E+00 0.82739153E+02</pdfrwt>
<totfact> 0.81101174E+01</totfact>
</mgrwt>
</event>
<event>
 5    1  0.9399923E-003  0.1149371E+03  0.7546771E-02  0.1384057E+00
          2   -1    0    0  502    0  0.00000000000E+00  0.00000000000E+00  0.10577172589E+04  0.10577172589E+04  0.00000000000E+00 0. -1.
         -2   -1    0    0    0  501 -0.00000000000E+00 -0.00000000000E+00 -0.24886718737E+03  0.24886718737E+03  0.00000000000E+00 0.  1.
         25    1    1    2    0    0  0.12665424873E+03 -0.19558310818E+02 -0.11206018872E+03  0.21120206471E+03  0.12500000000E+03 0.  0.
          1    1    1    2  502    0 -0.19603662842E+02  0.28973009489E+02  0.97461759695E+03  0.97524519950E+03  0.00000000000E+00 0. -1.
         -1    1    1    2    0  501 -0.10705058589E+03 -0.94146986712E+01 -0.53707336720E+02  0.12013718203E+03  0.00000000000E+00 0.  1.
<mgrwt>
<rscale>  0 0.63409208E+02</rscale>
<asrwt>0</asrwt>
<pdfrwt beam="1">  1        2 0.16272573E+00 0.34981979E+02</pdfrwt>
<pdfrwt beam="2">  1       -2 0.38287260E-01 0.11493711E+03</pdfrwt>
<totfact> 0.17636305E+02</totfact>
</mgrwt>
</event>
<event>
 5    1  0.9399923E-003  0.1682494E+03  0.7546771E-02  0.1285779E+00
          1   -1    0    0  501    0 -0.00000000000E+00  0.00000000000E+00  0.14209415278E+04  0.14209415278E+04  0.00000000000E+00 0. -1.
          2   -1    0    0  502    0  0.00000000000E+00 -0.00000000000E+00 -0.14059050074E+04  0.14059050074E+04  0.00000000000E+00 0. -1.
         25    1    1    2    0    0  0.12030116639E+03  0.17143278068E+03  0.30756610707E+02  0.24583030332E+03  0.12500000000E+03 0.  0.
          2    1    1    2  501    0  0.51789731730E+00 -0.56425955122E+02  0.12766648130E+04  0.12779112651E+04  0.00000000000E+00 0. -1.
          1    1    1    2  502    0 -0.12081906371E+03 -0.11500682556E+03 -0.12923849033E+04  0.13031049668E+04  0.00000000000E+00 0. -1.
<mgrwt>
<rscale>  0 0.97437315E+02</rscale>
<asrwt>0</asrwt>
<pdfrwt beam="2">  1        2 0.21629308E+00 0.16824935E+03</pdfrwt>
<pdfrwt beam="1">  1        1 0.21860639E+00 0.56428332E+02</pdfrwt>
<totfact> 0.20374116E+01</totfact>
</mgrwt>
</event>
<event>
 5    1  0.9399923E-003  0.2118323E+03  0.7546771E-02  0.1167127E+00
          1   -1    0    0  501    0 -0.00000000000E+00  0.00000000000E+00  0.48358428291E+03  0.48358428291E+03  0.00000000000E+00 0. -1.
          2   -1    0    0  502    0  0.00000000000E+00 -0.00000000000E+00 -0.58116624956E+03  0.58116624956E+03  0.00000000000E+00 0. -1.
         25    1    1    2    0    0  0.90740500748E+02 -0.48601010887E+02  0.21326442442E+01  0.16194272107E+03  0.12500000000E+03 0.  0.
          2    1    1    2  501    0  0.13308296977E+03 -0.77776968663E+02  0.35133401042E+03  0.38366120546E+03  0.00000000000E+00 0. -1.
          1    1    1    2  502    0 -0.22382347052E+03  0.12637797955E+03 -0.45104862131E+03  0.51914660594E+03  0.00000000000E+00 0. -1.
<mgrwt>
<rscale>  0 0.18070044E+03</rscale>
<asrwt>0</asrwt>
<pdfrwt beam="2">  1        2 0.89410192E-01 0.21183228E+03</pdfrwt>
<pdfrwt beam="1">  1        1 0.74397582E-01 0.15414387E+03</pdfrwt>
<totfact> 0.34409001E+02</totfact>
</mgrwt>
</event>
<event>
 5    1  0.9399923E-003  0.9680133E+02  0.7546771E-02  0.1420744E+00
          2   -1    0    0  502    0  0.00000000000E+00  0.00000000000E+00  0.11030095705E+04  0.11030095705E+04  0.00000000000E+00 0. -1.
         -2   -1    0    0    0  501 -0.00000000000E+00 -0.00000000000E+00 -0.45223579533E+03  0.45223579533E+03  0.00000000000E+00 0.  1.
         25    1    1    2    0    0 -0.90489351115E+02 -0.82318096763E+02 -0.12648274159E+03  0.21584132051E+03  0.12500000000E+03 0.  0.
          1    1    1    2  502    0  0.80779414709E+02  0.52778015715E+02  0.10552622694E+04  0.10596647064E+04  0.00000000000E+00 0. -1.
         -1    1    1    2    0  501  0.97099364061E+01  0.29540081047E+02 -0.27800575262E+03  0.27973933893E+03  0.00000000000E+00 0.  1.
<mgrwt>
<rscale>  0 0.54863812E+02</rscale>
<asrwt>0</asrwt>
<pdfrwt beam="1">  1        2 0.16969378E+00 0.96801335E+02</pdfrwt>
<pdfrwt beam="2">  1       -2 0.69574738E-01 0.31095004E+02</pdfrwt>
<totfact> 0.48399314E+01</totfact>
</mgrwt>
</event>
<event>
 5    1  0.9399923E-003  0.3006937E+02  0.7546771E-02  0.1656436E+00
          1   -1    0    0  501    0 -0.00000000000E+00  0.00000000000E+00  0.19492259635E+03  0.19492259635E+03  0.00000000000E+00 0. -1.
          2   -1    0    0  502    0  0.00000000000E+00 -0.00000000000E+00 -0.56327893365E+03  0.56327893365E+03  0.00000000000E+00 0. -1.
         25    1    1    2    0    0  0.40523614716E+01  0.29881288780E+02 -0.21929349646E+03  0.25421241245E+03  0.12500000000E+03 0.  0.
          2    1    1    2  501    0 -0.22780424229E+02 -0.19688459536E+02  0.17583402188E+03  0.17839334746E+03  0.00000000000E+00 0. -1.
          1    1    1    2  502    0  0.18728062757E+02 -0.10192829244E+02 -0.32489686272E+03  0.32559577010E+03  0.00000000000E+00 0. -1.
<mgrwt>
<rscale>  0 0.25320813E+02</rscale>
<asrwt>0</asrwt>
<pdfrwt beam="2">  1        2 0.86658299E-01 0.21322151E+02</pdfrwt>
<pdfrwt beam="1">  1        1 0.29988091E-01 0.30069368E+02</pdfrwt>
<totfact> 0.11212580E+03</totfact>
</mgrwt>
</event>
<event>
 5    1  0.9399923E-003  0.6869436E+02  0.7546771E-02  0.1403045E+00
          1   -1    0    0  501    0 -0.00000000000E+00  0.00000000000E+00  0.18689504234E+04  0.18689504234E+04  0.00000000000E+00 0. -1.
          2   -1    0    0  502    0  0.00000000000E+00 -0.00000000000E+00 -0.19384200570E+03  0.19384200570E+03  0.00000000000E+00 0. -1.
         25    1    1    2    0    0  0.11533530966E+02  0.18918266384E+02 -0.17332086984E+02  0.12812620489E+03  0.12500000000E+03 0.  0.
          2    1    1    2  501    0 -0.58542062415E+02 -0.36782220624E+02  0.18076436913E+04  0.18089654004E+04  0.00000000000E+00 0. -1.
          3    1    1    2  502    0  0.47008531449E+02  0.17863954240E+02 -0.11520318668E+03  0.12570082383E+03  0.00000000000E+00 0. -1.
<mgrwt>
<rscale>  0 0.58775243E+02</rscale>
<asrwt>0</asrwt>
<pdfrwt beam="2">  1        2 0.29821848E-01 0.50288397E+02</pdfrwt>
<pdfrwt beam="1">  1        1 0.28753082E+00 0.68694359E+02</pdfrwt>
<totfact> 0.11123698E+02</totfact>
</mgrwt>
</event>
<event>
 5    1  0.1432130E-002  0.9068295E+02  0.7546771E-02  0.1427294E+00
          2   -1    0    0  502    0  0.00000000000E+00  0.00000000000E+00  0.16634097611E+04  0.16634097611E+04  0.00000000000E+00 0. -1.
          1   -1    0    0  501    0 -0.00000000000E+00 -0.00000000000E+00 -0.13497919003E+04  0.13497919003E+04  0.00000000000E+00 0. -1.
         25    1    1    2    0    0  0.89349154754E+02  0.12282300035E+02 -0.11992515845E+03  0.19529764458E+03  0.12500000000E+03 0.  0.
          2    1    1    2  501    0 -0.69097068778E+00 -0.31564020257E+02 -0.11907051854E+04  0.11911236725E+04  0.00000000000E+00 0. -1.
          1    1    1    2  502    0 -0.88658184067E+02  0.19281720222E+02  0.16242482047E+04  0.16267803443E+04  0.00000000000E+00 0. -1.
<mgrwt>
<rscale>  0 0.53507050E+02</rscale>
<asrwt>0</asrwt>
<pdfrwt beam="1">  1        2 0.25590919E+00 0.90682954E+02</pdfrwt>
<pdfrwt beam="2">  1        1 0.20766029E+00 0.31571582E+02</pdfrwt>
<totfact> 0.18491886E+01</totfact>
</mgrwt>
</event>
<event>
 5    1  0.9399923E-003  0.5406850E+02  0.7546771E-02  0.1495854E+00
          2   -1    0    0  502    0  0.00000000000E+00  0.00000000000E+00  0.89519243224E+03  0.89519243224E+03  0.00000000000E+00 0. -1.
         -2   -1    0    0    0  501 -0.00000000000E+00 -0.00000000000E+00 -0.15433679858E+03  0.15433679858E+03  0.00000000000E+00 0.  1.
         25    1    1    2    0    0  0.75315540205E+02  0.35337928494E+02  0.84828007733E+01  0.15039334326E+03  0.12500000000E+03 0.  0.
          1    1    1    2  502    0 -0.30242029500E+02 -0.11077466737E+02  0.80754697267E+03  0.80818896533E+03  0.00000000000E+00 0. -1.
         -1    1    1    2    0  501 -0.45073510705E+02 -0.24260461757E+02 -0.75174139785E+02  0.90946922237E+02  0.00000000000E+00 0.  1.
<mgrwt>
<rscale>  0 0.41729892E+02</rscale>
<asrwt>0</asrwt>
<pdfrwt beam="1">  1        2 0.13772191E+00 0.32206996E+02</pdfrwt>
<pdfrwt beam="2">  1       -2 0.23744123E-01 0.54068498E+02</pdfrwt>
<totfact> 0.50221385E+02</totfact>
</mgrwt>
</event>
<event>
 5    1  0.9399923E-003  0.1028847E+03  0.7546771E-02  0.1297774E+00
          1   -1    0    0  501    0 -0.00000000000E+00  0.00000000000E+00  0.20449185052E+04  0.20449185052E+04  0.00000000000E+00 0. -1.
          2   -1    0    0  502    0  0.00000000000E+00 -0.00000000000E+00 -0.33473716412E+03  0.33473716412E+03  0.00000000000E+00 0. -1.
         25    1    1    2    0    0 -0.18080485091E+02 -0.15364878802E+02  0.26003123415E+03  0.28948959597E+03  0.12500000000E+03 0.  0.
          2    1    1    2  501    0 -0.44433290374E+02 -0.69511272746E+02  0.17604848408E+04  0.17624168091E+04  0.00000000000E+00 0. -1.
          1    1    1    2  502    0  0.62513775465E+02  0.84876151548E+02 -0.31033473383E+03  0.32774926429E+03  0.00000000000E+00 0. -1.
<mgrwt>
<rscale>  0 0.92129880E+02</rscale>
<asrwt>0</asrwt>
<pdfrwt beam="2">  1        2 0.51498026E-01 0.10288469E+03</pdfrwt>
<pdfrwt beam="1">  1        1 0.31460284E+00 0.82499299E+02</pdfrwt>
<totfact> 0.48304987E+01</totfact>
</mgrwt>
</event>
<event>
 5    1  0.9399923E-003  0.4251706E+02  0.7546771E-02  0.1541647E+00
          1   -1    0    0  501    0 -0.00000000000E+00  0.00000000000E+00  0.41074689263E+03  0.41074689263E+03  0.00000000000E+00 0. -1.
          2   -1    0    0  502    0  0.00000000000E+00 -0.00000000000E+00 -0.51823510312E+02  0.51823510312E+02  0.00000000000E+00 0. -1.
         25    1    1    2    0    0 -0.63219020185E+02 -0.19358936806E+02  0.85393425425E+02  0.16519216099E+03  0.12500000000E+03 0.  0.
          2    1    1    2  501    0  0.26801476973E+02  0.13780536354E+02  0.25380496648E+03  0.25558791709E+03  0.00000000000E+00 0. -1.
          1    1    1    2  502    0  0.36417543212E+02  0.55784004513E+01  0.19724990404E+02  0.41790324856E+02  0.00000000000E+00 0. -1.
<mgrwt>
<rscale>  0 0.35795603E+02</rscale>
<asrwt>0</asrwt>
<pdfrwt beam="2">  1        2 0.79728480E-02 0.42517065E+02</pdfrwt>
<pdfrwt beam="1">  1        1 0.63191828E-01 0.30136728E+02</pdfrwt>
<totfact> 0.60835268E+03</totfact>
</mgrwt>
</event>
<event>
 5    1  0.9399923E-003  0.3926522E+02  0.7546771E-02  0.1576527E+00
          2   -1    0    0  502    0  0.00000000000E+00  0.00000000000E+00  0.30225204700E+04  0.30225204700E+04  0.00000000000E+00 0. -1.
          1   -1    0    0  501    0 -0.00000000000E+00 -0.00000000000E+00 -0.16153034292E+04  0.16153034292E+04  0.00000000000E+00 0. -1.
         25    1    1    2    0    0  0.29750204313E+02  0.42335355612E+02  0.20990638183E+04  0.21034189479E+04  0.12500000000E+03 0.  0.
          2    1    1    2  501    0  0.44206784324E+01 -0.25775738166E+02 -0.16126285305E+04  0.16128405713E+04  0.00000000000E+00 0. -1.
          1    1    1    2  502    0 -0.34170882745E+02 -0.16559617446E+02  0.92078175297E+03  0.92156438015E+03  0.00000000000E+00 0. -1.
<mgrwt>
<rscale>  0 0.32044767E+02</rscale>
<asrwt>0</asrwt>
<pdfrwt beam="1">  1        2 0.46500315E+00 0.39265224E+02</pdfrwt>
<pdfrwt beam="2">  1        1 0.24850822E+00 0.26152076E+02</pdfrwt>
<totfact> 0.29380343E+00</totfact>
</mgrwt>
</event>
<event>
 5    1  0.9399923E-003  0.1575785E+03  0.7546771E-02  0.1243912E+00
          1   -1    0    0  501    0 -0.00000000000E+00  0.00000000000E+00  0.50311461916E+03  0.50311461916E+03  0.00000000000E+00 0. -1.
          2   -1    0    0  502    0  0.00000000000E+00 -0.00000000000E+00 -0.13392410701E+04  0.13392410701E+04  0.00000000000E+00 0. -1.
         25    1    1    2    0    0  0.87642411606E+02  0.22551611244E+03 -0.11485570987E+03  0.29555971202E+03  0.12500000000E+03 0.  0.
          2    1    1    2  501    0 -0.47786348081E+02 -0.14411534706E+03  0.39690423087E+03  0.42495380550E+03  0.00000000000E+00 0. -1.
          1    1    1    2  502    0 -0.39856063525E+02 -0.81400765371E+02 -0.11181749720E+04  0.11218421718E+04  0.00000000000E+00 0. -1.
<mgrwt>
<rscale>  0 0.11950746E+03</rscale>
<asrwt>0</asrwt>
<pdfrwt beam="2">  1        2 0.20603709E+00 0.90634378E+02</pdfrwt>
<pdfrwt beam="1">  1        1 0.77402250E-01 0.15757853E+03</pdfrwt>
<totfact> 0.11217525E+02</totfact>
</mgrwt>
</event>
<event>
 5    1  0.9399923E-003  0.8673902E+02  0.7546771E-02  0.1457428E+00
          2   -1    0    0  502    0  0.00000000000E+00  0.00000000000E+00  0.15654457139E+04  0.15654457139E+04  0.00000000000E+00 0. -1.
          1   -1    0    0  501    0 -0.00000000000E+00 -0.00000000000E+00 -0.46698005758E+03  0.46698005758E+03  0.00000000000E+00 0. -1.
         25    1    1    2    0    0 -0.35734675732E+02 -0.54095547522E+02  0.19997311808E+03  0.24457625246E+03  0.12500000000E+03 0.  0.
          2    1    1    2  501    0  0.33733822796E+02  0.80390664695E+02 -0.44027428566E+03  0.44882299003E+03  0.00000000000E+00 0. -1.
          1    1    1    2  502    0  0.20008529367E+01 -0.26295117174E+02  0.13387668239E+04  0.13390265290E+04  0.00000000000E+00 0. -1.
<mgrwt>
<rscale>  0 0.47826836E+02</rscale>
<asrwt>0</asrwt>
<pdfrwt beam="1">  1        2 0.24083780E+00 0.26371132E+02</pdfrwt>
<pdfrwt beam="2">  1        1 0.71843086E-01 0.86739023E+02</pdfrwt>
<totfact> 0.10716513E+02</totfact>
</mgrwt>
</event>
<event>
 5    1  0.9399923E-003  0.1200132E+03  0.7546771E-02  0.1261914E+00
          1   -1    0    0  501    0 -0.00000000000E+00  0.00000000000E+00  0.10071097335E+04  0.10071097335E+04  0.00000000000E+00 0. -1.
          2   -1    0    0  502    0  0.00000000000E+00 -0.00000000000E+00 -0.29285247842E+03  0.29285247842E+03  0.00000000000E+00 0. -1.
         25    1    1    2    0    0 -0.75548453592E+02 -0.40553518540E+02 -0.65195379685E+02  0.16500786114E+03  0.12500000000E+03 0.  0.
          2    1    1    2  501    0  0.17214615801E+02  0.12116189498E+03  0.93898996152E+03  0.94693119899E+03  0.00000000000E+00 0. -1.
          1    1    1    2  502    0  0.58333837791E+02 -0.80608376437E+02 -0.15953732675E+03  0.18802315179E+03  0.00000000000E+00 0. -1.
<mgrwt>
<rscale>  0 0.10927713E+03</rscale>
<asrwt>0</asrwt>
<pdfrwt beam="2">  1        2 0.45054228E-01 0.99501492E+02</pdfrwt>
<pdfrwt beam="1">  1        1 0.15493996E+00 0.12001319E+03</pdfrwt>
<totfact> 0.25356484E+02</totfact>
</mgrwt>
</event>
<event>
 5    1  0.9399923E-003  0.6245341E+02  0.7546771E-02  0.1544287E+00
         -2   -1    0    0    0  501  0.00000000000E+00  0.00000000000E+00  0.14062923587E+03  0.14062923587E+03  0.00000000000E+00 0.  1.
         -1   -1    0    0    0  502 -0.00000000000E+00 -0.00000000000E+00 -0.20540946313E+03  0.20540946313E+03  0.00000000000E+00 0.  1.
         25    1    1    2    0    0  0.58121790231E+02  0.25295887150E+02 -0.13729956465E+03  0.19619937528E+03  0.12500000000E+03 0.  0.
         -2    1    1    2    0  502  0.42000721349E+01 -0.19726102870E+02 -0.26137321928E+02  0.33013926425E+02  0.00000000000E+00 0.  1.
         -1    1    1    2    0  501 -0.62321862366E+02 -0.55697842802E+01  0.98656659322E+02  0.11682539730E+03  0.00000000000E+00 0.  1.
<mgrwt>
<rscale>  0 0.35490537E+02</rscale>
<asrwt>0</asrwt>
<pdfrwt beam="1">  1       -2 0.21635267E-01 0.62453411E+02</pdfrwt>
<pdfrwt beam="2">  1       -1 0.31601456E-01 0.20168286E+02</pdfrwt>
<totfact> 0.11448863E+03</totfact>
</mgrwt>
</event>
<event>
 5    1  0.9399923E-003  0.3852203E+02  0.7546771E-02  0.1557065E+00
          1   -1    0    0  501    0 -0.00000000000E+00  0.00000000000E+00  0.29261709685E+03  0.29261709685E+03  0.00000000000E+00 0. -1.
          2   -1    0    0  502    0  0.00000000000E+00 -0.00000000000E+00 -0.77107932004E+02  0.77107932004E+02  0.00000000000E+00 0. -1.
         25    1    1    2    0    0  0.12341467307E+02 -0.33767660483E+02  0.23506592349E+03  0.26865136347E+03  0.12500000000E+03 0.  0.
          2    1    1    2  501    0 -0.30111404020E+02 -0.84883009433E+00  0.26961509131E+02  0.40426972917E+02  0.00000000000E+00 0. -1.
          1    1    1    2  502    0  0.17769936713E+02  0.34616490578E+02 -0.46518267772E+02  0.60646692467E+02  0.00000000000E+00 0. -1.
<mgrwt>
<rscale>  0 0.34064840E+02</rscale>
<asrwt>0</asrwt>
<pdfrwt beam="2">  1        2 0.11862759E-01 0.38522033E+02</pdfrwt>
<pdfrwt beam="1">  1        1 0.45018014E-01 0.30123366E+02</pdfrwt>
<totfact> 0.56222046E+03</totfact>
</mgrwt>
</event>
<event>
 5    1  0.9399923E-003  0.2532068E+03  0.7546771E-02  0.1203870E+00
          1   -1    0    0  501    0 -0.00000000000E+00  0.00000000000E+00  0.95697267037E+03  0.95697267037E+03  0.00000000000E+00 0. -1.
          2   -1    0    0  502    0  0.00000000000E+00 -0.00000000000E+00 -0.87880747689E+03  0.87880747689E+03  0.00000000000E+00 0. -1.
         25    1    1    2    0    0 -0.21029864034E+03  0.13008060360E+03 -0.31045415223E+03  0.41611688526E+03  0.12500000000E+03 0.  0.
          2    1    1    2  501    0  0.24849942726E+03 -0.53417550440E+02  0.88251836727E+03  0.91839211049E+03  0.00000000000E+00 0. -1.
          1    1    1    2  502    0 -0.38200786913E+02 -0.76663053164E+02 -0.49389902156E+03  0.50127115151E+03  0.00000000000E+00 0. -1.
<mgrwt>
<rscale>  0 0.14726865E+03</rscale>
<asrwt>0</asrwt>
<pdfrwt beam="2">  1        2 0.13520115E+00 0.85653510E+02</pdfrwt>
<pdfrwt beam="1">  1        1 0.14722656E+00 0.25320684E+03</pdfrwt>
<totfact> 0.78427653E+01</totfact>
</mgrwt>
</event>
<event>
 5    1  0.9399923E-003  0.1601121E+03  0.7546771E-02  0.1268755E+00
          2   -1    0    0  502    0  0.00000000000E+00  0.00000000000E+00  0.85851021990E+03  0.85851021990E+03  0.00000000000E+00 0. -1.
          1   -1    0    0  501    0 -0.00000000000E+00 -0.00000000000E+00 -0.12849176640E+04  0.12849176640E+04  0.00000000000E+00 0. -1.
         25    1    1    2    0    0 -0.20092084617E+03  0.10756846909E+03 -0.20872655763E+03  0.33336457195E+03  0.12500000000E+03 0.  0.
          2    1    1    2  501    0  0.60939162156E+02 -0.33981632928E+02 -0.10047973529E+04  0.10072169842E+04  0.00000000000E+00 0. -1.
          1    1    1    2  502    0  0.13998168402E+03 -0.73586836164E+02  0.78711646641E+03  0.80284632777E+03  0.00000000000E+00 0. -1.
<mgrwt>
<rscale>  0 0.10569566E+03</rscale>
<asrwt>0</asrwt>
<pdfrwt beam="1">  1        2 0.13207850E+00 0.16011210E+03</pdfrwt>
<pdfrwt beam="2">  1        1 0.19767964E+00 0.69773440E+02</pdfrwt>
<totfact> 0.50732216E+01</totfact>
</mgrwt>
</event>
<event>
 5    1  0.9399923E-003  0.1075650E+03  0.7546771E-02  0.1310820E+00
          1   -1    0    0  501    0 -0.00000000000E+00  0.00000000000E+00  0.20892520227E+04  0.20892520227E+04  0.00000000000E+00 0. -1.
          2   -1    0    0  502    0  0.00000000000E+00 -0.00000000000E+00 -0.21023876590E+03  0.21023876590E+03  0.00000000000E+00 0. -1.
         25    1    1    2    0    0  0.16171556377E+03 -0.67304384815E+02  0.45963745881E+03  0.50751689363E+03  0.12500000000E+03 0.  0.
          2    1    1    2  501    0 -0.62409718014E+02  0.31757870929E+02  0.15899129369E+04  0.15914542665E+04  0.00000000000E+00 0. -1.
          3    1    1    2  502    0 -0.99305845754E+02  0.35546513886E+02 -0.17053713895E+03  0.20051962849E+03  0.00000000000E+00 0. -1.
<mgrwt>
<rscale>  0 0.86788639E+02</rscale>
<asrwt>0</asrwt>
<pdfrwt beam="2">  1        2 0.32344427E-01 0.10756503E+03</pdfrwt>
<pdfrwt beam="1">  1        1 0.32142337E+00 0.70025247E+02</pdfrwt>
<totfact> 0.75696669E+01</totfact>
</mgrwt>
</event>
<event>
 5    1  0.9399923E-003  0.5183041E+02  0.7546771E-02  0.1483736E+00
         -2   -1    0    0    0  501 -0.00000000000E+00  0.00000000000E+00  0.40624479979E+03  0.40624479979E+03  0.00000000000E+00 0.  1.
          2   -1    0    0  502    0  0.00000000000E+00 -0.00000000000E+00 -0.12167412845E+03  0.12167412845E+03  0.00000000000E+00 0. -1.
         25    1    1    2    0    0  0.21426363181E+01 -0.18536649773E+02  0.44708124131E+02  0.13405974280E+03  0.12500000000E+03 0.  0.
          1    1    1    2  502    0 -0.14233843402E+02 -0.33673363478E+02 -0.70226934784E+02  0.79172723050E+02  0.00000000000E+00 0. -1.
         -1    1    1    2    0  501  0.12091207084E+02  0.52210013251E+02  0.31008948200E+03  0.31468646240E+03  0.00000000000E+00 0.  1.
<mgrwt>
<rscale>  0 0.43529569E+02</rscale>
<asrwt>0</asrwt>
<pdfrwt beam="2">  1        2 0.18719097E-01 0.36558141E+02</pdfrwt>
<pdfrwt beam="1">  1       -2 0.62499199E-01 0.51830407E+02</pdfrwt>
<totfact> 0.68302433E+02</totfact>
</mgrwt>
</event>
<event>
 5    1  0.9399923E-003  0.8991449E+02  0.7546771E-02  0.1392557E+00
          2   -1    0    0  502    0  0.00000000000E+00  0.00000000000E+00  0.20084072600E+04  0.20084072600E+04  0.00000000000E+00 0. -1.
          1   -1    0    0  501    0 -0.00000000000E+00 -0.00000000000E+00 -0.41047315798E+03  0.41047315798E+03  0.00000000000E+00 0. -1.
         25    1    1    2    0    0 -0.79977263011E+02 -0.27389513286E+02  0.42650251669E+03  0.45241125625E+03  0.12500000000E+03 0.  0.
          2    1    1    2  501    0  0.62194741654E+02  0.65171813320E+02 -0.39213257202E+03  0.40234749307E+03  0.00000000000E+00 0. -1.
          1    1    1    2  502    0  0.17782521357E+02 -0.37782300034E+02  0.15635641573E+04  0.15641216686E+04  0.00000000000E+00 0. -1.
<mgrwt>
<rscale>  0 0.61275103E+02</rscale>
<asrwt>0</asrwt>
<pdfrwt beam="1">  1        2 0.30898573E+00 0.41757877E+02</pdfrwt>
<pdfrwt beam="2">  1        1 0.63149718E-01 0.89914491E+02</pdfrwt>
<totfact> 0.73670342E+01</totfact>
</mgrwt>
</event>
<event>
 5    1  0.9399923E-003  0.7719142E+02  0.7546771E-02  0.1357983E+00
          2   -1    0    0  502    0  0.00000000000E+00  0.00000000000E+00  0.20689247200E+03  0.20689247200E+03  0.00000000000E+00 0. -1.
          1   -1    0    0  501    0 -0.00000000000E+00 -0.00000000000E+00 -0.23466827320E+03  0.23466827320E+03  0.00000000000E+00 0. -1.
         25    1    1    2    0    0 -0.66806083414E+01 -0.48935556187E+02 -0.65534752773E+02  0.14952967267E+03  0.12500000000E+03 0.  0.
          2    1    1    2  501    0  0.69938776426E+02  0.62110392938E+02 -0.10179507850E+03  0.13824388365E+03  0.00000000000E+00 0. -1.
          1    1    1    2  502    0 -0.63258168085E+02 -0.13174836752E+02  0.13955403008E+03  0.15378718888E+03  0.00000000000E+00 0. -1.
<mgrwt>
<rscale>  0 0.70624132E+02</rscale>
<asrwt>0</asrwt>
<pdfrwt beam="1">  1        2 0.31829611E-01 0.64615572E+02</pdfrwt>
<pdfrwt beam="2">  1        1 0.36102811E-01 0.77191425E+02</pdfrwt>
<totfact> 0.25602745E+03</totfact>
</mgrwt>
</event>
<event>
 5    1  0.9399923E-003  0.5188825E+02  0.7546771E-02  0.1456902E+00
          2   -1    0    0  502    0  0.00000000000E+00  0.00000000000E+00  0.40302316590E+03  0.40302316590E+03  0.00000000000E+00 0. -1.
          1   -1    0    0  501    0 -0.00000000000E+00 -0.00000000000E+00 -0.39640338083E+03  0.39640338083E+03  0.00000000000E+00 0. -1.
         25    1    1    2    0    0  0.76399713968E+02  0.14540912741E+01  0.25380194477E+03  0.29305197124E+03  0.12500000000E+03 0.  0.
          2    1    1    2  501    0 -0.42399327153E+02 -0.29778889602E+02 -0.37114793192E+03  0.37474694472E+03  0.00000000000E+00 0. -1.
          1    1    1    2  502    0 -0.34000386816E+02  0.28324798328E+02  0.12396577221E+03  0.13162763078E+03  0.00000000000E+00 0. -1.
<mgrwt>
<rscale>  0 0.47918746E+02</rscale>
<asrwt>0</asrwt>
<pdfrwt beam="1">  1        2 0.62003564E-01 0.44252915E+02</pdfrwt>
<pdfrwt beam="2">  1        1 0.60985135E-01 0.51888247E+02</pdfrwt>
<totfact> 0.68059126E+02</totfact>
</mgrwt>
</event>
<event>
 5    1  0.9399923E-003  0.3735247E+02  0.7546771E-02  0.1591602E+00
          2   -1    0    0  502    0  0.00000000000E+00  0.00000000000E+00  0.19188429770E+03  0.19188429770E+03  0.00000000000E+00 0. -1.
         -2   -1    0    0    0  501 -0.00000000000E+00 -0.00000000000E+00 -0.14821020734E+03  0.14821020734E+03  0.00000000000E+00 0.  1.
         25    1    1    2    0    0  0.38641880425E+02 -0.42303452863E+02 -0.31416761634E+02  0.14104889209E+03  0.12500000000E+03 0.  0.
          1    1    1    2  502    0 -0.15144392625E+02  0.33592376936E+02  0.13190223876E+03  0.13695255020E+03  0.00000000000E+00 0. -1.
         -1    1    1    2    0  501 -0.23497487800E+02  0.87110759273E+01 -0.56811386768E+02  0.62093062762E+02  0.00000000000E+00 0.  1.
<mgrwt>
<rscale>  0 0.30595119E+02</rscale>
<asrwt>0</asrwt>
<pdfrwt beam="1">  1        2 0.29520661E-01 0.37352472E+02</pdfrwt>
<pdfrwt beam="2">  1       -2 0.22801570E-01 0.25060223E+02</pdfrwt>
<totfact> 0.26002954E+03</totfact>
</mgrwt>
</event>
<event>
 5    1  0.9399923E-003  0.9830536E+02  0.7546771E-02  0.1361826E+00
          1   -1    0    0  502    0  0.00000000000E+00  0.00000000000E+00  0.59363180177E+02  0.59363180177E+02  0.00000000000E+00 0. -1.
         -1   -1    0    0    0  501 -0.00000000000E+00 -0.00000000000E+00 -0.48853725449E+03  0.48853725449E+03  0.00000000000E+00 0.  1.
         25    1    1    2    0    0  0.15611915741E+02  0.67180412990E+02 -0.15830910896E+03  0.21317531232E+03  0.12500000000E+03 0.  0.
          2    1    1    2  502    0  0.39037216273E+02  0.29822478077E+02 -0.86889326262E+01  0.49887693905E+02  0.00000000000E+00 0. -1.
         -2    1    1    2    0  501 -0.54649132013E+02 -0.97002891067E+02 -0.26217603272E+03  0.28483742844E+03  0.00000000000E+00 0.  1.
<mgrwt>
<rscale>  0 0.69492945E+02</rscale>
<asrwt>0</asrwt>
<pdfrwt beam="1">  1        1 0.91327971E-02 0.49125192E+02</pdfrwt>
<pdfrwt beam="2">  1       -1 0.75159576E-01 0.98305355E+02</pdfrwt>
<totfact> 0.12405063E+03</totfact>
</mgrwt>
</event>
<event>
 5    1  0.9399923E-003  0.1662545E+03  0.7546771E-02  0.1215134E+00
          1   -1    0    0  501    0 -0.00000000000E+00  0.00000000000E+00  0.46104641236E+03  0.46104641236E+03  0.00000000000E+00 0. -1.
          2   -1    0    0  502    0  0.00000000000E+00 -0.00000000000E+00 -0.41437290488E+04  0.41437290488E+04  0.00000000000E+00 0. -1.
         25    1    1    2    0    0  0.21647854411E+03 -0.14533413603E+03 -0.42084111640E+03  0.51060475557E+03  0.12500000000E+03 0.  0.
          2    1    1    2  501    0 -0.10220993656E+03  0.12746636085E+03  0.39918005926E+03  0.43132269125E+03  0.00000000000E+00 0. -1.
          1    1    1    2  502    0 -0.11426860755E+03  0.17867775179E+02 -0.36610215793E+04  0.36628480144E+04  0.00000000000E+00 0. -1.
<mgrwt>
<rscale>  0 0.13866693E+03</rscale>
<asrwt>0</asrwt>
<pdfrwt beam="2">  1        2 0.63749676E+00 0.11565713E+03</pdfrwt>
<pdfrwt beam="1">  1        1 0.70930219E-01 0.16625449E+03</pdfrwt>
<totfact> 0.28803425E+00</totfact>
</mgrwt>
</event>
<event>
 5    1  0.9399923E-003  0.1232648E+03  0.7546771E-02  0.1304163E+00
          1   -1    0    0  501    0 -0.00000000000E+00  0.00000000000E+00  0.99292105891E+02  0.99292105891E+02  0.00000000000E+00 0. -1.
          2   -1    0    0  502    0  0.00000000000E+00 -0.00000000000E+00 -0.17095849659E+04  0.17095849659E+04  0.00000000000E+00 0. -1.
         25    1    1    2    0    0  0.14263847980E+03  0.68095811619E+02 -0.28340715324E+03  0.34774615740E+03  0.12500000000E+03 0.  0.
          2    1    1    2  501    0 -0.61180751244E+02  0.21736071035E+02  0.48103159204E+02  0.80805043359E+02  0.00000000000E+00 0. -1.
          1    1    1    2  502    0 -0.81457728556E+02 -0.89831882654E+02 -0.13749888660E+04  0.13803258710E+04  0.00000000000E+00 0. -1.
<mgrwt>
<rscale>  0 0.89460809E+02</rscale>
<asrwt>0</asrwt>
<pdfrwt beam="2">  1        2 0.26301307E+00 0.12326477E+03</pdfrwt>
<pdfrwt beam="1">  1        1 0.15275709E-01 0.64927199E+02</pdfrwt>
<totfact> 0.52697573E+02</totfact>
</mgrwt>
</event>
<event>
 5    1  0.9399923E-003  0.1286494E+03  0.7546771E-02  0.1377487E+00
          1   -1    0    0  501    0 -0.00000000000E+00  0.00000000000E+00  0.11981433295E+04  0.11981433295E+04  0.00000000000E+00 0. -1.
          2   -1    0    0  502    0  0.00000000000E+00 -0.00000000000E+00 -0.17590026089E+04  0.17590026089E+04  0.00000000000E+00 0. -1.
         25    1    1    2    0    0  0.55628437091E+02  0.13783189096E+03  0.14921140057E+03  0.24491058622E+03  0.12500000000E+03 0.  0.
          2    1    1    2  501    0  0.13950779122E+02 -0.29874680839E+02  0.99839973643E+03  0.99894401970E+03  0.00000000000E+00 0. -1.
          1    1    1    2  502    0 -0.69579216213E+02 -0.10795721013E+03 -0.17084704164E+04  0.17132913326E+04  0.00000000000E+00 0. -1.
<mgrwt>
<rscale>  0 0.65128843E+02</rscale>
<asrwt>0</asrwt>
<pdfrwt beam="2">  1        2 0.27061579E+00 0.12864942E+03</pdfrwt>
<pdfrwt beam="1">  1        1 0.18432974E+00 0.32971515E+02</pdfrwt>
<totfact> 0.19879897E+01</totfact>
</mgrwt>
</event>
<event>
 5    1  0.9399923E-003  0.9867482E+02  0.7546771E-02  0.1341274E+00
         -2   -1    0    0    0  501 -0.00000000000E+00  0.00000000000E+00  0.43007891158E+03  0.43007891158E+03  0.00000000000E+00 0.  1.
          2   -1    0    0  502    0  0.00000000000E+00 -0.00000000000E+00 -0.73780258004E+03  0.73780258004E+03  0.00000000000E+00 0. -1.
         25    1    1    2    0    0 -0.46636322307E+02  0.51146952254E+02 -0.92319955800E+02  0.17011446594E+03  0.12500000000E+03 0.  0.
          1    1    1    2  502    0 -0.51302866978E+02 -0.27686976634E+02 -0.59866401319E+03  0.60149576351E+03  0.00000000000E+00 0. -1.
         -1    1    1    2    0  501  0.97939189285E+02 -0.23459975620E+02  0.38326030053E+03  0.39627126217E+03  0.00000000000E+00 0.  1.
<mgrwt>
<rscale>  0 0.75844952E+02</rscale>
<asrwt>0</asrwt>
<pdfrwt beam="2">  1        2 0.11350809E+00 0.58297108E+02</pdfrwt>
<pdfrwt beam="1">  1       -2 0.66165986E-01 0.98674820E+02</pdfrwt>
<totfact> 0.91272560E+01</totfact>
</mgrwt>
</event>
<event>
 5    1  0.9399923E-003  0.7540354E+02  0.7546771E-02  0.1507015E+00
          2   -1    0    0  502    0  0.00000000000E+00  0.00000000000E+00  0.11175621182E+04  0.11175621182E+04  0.00000000000E+00 0. -1.
          1   -1    0    0  501    0 -0.00000000000E+00 -0.00000000000E+00 -0.47448720711E+02  0.47448720711E+02  0.00000000000E+00 0. -1.
         25    1    1    2    0    0 -0.55498039702E+02  0.16595609116E+02  0.19309197989E+03  0.23720235949E+03  0.12500000000E+03 0.  0.
          2    1    1    2  501    0 -0.20523193511E+02 -0.60362475787E+01 -0.18936175544E+02  0.28569502987E+02  0.00000000000E+00 0. -1.
          1    1    1    2  502    0  0.76021233213E+02 -0.10559361537E+02  0.89595759316E+03  0.89923897644E+03  0.00000000000E+00 0. -1.
<mgrwt>
<rscale>  0 0.40163017E+02</rscale>
<asrwt>0</asrwt>
<pdfrwt beam="1">  1        2 0.17193261E+00 0.75403539E+02</pdfrwt>
<pdfrwt beam="2">  1        1 0.72998040E-02 0.21392470E+02</pdfrwt>
<totfact> 0.25914585E+03</totfact>
</mgrwt>
</event>
<event>
 5    1  0.9399923E-003  0.6872883E+02  0.7546771E-02  0.1370781E+00
          2   -1    0    0  502    0  0.00000000000E+00  0.00000000000E+00  0.37223251857E+03  0.37223251857E+03  0.00000000000E+00 0. -1.
          1   -1    0    0  501    0 -0.00000000000E+00 -0.00000000000E+00 -0.15089522674E+04  0.15089522674E+04  0.00000000000E+00 0. -1.
         25    1    1    2    0    0 -0.37742305792E+02 -0.53824701642E+01  0.11650028638E+03  0.17507361125E+03  0.12500000000E+03 0.  0.
          2    1    1    2  501    0  0.16475139447E+02  0.67035615118E+02 -0.14741452751E+04  0.14757606500E+04  0.00000000000E+00 0. -1.
          1    1    1    2  502    0  0.21267166344E+02 -0.61653144954E+02  0.22092523987E+03  0.23035052476E+03  0.00000000000E+00 0. -1.
<mgrwt>
<rscale>  0 0.66950463E+02</rscale>
<asrwt>0</asrwt>
<pdfrwt beam="1">  1        2 0.57266543E-01 0.65218116E+02</pdfrwt>
<pdfrwt beam="2">  1        1 0.23214650E+00 0.68728826E+02</pdfrwt>
<totfact> 0.95336049E+01</totfact>
</mgrwt>
</event>
<event>
 5    1  0.9399923E-003  0.2818242E+03  0.7546771E-02  0.1267627E+00
          1   -1    0    0  502    0  0.00000000000E+00  0.00000000000E+00  0.79808424841E+03  0.79808424841E+03  0.00000000000E+00 0. -1.
         -1   -1    0    0    0  501 -0.00000000000E+00 -0.00000000000E+00 -0.25963497423E+03  0.25963497423E+03  0.00000000000E+00 0.  1.
         25    1    1    2    0    0 -0.63721471182E+02 -0.30526019478E+03  0.43966659912E+02  0.33882485090E+03  0.12500000000E+03 0.  0.
          2    1    1    2  502    0  0.40674151113E+02  0.27247402400E+03  0.57017762105E+03  0.63324481827E+03  0.00000000000E+00 0. -1.
         -2    1    1    2    0  501  0.23047320070E+02  0.32786170777E+02 -0.75695006784E+02  0.85649553464E+02  0.00000000000E+00 0.  1.
<mgrwt>
<rscale>  0 0.10627548E+03</rscale>
<asrwt>0</asrwt>
<pdfrwt beam="1">  1        1 0.12278219E+00 0.28182417E+03</pdfrwt>
<pdfrwt beam="2">  1       -1 0.39943843E-01 0.40076327E+02</pdfrwt>
<totfact> 0.14322218E+02</totfact>
</mgrwt>
</event>
<event>
 5    1  0.9399923E-003  0.5316524E+02  0.7546771E-02  0.1468779E+00
          1   -1    0    0  502    0  0.00000000000E+00  0.00000000000E+00  0.50950434134E+03  0.50950434134E+03  0.00000000000E+00 0. -1.
         -1   -1    0    0    0  501 -0.00000000000E+00 -0.00000000000E+00 -0.58986450499E+03  0.58986450499E+03  0.00000000000E+00 0.  1.
         25    1    1    2    0    0 -0.81104351520E+02  0.44213560901E+02  0.10279787475E+03  0.18634687509E+03  0.12500000000E+03 0.  0.
          2    1    1    2  502    0  0.33844551139E+02 -0.20624165413E+02  0.36257700570E+03  0.36473674740E+03  0.00000000000E+00 0. -1.
         -2    1    1    2    0  501  0.47259800381E+02 -0.23589395489E+02 -0.54573504410E+03  0.54828522383E+03  0.00000000000E+00 0.  1.
<mgrwt>
<rscale>  0 0.45903393E+02</rscale>
<asrwt>0</asrwt>
<pdfrwt beam="1">  1        1 0.78385283E-01 0.39633443E+02</pdfrwt>
<pdfrwt beam="2">  1       -1 0.90748385E-01 0.53165238E+02</pdfrwt>
<totfact> 0.61924036E+01</totfact>
</mgrwt>
</event>
<event>
 5    1  0.9399923E-003  0.1657176E+03  0.7546771E-02  0.1241411E+00
          2   -1    0    0  502    0  0.00000000000E+00  0.00000000000E+00  0.83645395628E+03  0.83645395628E+03  0.00000000000E+00 0. -1.
         -2   -1    0    0    0  501 -0.00000000000E+00 -0.00000000000E+00 -0.10573083665E+03  0.10573083665E+03  0.00000000000E+00 0.  1.
         25    1    1    2    0    0  0.21872131267E+01 -0.29596891339E+02  0.76782704033E+02  0.14967078378E+03  0.12500000000E+03 0.  0.
          1    1    1    2  502    0 -0.15634628920E+03 -0.54937734016E+02  0.57748827406E+03  0.60079532575E+03  0.00000000000E+00 0. -1.
         -1    1    1    2    0  501  0.15415907607E+03  0.84534625355E+02  0.76452141540E+02  0.19171868340E+03  0.00000000000E+00 0.  1.
<mgrwt>
<rscale>  0 0.12102803E+03</rscale>
<asrwt>0</asrwt>
<pdfrwt beam="1">  1        2 0.12868522E+00 0.16571758E+03</pdfrwt>
<pdfrwt beam="2">  1       -2 0.16266283E-01 0.88390035E+02</pdfrwt>
<totfact> 0.97676953E+02</totfact>
</mgrwt>
</event>
<event>
 5    1  0.9399923E-003  0.8119256E+02  0.7546771E-02  0.1334492E+00
         -1   -1    0    0    0  501 -0.00000000000E+00  0.00000000000E+00  0.15841388527E+03  0.15841388527E+03  0.00000000000E+00 0.  1.
          1   -1    0    0  502    0  0.00000000000E+00 -0.00000000000E+00 -0.86258831819E+03  0.86258831819E+03  0.00000000000E+00 0. -1.
         25    1    1    2    0    0 -0.51750886647E+01 -0.36958653924E+02 -0.13835993203E+03  0.19016096979E+03  0.12500000000E+03 0.  0.
          2    1    1    2  502    0 -0.75030349042E+02  0.42639032772E+01 -0.68188649143E+03  0.68601524862E+03  0.00000000000E+00 0. -1.
         -2    1    1    2    0  501  0.80205437707E+02  0.32694750647E+02  0.11607199054E+03  0.14482598505E+03  0.00000000000E+00 0.  1.
<mgrwt>
<rscale>  0 0.78113603E+02</rscale>
<asrwt>0</asrwt>
<pdfrwt beam="2">  1        1 0.13270590E+00 0.75151408E+02</pdfrwt>
<pdfrwt beam="1">  1       -1 0.24371367E-01 0.81192556E+02</pdfrwt>
<totfact> 0.31184340E+02</totfact>
</mgrwt>
</event>
<event>
 5    1  0.9805857E-003  0.7830762E+02  0.7546771E-02  0.1353075E+00
          1   -1    0    0  501    0 -0.00000000000E+00  0.00000000000E+00  0.64464025544E+03  0.64464025544E+03  0.00000000000E+00 0. -1.
          2   -1    0    0  502    0  0.00000000000E+00 -0.00000000000E+00 -0.13647827355E+04  0.13647827355E+04  0.00000000000E+00 0. -1.
         25    1    1    2    0    0 -0.57248018457E+02  0.97277668981E+02  0.26901343973E+03  0.31738543012E+03  0.12500000000E+03 0.  0.
          2    1    1    2  501    0  0.68185539392E+02 -0.31789417785E+02  0.34658061927E+03  0.35465188639E+03  0.00000000000E+00 0. -1.
          1    1    1    2  502    0 -0.10937520935E+02 -0.65488251195E+02 -0.13357365390E+04  0.13373856744E+04  0.00000000000E+00 0. -1.
<mgrwt>
<rscale>  0 0.72105900E+02</rscale>
<asrwt>0</asrwt>
<pdfrwt beam="2">  1        2 0.20996657E+00 0.66395334E+02</pdfrwt>
<pdfrwt beam="1">  1        1 0.99175424E-01 0.78307623E+02</pdfrwt>
<totfact> 0.81707153E+01</totfact>
</mgrwt>
</event>
<event>
 5    1  0.9399923E-003  0.2142160E+03  0.7546771E-02  0.1207405E+00
          2   -1    0    0  502    0  0.00000000000E+00  0.00000000000E+00  0.18535285127E+04  0.18535285127E+04  0.00000000000E+00 0. -1.
          1   -1    0    0  501    0 -0.00000000000E+00 -0.00000000000E+00 -0.21961836989E+03  0.21961836989E+03  0.00000000000E+00 0. -1.
         25    1    1    2    0    0 -0.26221867989E+02 -0.18507357244E+03  0.21505958677E+03  0.31115179485E+03  0.12500000000E+03 0.  0.
          2    1    1    2  501    0  0.12359416974E+03  0.18934914606E+03 -0.94817939842E+02  0.24519188327E+03  0.00000000000E+00 0. -1.
          1    1    1    2  502    0 -0.97372301749E+02 -0.42755736222E+01  0.15136684959E+04  0.15168032045E+04  0.00000000000E+00 0. -1.
<mgrwt>
<rscale>  0 0.14449500E+03</rscale>
<asrwt>0</asrwt>
<pdfrwt beam="1">  1        2 0.28515822E+00 0.97466126E+02</pdfrwt>
<pdfrwt beam="2">  1        1 0.33787443E-01 0.21421602E+03</pdfrwt>
<totfact> 0.17364264E+02</totfact>
</mgrwt>
</event>
<event>
 5    1  0.9399923E-003  0.1448088E+03  0.7546771E-02  0.1384417E+00
          2   -1    0    0  502    0  0.00000000000E+00  0.00000000000E+00  0.10174105736E+03  0.10174105736E+03  0.00000000000E+00 0. -1.
          1   -1    0    0  501    0 -0.00000000000E+00 -0.00000000000E+00 -0.14837431233E+04  0.14837431233E+04  0.00000000000E+00 0. -1.
         25    1    1    2    0    0  0.12370604631E+03 -0.70095850063E+01 -0.40391360823E+03  0.44059451096E+03  0.12500000000E+03 0.  0.
          2    1    1    2  501    0 -0.15095309023E+03  0.21044642468E+01 -0.10536528924E+04  0.10644133041E+04  0.00000000000E+00 0. -1.
          1    1    1    2  502    0  0.27247043923E+02  0.49051207595E+01  0.75564434766E+02  0.80476365560E+02  0.00000000000E+00 0. -1.
<mgrwt>
<rscale>  0 0.63316960E+02</rscale>
<asrwt>0</asrwt>
<pdfrwt beam="1">  1        2 0.15652471E-01 0.27685043E+02</pdfrwt>
<pdfrwt beam="2">  1        1 0.22826817E+00 0.14480878E+03</pdfrwt>
<totfact> 0.34957879E+02</totfact>
</mgrwt>
</event>
<event>
 5    1  0.9399923E-003  0.5033932E+02  0.7546771E-02  0.1458159E+00
         -1   -1    0    0    0  501 -0.00000000000E+00  0.00000000000E+00  0.18089280286E+02  0.18089280286E+02  0.00000000000E+00 0.  1.
          1   -1    0    0  502    0  0.00000000000E+00 -0.00000000000E+00 -0.16564789081E+04  0.16564789081E+04  0.00000000000E+00 0. -1.
         25    1    1    2    0    0 -0.30674500196E+02  0.32646409862E+02 -0.72561772679E+03  0.73766713256E+03  0.12500000000E+03 0.  0.
          2    1    1    2  502    0 -0.21061369594E+02 -0.39991442838E+02 -0.86475396342E+03  0.86593435897E+03  0.00000000000E+00 0. -1.
         -2    1    1    2    0  501  0.51735869790E+02  0.73450329756E+01 -0.48017937653E+02  0.70966696899E+02  0.00000000000E+00 0.  1.
<mgrwt>
<rscale>  0 0.47699660E+02</rscale>
<asrwt>0</asrwt>
<pdfrwt beam="2">  1        1 0.25484287E+00 0.45198416E+02</pdfrwt>
<pdfrwt beam="1">  1       -1 0.27829667E-02 0.50339321E+02</pdfrwt>
<totfact> 0.23634976E+03</totfact>
</mgrwt>
</event>
<event>
 5    1  0.9399923E-003  0.1209505E+03  0.7546771E-02  0.1440653E+00
         -1   -1    0    0    0  502 -0.00000000000E+00  0.00000000000E+00  0.69462105267E+02  0.69462105267E+02  0.00000000000E+00 0.  1.
         -2   -1    0    0    0  501  0.00000000000E+00 -0.00000000000E+00 -0.12077812522E+04  0.12077812522E+04  0.00000000000E+00 0.  1.
         25    1    1    2    0    0  0.11910287465E+03  0.23409297085E+02 -0.84086309470E+03  0.85872535421E+03  0.12500000000E+03 0.  0.
         -2    1    1    2    0  502  0.23437653602E+01 -0.21274718919E+02  0.47878345539E+02  0.52444664864E+02  0.00000000000E+00 0.  1.
         -1    1    1    2    0  501 -0.12144664001E+03 -0.21345781663E+01 -0.34533439775E+03  0.36607333836E+03  0.00000000000E+00 0.  1.
<mgrwt>
<rscale>  0 0.50879812E+02</rscale>
<asrwt>0</asrwt>
<pdfrwt beam="2">  1       -2 0.18581248E+00 0.12095047E+03</pdfrwt>
<pdfrwt beam="1">  1       -1 0.10686479E-01 0.21403432E+02</pdfrwt>
<totfact> 0.63696413E+01</totfact>
</mgrwt>
</event>
<event>
 5    1  0.9399923E-003  0.7690091E+02  0.7546771E-02  0.1389481E+00
          1   -1    0    0  501    0 -0.00000000000E+00  0.00000000000E+00  0.17276593352E+04  0.17276593352E+04  0.00000000000E+00 0. -1.
          2   -1    0    0  502    0  0.00000000000E+00 -0.00000000000E+00 -0.56516345594E+03  0.56516345594E+03  0.00000000000E+00 0. -1.
         25    1    1    2    0    0 -0.57314114113E+02 -0.66035679871E+02  0.75213192747E+02  0.17008128367E+03  0.12500000000E+03 0.  0.
          2    1    1    2  501    0  0.74593762667E+02  0.19069288686E+02  0.16028765679E+04  0.16047246365E+04  0.00000000000E+00 0. -1.
          1    1    1    2  502    0 -0.17279648554E+02  0.46966391185E+02 -0.51559388133E+03  0.51801687098E+03  0.00000000000E+00 0. -1.
<mgrwt>
<rscale>  0 0.62035870E+02</rscale>
<asrwt>0</asrwt>
<pdfrwt beam="2">  1        2 0.86948225E-01 0.50044262E+02</pdfrwt>
<pdfrwt beam="1">  1        1 0.26579374E+00 0.76900908E+02</pdfrwt>
<totfact> 0.44434746E+01</totfact>
</mgrwt>
</event>
<event>
 5    1  0.9399923E-003  0.1482489E+03  0.7546771E-02  0.1382601E+00
         -2   -1    0    0    0  501 -0.00000000000E+00  0.00000000000E+00  0.68809009112E+03  0.68809009112E+03  0.00000000000E+00 0.  1.
          2   -1    0    0  502    0  0.00000000000E+00 -0.00000000000E+00 -0.21094241410E+04  0.21094241410E+04  0.00000000000E+00 0. -1.
         25    1    1    2    0    0 -0.13203373165E+03  0.68885961227E+02 -0.14735452016E+03  0.24396011264E+03  0.12500000000E+03 0.  0.
          1    1    1    2  502    0 -0.98414404260E+01 -0.25618715943E+02 -0.19050698147E+04  0.19052674802E+04  0.00000000000E+00 0. -1.
         -1    1    1    2    0  501  0.14187517208E+03 -0.43267245284E+02  0.63109028490E+03  0.64828663928E+03  0.00000000000E+00 0.  1.
<mgrwt>
<rscale>  0 0.63785108E+02</rscale>
<asrwt>0</asrwt>
<pdfrwt beam="2">  1        2 0.32452679E+00 0.27443989E+02</pdfrwt>
<pdfrwt beam="1">  1       -2 0.10586001E+00 0.14824886E+03</pdfrwt>
<totfact> 0.66328782E+00</totfact>
</mgrwt>
</event>
<event>
 5    1  0.9399923E-003  0.1347791E+03  0.7546771E-02  0.1248537E+00
          1   -1    0    0  501    0 -0.00000000000E+00  0.00000000000E+00  0.14056622346E+03  0.14056622346E+03  0.00000000000E+00 0. -1.
          2   -1    0    0  502    0  0.00000000000E+00 -0.00000000000E+00 -0.19322699325E+04  0.19322699325E+04  0.00000000000E+00 0. -1.
         25    1    1    2    0    0 -0.15378613277E+03  0.28780826446E+01 -0.13720160003E+03  0.24105546466E+03  0.12500000000E+03 0.  0.
          2    1    1    2  501    0  0.10331078543E+03 -0.90537234012E+02  0.32978016803E+02  0.14127157790E+03  0.00000000000E+00 0. -1.
          1    1    1    2  502    0  0.50475347334E+02  0.87659151368E+02 -0.16874801258E+04  0.16905091134E+04  0.00000000000E+00 0. -1.
<mgrwt>
<rscale>  0 0.11676164E+03</rscale>
<asrwt>0</asrwt>
<pdfrwt beam="2">  1        2 0.29727229E+00 0.10115279E+03</pdfrwt>
<pdfrwt beam="1">  1        1 0.21625573E-01 0.13477907E+03</pdfrwt>
<totfact> 0.27468813E+02</totfact>
</mgrwt>
</event>
<event>
 5    1  0.9399923E-003  0.2072032E+03  0.7546771E-02  0.1335166E+00
          1   -1    0    0  501    0 -0.00000000000E+00  0.00000000000E+00  0.19461330732E+03  0.19461330732E+03  0.00000000000E+00 0. -1.
          2   -1    0    0  502    0  0.00000000000E+00 -0.00000000000E+00 -0.16356338683E+04  0.16356338683E+04  0.00000000000E+00 0. -1.
         25    1    1    2    0    0 -0.18350181406E+03 -0.34342814739E+01 -0.62837330546E+03  0.66645534064E+03  0.12500000000E+03 0.  0.
          2    1    1    2  501    0  0.20873088593E+03  0.18284681795E+02  0.11274427386E+03  0.23793735230E+03  0.00000000000E+00 0. -1.
          1    1    1    2  502    0 -0.25229071870E+02 -0.14850400321E+02 -0.92539152941E+03  0.92585448271E+03  0.00000000000E+00 0. -1.
<mgrwt>
<rscale>  0 0.77884048E+02</rscale>
<asrwt>0</asrwt>
<pdfrwt beam="2">  1        2 0.25163597E+00 0.29275253E+02</pdfrwt>
<pdfrwt beam="1">  1        1 0.29940510E-01 0.20720316E+03</pdfrwt>
<totfact> 0.29173828E+02</totfact>
</mgrwt>
</event>
<event>
 5    1  0.9399923E-003  0.4140123E+02  0.7546771E-02  0.1520322E+00
          2   -1    0    0  502    0  0.00000000000E+00  0.00000000000E+00  0.16724714345E+04  0.16724714345E+04  0.00000000000E+00 0. -1.
          1   -1    0    0  501    0 -0.00000000000E+00 -0.00000000000E+00 -0.14907344768E+03  0.14907344768E+03  0.00000000000E+00 0. -1.
         25    1    1    2    0    0  0.97943811478E+01 -0.32593221745E+02 -0.62464380520E+01  0.12970067846E+03  0.12500000000E+03 0.  0.
          2    1    1    2  501    0  0.25754062182E+02  0.34811353835E+02 -0.75107937682E+02  0.86696622642E+02  0.00000000000E+00 0. -1.
          1    1    1    2  502    0 -0.35548443330E+02 -0.22181320901E+01  0.16047523625E+04  0.16051475811E+04  0.00000000000E+00 0. -1.
<mgrwt>
<rscale>  0 0.38400672E+02</rscale>
<asrwt>0</asrwt>
<pdfrwt beam="1">  1        2 0.25730328E+00 0.35617579E+02</pdfrwt>
<pdfrwt beam="2">  1        1 0.22934378E-01 0.41401231E+02</pdfrwt>
<totfact> 0.36705420E+02</totfact>
</mgrwt>
</event>
<event>
 5    1  0.9399923E-003  0.4724645E+02  0.7546771E-02  0.1507574E+00
          2   -1    0    0  502    0  0.00000000000E+00  0.00000000000E+00  0.66420471859E+03  0.66420471859E+03  0.00000000000E+00 0. -1.
          1   -1    0    0  501    0 -0.00000000000E+00 -0.00000000000E+00 -0.40237275609E+03  0.40237275609E+03  0.00000000000E+00 0. -1.
         25    1    1    2    0    0  0.61765462909E+02  0.49170442907E+02 -0.46924034507E+02  0.15511147565E+03  0.12500000000E+03 0.  0.
          2    1    1    2  501    0 -0.31318093641E+02 -0.34012130577E+02 -0.29910343241E+03  0.30265576369E+03  0.00000000000E+00 0. -1.
          1    1    1    2  502    0 -0.30447369268E+02 -0.15158312330E+02  0.60785942942E+03  0.60881023535E+03  0.00000000000E+00 0. -1.
<mgrwt>
<rscale>  0 0.40086739E+02</rscale>
<asrwt>0</asrwt>
<pdfrwt beam="1">  1        2 0.10218534E+00 0.34012009E+02</pdfrwt>
<pdfrwt beam="2">  1        1 0.61903501E-01 0.47246451E+02</pdfrwt>
<totfact> 0.39742045E+02</totfact>
</mgrwt>
</event>
<event>
 5    1  0.9399923E-003  0.8858829E+02  0.7546771E-02  0.1475301E+00
          2   -1    0    0  502    0  0.00000000000E+00  0.00000000000E+00  0.11768992780E+04  0.11768992780E+04  0.00000000000E+00 0. -1.
         -2   -1    0    0    0  501 -0.00000000000E+00 -0.00000000000E+00 -0.19367929334E+03  0.19367929334E+03  0.00000000000E+00 0.  1.
         25    1    1    2    0    0  0.90922123318E+02 -0.22883631352E+02  0.66552967018E+02  0.16983754153E+03  0.12500000000E+03 0.  0.
          1    1    1    2  502    0 -0.13008186213E+02 -0.18606911349E+02  0.10448539774E+04  0.10451006000E+04  0.00000000000E+00 0. -1.
         -1    1    1    2    0  501 -0.77913937105E+02  0.41490542701E+02 -0.12818695978E+03  0.15564042979E+03  0.00000000000E+00 0.  1.
<mgrwt>
<rscale>  0 0.44846712E+02</rscale>
<asrwt>0</asrwt>
<pdfrwt beam="1">  1        2 0.18106142E+00 0.22703085E+02</pdfrwt>
<pdfrwt beam="2">  1       -2 0.29796815E-01 0.88588295E+02</pdfrwt>
<totfact> 0.24711044E+02</totfact>
</mgrwt>
</event>
<event>
 5    1  0.9399923E-003  0.1215052E+03  0.7546771E-02  0.1258859E+00
         -1   -1    0    0    0  502 -0.00000000000E+00  0.00000000000E+00  0.56324940453E+03  0.56324940453E+03  0.00000000000E+00 0.  1.
         -2   -1    0    0    0  501  0.00000000000E+00 -0.00000000000E+00 -0.10797608950E+03  0.10797608950E+03  0.00000000000E+00 0.  1.
         25    1    1    2    0    0 -0.10579407922E+03 -0.26975190486E+02  0.80603585176E+02  0.18450470466E+03  0.12500000000E+03 0.  0.
         -2    1    1    2    0  502  0.59603097380E+02  0.11710089011E+03  0.36144525818E+03  0.38458786037E+03  0.00000000000E+00 0.  1.
         -1    1    1    2    0  501  0.46190981837E+02 -0.90125699621E+02  0.13224471677E+02  0.10213292900E+03  0.00000000000E+00 0.  1.
<mgrwt>
<rscale>  0 0.11092884E+03</rscale>
<asrwt>0</asrwt>
<pdfrwt beam="2">  1       -2 0.16611706E-01 0.10127314E+03</pdfrwt>
<pdfrwt beam="1">  1       -1 0.86653753E-01 0.12150515E+03</pdfrwt>
<totfact> 0.29180117E+02</totfact>
</mgrwt>
</event>
<event>
 5    1  0.9399923E-003  0.4667136E+02  0.7546771E-02  0.1514375E+00
          2   -1    0    0  502    0  0.00000000000E+00  0.00000000000E+00  0.30993583177E+03  0.30993583177E+03  0.00000000000E+00 0. -1.
          1   -1    0    0  501    0 -0.00000000000E+00 -0.00000000000E+00 -0.59667678478E+03  0.59667678478E+03  0.00000000000E+00 0. -1.
         25    1    1    2    0    0  0.66696384769E+02  0.10074157883E+02  0.15052515086E+03  0.20696066641E+03  0.12500000000E+03 0.  0.
          2    1    1    2  501    0 -0.29509029920E+02  0.14506853608E+02 -0.56417980124E+03  0.56513722207E+03  0.00000000000E+00 0. -1.
          1    1    1    2  502    0 -0.37187354850E+02 -0.24581011492E+02  0.12691369737E+03  0.13451472807E+03  0.00000000000E+00 0. -1.
<mgrwt>
<rscale>  0 0.39174630E+02</rscale>
<asrwt>0</asrwt>
<pdfrwt beam="1">  1        2 0.47682436E-01 0.46671356E+02</pdfrwt>
<pdfrwt beam="2">  1        1 0.91796428E-01 0.32882087E+02</pdfrwt>
<totfact> 0.54093598E+02</totfact>
</mgrwt>
</event>
<event>
 5    1  0.9399923E-003  0.1104821E+03  0.7546771E-02  0.1278880E+00
         -2   -1    0    0    0  501 -0.00000000000E+00  0.00000000000E+00  0.53686780410E+03  0.53686780410E+03  0.00000000000E+00 0.  1.
          2   -1    0    0  502    0  0.00000000000E+00 -0.00000000000E+00 -0.10040178542E+04  0.10040178542E+04  0.00000000000E+00 0. -1.
         25    1    1    2    0    0  0.33680490158E+02 -0.49080611991E+01 -0.47690276179E+02  0.13805008846E+03  0.12500000000E+03 0.  0.
          1    1    1    2  502    0  0.48736052375E+02 -0.77725005700E+02 -0.90186220203E+03  0.90651630474E+03  0.00000000000E+00 0. -1.
         -1    1    1    2    0  501 -0.82416542533E+02  0.82633066899E+02  0.48240242812E+03  0.49631926508E+03  0.00000000000E+00 0.  1.
<mgrwt>
<rscale>  0 0.10067629E+03</rscale>
<asrwt>0</asrwt>
<pdfrwt beam="2">  1        2 0.15446428E+00 0.91740827E+02</pdfrwt>
<pdfrwt beam="1">  1       -2 0.82595048E-01 0.11048206E+03</pdfrwt>
<totfact> 0.37852093E+01</totfact>
</mgrwt>
</event>
<event>
 5    1  0.9399923E-003  0.1137708E+03  0.7546771E-02  0.1441594E+00
          1   -1    0    0  502    0  0.00000000000E+00  0.00000000000E+00  0.94836697041E+03  0.94836697041E+03  0.00000000000E+00 0. -1.
         -1   -1    0    0    0  501 -0.00000000000E+00 -0.00000000000E+00 -0.35736760043E+02  0.35736760043E+02  0.00000000000E+00 0.  1.
         25    1    1    2    0    0  0.84420264179E+01 -0.94670720064E+02  0.22467802488E+03  0.27411499030E+03  0.12500000000E+03 0.  0.
          2    1    1    2  502    0 -0.10737138867E+02  0.11714887052E+03  0.67226899328E+03  0.68248424402E+03  0.00000000000E+00 0. -1.
         -2    1    1    2    0  501  0.22951124490E+01 -0.22478150460E+02  0.15683192216E+02  0.27504496129E+02  0.00000000000E+00 0.  1.
<mgrwt>
<rscale>  0 0.50701605E+02</rscale>
<asrwt>0</asrwt>
<pdfrwt beam="1">  1        1 0.14590259E+00 0.11377078E+03</pdfrwt>
<pdfrwt beam="2">  1       -1 0.54979638E-02 0.22595017E+02</pdfrwt>
<totfact> 0.21952262E+03</totfact>
</mgrwt>
</event>
<event>
 5    1  0.9399923E-003  0.1404277E+03  0.7546771E-02  0.1234020E+00
          2   -1    0    0  502    0  0.00000000000E+00  0.00000000000E+00  0.29495048754E+04  0.29495048754E+04  0.00000000000E+00 0. -1.
          1   -1    0    0  501    0 -0.00000000000E+00 -0.00000000000E+00 -0.65805652871E+02  0.65805652871E+02  0.00000000000E+00 0. -1.
         25    1    1    2    0    0 -0.20942638979E+02 -0.31112844638E+02  0.15611251411E+04  0.15665705568E+04  0.12500000000E+03 0.  0.
          2    1    1    2  501    0  0.30533328842E+02  0.14317335745E+03  0.27699939245E+02  0.14899054026E+03  0.00000000000E+00 0. -1.
          1    1    1    2  502    0 -0.95906898632E+01 -0.11206051281E+03  0.12948741422E+04  0.12997494312E+04  0.00000000000E+00 0. -1.
<mgrwt>
<rscale>  0 0.12567390E+03</rscale>
<asrwt>0</asrwt>
<pdfrwt beam="1">  1        2 0.45376988E+00 0.11247017E+03</pdfrwt>
<pdfrwt beam="2">  1        1 0.10123949E-01 0.14042772E+03</pdfrwt>
<totfact> 0.21033659E+02</totfact>
</mgrwt>
</event>
<event>
 5    1  0.9399923E-003  0.1164125E+03  0.7546771E-02  0.1436767E+00
          1   -1    0    0  502    0  0.00000000000E+00  0.00000000000E+00  0.16811547606E+04  0.16811547606E+04  0.00000000000E+00 0. -1.
         -1   -1    0    0    0  501 -0.00000000000E+00 -0.00000000000E+00 -0.69556778431E+03  0.69556778431E+03  0.00000000000E+00 0.  1.
         25    1    1    2    0    0  0.34686557963E+02  0.12516393005E+03 -0.11343550649E+03  0.21298305290E+03  0.12500000000E+03 0.  0.
          2    1    1    2  502    0 -0.13970731218E+02 -0.11541729739E+03  0.16290622679E+04  0.16332055004E+04  0.00000000000E+00 0. -1.
         -2    1    1    2    0  501 -0.20715826746E+02 -0.97466326644E+01 -0.53003978518E+03  0.53053399156E+03  0.00000000000E+00 0.  1.
<mgrwt>
<rscale>  0 0.51625244E+02</rscale>
<asrwt>0</asrwt>
<pdfrwt beam="1">  1        1 0.25863919E+00 0.11641250E+03</pdfrwt>
<pdfrwt beam="2">  1       -1 0.10701043E+00 0.22894155E+02</pdfrwt>
<totfact> 0.58336705E+00</totfact>
</mgrwt>
</event>
<event>
 5    1  0.9399923E-003  0.5637936E+02  0.7546771E-02  0.1416173E+00
         -2   -1    0    0    0  501 -0.00000000000E+00  0.00000000000E+00  0.25322454427E+02  0.25322454427E+02  0.00000000000E+00 0.  1.
          2   -1    0    0  502    0  0.00000000000E+00 -0.00000000000E+00 -0.27916672812E+04  0.27916672812E+04  0.00000000000E+00 0. -1.
         25    1    1    2    0    0 -0.87302741910E+01 -0.14841495621E+01 -0.69588946312E+03  0.70708243174E+03  0.12500000000E+03 0.  0.
          1    1    1    2  502    0  0.13832953807E+02  0.57632121594E+02 -0.20485731302E+04  0.20494303310E+04  0.00000000000E+00 0. -1.
         -1    1    1    2    0  501 -0.51026796157E+01 -0.56147972032E+02 -0.21882233444E+02  0.60476972833E+02  0.00000000000E+00 0.  1.
<mgrwt>
<rscale>  0 0.55838819E+02</rscale>
<asrwt>0</asrwt>
<pdfrwt beam="2">  1        2 0.42948733E+00 0.55303462E+02</pdfrwt>
<pdfrwt beam="1">  1       -2 0.38957617E-02 0.56379359E+02</pdfrwt>
<totfact> 0.85068413E+02</totfact>
</mgrwt>
</event>
<event>
 5    1  0.9399923E-003  0.5476298E+02  0.7546771E-02  0.1490476E+00
          1   -1    0    0  501    0 -0.00000000000E+00  0.00000000000E+00  0.22112722790E+03  0.22112722790E+03  0.00000000000E+00 0. -1.
          2   -1    0    0  502    0  0.00000000000E+00 -0.00000000000E+00 -0.14048935534E+03  0.14048935534E+03  0.00000000000E+00 0. -1.
         25    1    1    2    0    0  0.28363216034E+02  0.77902858063E+02  0.41103152398E+02  0.15552426324E+03  0.12500000000E+03 0.  0.
          2    1    1    2  501    0 -0.26286910796E+02 -0.44961233269E+02  0.11361935184E+03  0.12498748453E+03  0.00000000000E+00 0. -1.
          1    1    1    2  502    0 -0.20763052385E+01 -0.32941624794E+02 -0.74084631679E+02  0.81104835482E+02  0.00000000000E+00 0. -1.
<mgrwt>
<rscale>  0 0.42515426E+02</rscale>
<asrwt>0</asrwt>
<pdfrwt beam="2">  1        2 0.21613747E-01 0.33006995E+02</pdfrwt>
<pdfrwt beam="1">  1        1 0.34019573E-01 0.54762981E+02</pdfrwt>
<totfact> 0.40221577E+03</totfact>
</mgrwt>
</event>
<event>
 5    1  0.9399923E-003  0.9732797E+02  0.7546771E-02  0.1438125E+00
          2   -1    0    0  502    0  0.00000000000E+00  0.00000000000E+00  0.91838249509E+03  0.91838249509E+03  0.00000000000E+00 0. -1.
          1   -1    0    0  501    0 -0.00000000000E+00 -0.00000000000E+00 -0.26714636182E+02  0.26714636182E+02  0.00000000000E+00 0. -1.
         25    1    1    2    0    0  0.46070209767E+02  0.70426605758E+02  0.50969302905E+03  0.53150198014E+03  0.12500000000E+03 0.  0.
          2    1    1    2  501    0  0.25550045475E+02  0.90516662735E+01  0.14251416909E+02  0.30624179499E+02  0.00000000000E+00 0. -1.
          1    1    1    2  502    0 -0.71620255242E+02 -0.79478272031E+02  0.36772341295E+03  0.38297097164E+03  0.00000000000E+00 0. -1.
<mgrwt>
<rscale>  0 0.51363176E+02</rscale>
<asrwt>0</asrwt>
<pdfrwt beam="1">  1        2 0.14128959E+00 0.97327966E+02</pdfrwt>
<pdfrwt beam="2">  1        1 0.41099447E-02 0.27106042E+02</pdfrwt>
<totfact> 0.71819624E+03</totfact>
</mgrwt>
</event>
<event>
 5    1  0.9399923E-003  0.9129832E+02  0.7546771E-02  0.1368330E+00
          2   -1    0    0  502    0  0.00000000000E+00  0.00000000000E+00  0.13816888092E+04  0.13816888092E+04  0.00000000000E+00 0. -1.
          1   -1    0    0  501    0 -0.00000000000E+00 -0.00000000000E+00 -0.24068854496E+03  0.24068854496E+03  0.00000000000E+00 0. -1.
         25    1    1    2    0    0 -0.99694519172E+02  0.18268566131E+02  0.67168496480E+03  0.69069416503E+03  0.12500000000E+03 0.  0.
          2    1    1    2  501    0  0.13507408814E+02 -0.48247876901E+02 -0.22545031809E+03  0.23095054372E+03  0.00000000000E+00 0. -1.
          1    1    1    2  502    0  0.86187110357E+02  0.29979310771E+02  0.69476561750E+03  0.70073264540E+03  0.00000000000E+00 0. -1.
<mgrwt>
<rscale>  0 0.67633698E+02</rscale>
<asrwt>0</asrwt>
<pdfrwt beam="1">  1        2 0.21256750E+00 0.91298321E+02</pdfrwt>
<pdfrwt beam="2">  1        1 0.37029008E-01 0.50102971E+02</pdfrwt>
<totfact> 0.26673941E+02</totfact>
</mgrwt>
</event>
<event>
 5    1  0.9399923E-003  0.6789220E+02  0.7546771E-02  0.1397149E+00
          2   -1    0    0  502    0  0.00000000000E+00  0.00000000000E+00  0.27039981803E+04  0.27039981803E+04  0.00000000000E+00 0. -1.
         -2   -1    0    0    0  501 -0.00000000000E+00 -0.00000000000E+00 -0.23262417560E+02  0.23262417560E+02  0.00000000000E+00 0.  1.
         25    1    1    2    0    0  0.39999896871E+01  0.11136402106E+03  0.48310486897E+03  0.51130544641E+03  0.12500000000E+03 0.  0.
          1    1    1    2  502    0  0.62755831063E+01 -0.52943183804E+02  0.21067780677E+04  0.21074525357E+04  0.00000000000E+00 0. -1.
         -1    1    1    2    0  501 -0.10275572793E+02 -0.58420837256E+02  0.90852826069E+02  0.10850261576E+03  0.00000000000E+00 0.  1.
<mgrwt>
<rscale>  0 0.60163052E+02</rscale>
<asrwt>0</asrwt>
<pdfrwt beam="1">  1        2 0.41599947E+00 0.53313822E+02</pdfrwt>
<pdfrwt beam="2">  1       -2 0.35788356E-02 0.67892202E+02</pdfrwt>
<totfact> 0.11017178E+03</totfact>
</mgrwt>
</event>
<event>
 5    1  0.9399923E-003  0.1071548E+03  0.7546771E-02  0.1330964E+00
          1   -1    0    0  501    0 -0.00000000000E+00  0.00000000000E+00  0.13726824915E+04  0.13726824915E+04  0.00000000000E+00 0. -1.
          2   -1    0    0  502    0  0.00000000000E+00 -0.00000000000E+00 -0.20252497529E+04  0.20252497529E+04  0.00000000000E+00 0. -1.
         25    1    1    2    0    0  0.14924133066E+03 -0.26104361097E+02 -0.19120979927E+03  0.27411785747E+03  0.12500000000E+03 0.  0.
          2    1    1    2  501    0 -0.95044255116E+02  0.48729320280E+02  0.13286036987E+04  0.13328899975E+04  0.00000000000E+00 0. -1.
          1    1    1    2  502    0 -0.54197075541E+02 -0.22624959183E+02 -0.17899611608E+04  0.17909243895E+04  0.00000000000E+00 0. -1.
<mgrwt>
<rscale>  0 0.79329693E+02</rscale>
<asrwt>0</asrwt>
<pdfrwt beam="2">  1        2 0.31157689E+00 0.58729990E+02</pdfrwt>
<pdfrwt beam="1">  1        1 0.21118192E+00 0.10715480E+03</pdfrwt>
<totfact> 0.11042270E+01</totfact>
</mgrwt>
</event>
<event>
 5    1  0.9399923E-003  0.7397880E+02  0.7546771E-02  0.1462945E+00
          1   -1    0    0  501    0 -0.00000000000E+00  0.00000000000E+00  0.42075361757E+03  0.42075361757E+03  0.00000000000E+00 0. -1.
          2   -1    0    0  502    0  0.00000000000E+00 -0.00000000000E+00 -0.68302330469E+03  0.68302330469E+03  0.00000000000E+00 0. -1.
         25    1    1    2    0    0  0.38554721680E+02  0.41667755676E+02  0.16622823610E+01  0.13729687400E+03  0.12500000000E+03 0.  0.
          2    1    1    2  501    0 -0.10838534493E+02  0.27657561128E+02  0.34837444868E+03  0.34963862917E+03  0.00000000000E+00 0. -1.
          1    1    1    2  502    0 -0.27716187187E+02 -0.69325316804E+02 -0.61230641817E+03  0.61684141909E+03  0.00000000000E+00 0. -1.
<mgrwt>
<rscale>  0 0.46878294E+02</rscale>
<asrwt>0</asrwt>
<pdfrwt beam="2">  1        2 0.10508051E+00 0.73978798E+02</pdfrwt>
<pdfrwt beam="1">  1        1 0.64731326E-01 0.29705463E+02</pdfrwt>
<totfact> 0.35896152E+02</totfact>
</mgrwt>
</event>
<event>
 5    1  0.9399923E-003  0.1591844E+03  0.7546771E-02  0.1238936E+00
          1   -1    0    0  501    0 -0.00000000000E+00  0.00000000000E+00  0.13758933433E+04  0.13758933433E+04  0.00000000000E+00 0. -1.
          2   -1    0    0  502    0  0.00000000000E+00 -0.00000000000E+00 -0.14930197026E+03  0.14930197026E+03  0.00000000000E+00 0. -1.
         25    1    1    2    0    0  0.17165104791E+03 -0.22707782061E+02  0.15532762101E+03  0.26406702835E+03  0.12500000000E+03 0.  0.
          2    1    1    2  501    0 -0.48202832883E+02 -0.81117173478E+02  0.10941476491E+04  0.10982088084E+04  0.00000000000E+00 0. -1.
          1    1    1    2  502    0 -0.12344821502E+03  0.10382495554E+03 -0.22883897000E+02  0.16291947682E+03  0.00000000000E+00 0. -1.
<mgrwt>
<rscale>  0 0.12255769E+03</rscale>
<asrwt>0</asrwt>
<pdfrwt beam="2">  1        2 0.22969535E-01 0.15918442E+03</pdfrwt>
<pdfrwt beam="1">  1        1 0.21167589E+00 0.94358407E+02</pdfrwt>
<totfact> 0.30157221E+02</totfact>
</mgrwt>
</event>
<event>
 5    1  0.9399923E-003  0.1438439E+03  0.7546771E-02  0.1210131E+00
          1   -1    0    0  501    0 -0.00000000000E+00  0.00000000000E+00  0.54388826995E+03  0.54388826995E+03  0.00000000000E+00 0. -1.
          2   -1    0    0  502    0  0.00000000000E+00 -0.00000000000E+00 -0.48955135691E+03  0.48955135691E+03  0.00000000000E+00 0. -1.
         25    1    1    2    0    0  0.13171264879E+03 -0.66033555823E+02  0.19892685195E+03  0.27731848978E+03  0.12500000000E+03 0.  0.
          2    1    1    2  501    0 -0.12104873979E+03 -0.77706385802E+02  0.27615524504E+03  0.31137244445E+03  0.00000000000E+00 0. -1.
          1    1    1    2  502    0 -0.10663909004E+02  0.14373994163E+03 -0.42074518395E+03  0.44474869263E+03  0.00000000000E+00 0. -1.
<mgrwt>
<rscale>  0 0.14240325E+03</rscale>
<asrwt>0</asrwt>
<pdfrwt beam="2">  1        2 0.75315593E-01 0.14097699E+03</pdfrwt>
<pdfrwt beam="1">  1        1 0.83675118E-01 0.14384394E+03</pdfrwt>
<totfact> 0.36055276E+02</totfact>
</mgrwt>
</event>
<event>
 5    1  0.9399923E-003  0.1299635E+03  0.7546771E-02  0.1281000E+00
          1   -1    0    0  502    0  0.00000000000E+00  0.00000000000E+00  0.16338096903E+04  0.16338096903E+04  0.00000000000E+00 0. -1.
         -1   -1    0    0    0  501 -0.00000000000E+00 -0.00000000000E+00 -0.71707554325E+02  0.71707554325E+02  0.00000000000E+00 0.  1.
         25    1    1    2    0    0  0.17318375081E+03 -0.10684495924E+02  0.53257861226E+03  0.57390918117E+03  0.12500000000E+03 0.  0.
          2    1    1    2  502    0 -0.61202049249E+02 -0.45782710932E+02  0.99980465287E+03  0.10027218415E+04  0.00000000000E+00 0. -1.
         -2    1    1    2    0  501 -0.11198170156E+03  0.56467206856E+02  0.29718870852E+02  0.12888622199E+03  0.00000000000E+00 0.  1.
<mgrwt>
<rscale>  0 0.99665836E+02</rscale>
<asrwt>0</asrwt>
<pdfrwt beam="1">  1        1 0.25135531E+00 0.76431325E+02</pdfrwt>
<pdfrwt beam="2">  1       -1 0.11031933E-01 0.12996345E+03</pdfrwt>
<totfact> 0.33454728E+02</totfact>
</mgrwt>
</event>
<event>
 5    1  0.9399923E-003  0.7417215E+02  0.7546771E-02  0.1497950E+00
          2   -1    0    0  502    0  0.00000000000E+00  0.00000000000E+00  0.18019979059E+04  0.18019979059E+04  0.00000000000E+00 0. -1.
          1   -1    0    0  501    0 -0.00000000000E+00 -0.00000000000E+00 -0.47086777281E+02  0.47086777281E+02  0.00000000000E+00 0. -1.
         25    1    1    2    0    0  0.53920689306E+02 -0.73091406048E+01  0.29526040189E+03  0.32521465096E+03  0.12500000000E+03 0.  0.
          2    1    1    2  501    0 -0.76969409125E+02  0.52512421494E+01  0.14457191587E+02  0.78491247116E+02  0.00000000000E+00 0. -1.
          1    1    1    2  502    0  0.23048719819E+02  0.20578984554E+01  0.14451935352E+04  0.14453787851E+04  0.00000000000E+00 0. -1.
<mgrwt>
<rscale>  0 0.41429140E+02</rscale>
<asrwt>0</asrwt>
<pdfrwt beam="1">  1        2 0.27723039E+00 0.23140407E+02</pdfrwt>
<pdfrwt beam="2">  1        1 0.72441210E-02 0.74172145E+02</pdfrwt>
<totfact> 0.14947766E+03</totfact>
</mgrwt>
</event>
<event>
 5    1  0.9399923E-003  0.9436473E+02  0.7546771E-02  0.1331978E+00
         -2   -1    0    0    0  501 -0.00000000000E+00  0.00000000000E+00  0.34212264347E+03  0.34212264347E+03  0.00000000000E+00 0.  1.
          2   -1    0    0  502    0  0.00000000000E+00 -0.00000000000E+00 -0.58016904017E+03  0.58016904017E+03  0.00000000000E+00 0. -1.
         25    1    1    2    0    0  0.73299553886E+02 -0.13983532845E+03  0.14852294644E+02  0.20192160444E+03  0.12500000000E+03 0.  0.
          1    1    1    2  502    0 -0.41504191191E+02  0.81885183779E+02 -0.47749969395E+03  0.48624452586E+03  0.00000000000E+00 0. -1.
         -1    1    1    2    0  501 -0.31795362695E+02  0.57950144673E+02  0.22460100260E+03  0.23412555334E+03  0.00000000000E+00 0.  1.
<mgrwt>
<rscale>  0 0.78977693E+02</rscale>
<asrwt>0</asrwt>
<pdfrwt beam="2">  1        2 0.89256774E-01 0.94364729E+02</pdfrwt>
<pdfrwt beam="1">  1       -2 0.52634254E-01 0.66099655E+02</pdfrwt>
<totfact> 0.18847887E+02</totfact>
</mgrwt>
</event>
<event>
 5    1  0.9399923E-003  0.4858837E+02  0.7546771E-02  0.1505169E+00
          2   -1    0    0  502    0  0.00000000000E+00  0.00000000000E+00  0.17841441504E+04  0.17841441504E+04  0.00000000000E+00 0. -1.
          1   -1    0    0  501    0 -0.00000000000E+00 -0.00000000000E+00 -0.52461609335E+02  0.52461609335E+02  0.00000000000E+00 0. -1.
         25    1    1    2    0    0  0.31140490119E+02  0.25327026965E+02  0.58959777467E+02  0.14391818432E+03  0.12500000000E+03 0.  0.
          2    1    1    2  501    0 -0.24543029654E+02  0.22975423212E+02  0.19739592914E+02  0.38985662811E+02  0.00000000000E+00 0. -1.
          1    1    1    2  502    0 -0.65974604647E+01 -0.48302450176E+02  0.16529831706E+04  0.16537019126E+04  0.00000000000E+00 0. -1.
<mgrwt>
<rscale>  0 0.40416427E+02</rscale>
<asrwt>0</asrwt>
<pdfrwt beam="1">  1        2 0.27448367E+00 0.48588371E+02</pdfrwt>
<pdfrwt beam="2">  1        1 0.80710182E-02 0.33618899E+02</pdfrwt>
<totfact> 0.11370414E+03</totfact>
</mgrwt>
</event>
<event>
 5    1  0.9399923E-003  0.2065019E+03  0.7546771E-02  0.1306886E+00
          1   -1    0    0  501    0 -0.00000000000E+00  0.00000000000E+00  0.95046788170E+03  0.95046788170E+03  0.00000000000E+00 0. -1.
          2   -1    0    0  502    0  0.00000000000E+00 -0.00000000000E+00 -0.10336657737E+04  0.10336657737E+04  0.00000000000E+00 0. -1.
         25    1    1    2    0    0  0.13835827859E+03  0.18727575695E+03  0.69652140436E+03  0.74497133443E+03  0.12500000000E+03 0.  0.
          2    1    1    2  501    0  0.34362230361E+01 -0.37647253068E+02  0.21755017717E+03  0.22081033236E+03  0.00000000000E+00 0. -1.
          1    1    1    2  502    0 -0.14179450163E+03 -0.14962850388E+03 -0.99726947356E+03  0.10183519886E+04  0.00000000000E+00 0. -1.
<mgrwt>
<rscale>  0 0.88354650E+02</rscale>
<asrwt>0</asrwt>
<pdfrwt beam="2">  1        2 0.15902550E+00 0.20650186E+03</pdfrwt>
<pdfrwt beam="1">  1        1 0.14622583E+00 0.37803747E+02</pdfrwt>
<totfact> 0.68702594E+01</totfact>
</mgrwt>
</event>
<event>
 5    1  0.9399923E-003  0.3569535E+02  0.7546771E-02  0.1605125E+00
          1   -1    0    0  502    0  0.00000000000E+00  0.00000000000E+00  0.12127053189E+04  0.12127053189E+04  0.00000000000E+00 0. -1.
         -1   -1    0    0    0  501 -0.00000000000E+00 -0.00000000000E+00 -0.23990144669E+02  0.23990144669E+02  0.00000000000E+00 0.  1.
         25    1    1    2    0    0 -0.51100649771E+02 -0.49582388478E+01  0.46581149996E+03  0.48501671521E+03  0.12500000000E+03 0.  0.
          2    1    1    2  502    0  0.30487698090E+02  0.17580225681E+02  0.72640415223E+03  0.72725618350E+03  0.00000000000E+00 0. -1.
         -2    1    1    2    0  501  0.20612951681E+02 -0.12621986833E+02 -0.35004779478E+01  0.24422564863E+02  0.00000000000E+00 0.  1.
<mgrwt>
<rscale>  0 0.29372964E+02</rscale>
<asrwt>0</asrwt>
<pdfrwt beam="1">  1        1 0.18657000E+00 0.35695354E+02</pdfrwt>
<pdfrwt beam="2">  1       -1 0.36907924E-02 0.24170402E+02</pdfrwt>
<totfact> 0.27634355E+03</totfact>
</mgrwt>
</event>
<event>
 5    1  0.9399923E-003  0.7806773E+02  0.7546771E-02  0.1376307E+00
         -3   -1    0    0    0  501 -0.00000000000E+00  0.00000000000E+00  0.13610261475E+03  0.13610261475E+03  0.00000000000E+00 0.  1.
          1   -1    0    0  502    0  0.00000000000E+00 -0.00000000000E+00 -0.81383887600E+03  0.81383887600E+03  0.00000000000E+00 0. -1.
         25    1    1    2    0    0  0.16025249410E+02  0.41043413353E+02 -0.16074824076E+03  0.20834194802E+03  0.12500000000E+03 0.  0.
          2    1    1    2  502    0  0.54859041011E+02 -0.62996922284E+00 -0.61308466822E+03  0.61553450078E+03  0.00000000000E+00 0. -1.
         -2    1    1    2    0  501 -0.70884290422E+02 -0.40413444130E+02  0.96096647734E+02  0.12606504195E+03  0.00000000000E+00 0.  1.
<mgrwt>
<rscale>  0 0.65444659E+02</rscale>
<asrwt>0</asrwt>
<pdfrwt beam="2">  1        1 0.12520598E+00 0.54862658E+02</pdfrwt>
<pdfrwt beam="1">  1       -3 0.20938864E-01 0.78067734E+02</pdfrwt>
<totfact> 0.25283610E+02</totfact>
</mgrwt>
</event>
<event>
 5    1  0.9399923E-003  0.6157495E+02  0.7546771E-02  0.1408903E+00
          1   -1    0    0  501    0 -0.00000000000E+00  0.00000000000E+00  0.19446422791E+03  0.19446422791E+03  0.00000000000E+00 0. -1.
          2   -1    0    0  502    0  0.00000000000E+00 -0.00000000000E+00 -0.22112130950E+04  0.22112130950E+04  0.00000000000E+00 0. -1.
         25    1    1    2    0    0  0.48850648676E+02  0.73148021360E+02  0.31487455143E+02  0.15605601154E+03  0.12500000000E+03 0.  0.
          2    1    1    2  501    0  0.92150457589E+01 -0.52783321907E+02  0.93090976315E+02  0.10741008338E+03  0.00000000000E+00 0. -1.
          1    1    1    2  502    0 -0.58065694435E+02 -0.20364699453E+02 -0.21413272985E+04  0.21422112280E+04  0.00000000000E+00 0. -1.
<mgrwt>
<rscale>  0 0.57439436E+02</rscale>
<asrwt>0</asrwt>
<pdfrwt beam="2">  1        2 0.34018662E+00 0.61574945E+02</pdfrwt>
<pdfrwt beam="1">  1        1 0.29917575E-01 0.53581677E+02</pdfrwt>
<totfact> 0.13785776E+02</totfact>
</mgrwt>
</event>
<event>
 5    1  0.9399923E-003  0.9365166E+02  0.7546771E-02  0.1398197E+00
          2   -1    0    0  502    0  0.00000000000E+00  0.00000000000E+00  0.24729840280E+03  0.24729840280E+03  0.00000000000E+00 0. -1.
          1   -1    0    0  501    0 -0.00000000000E+00 -0.00000000000E+00 -0.44529479758E+03  0.44529479758E+03  0.00000000000E+00 0. -1.
         25    1    1    2    0    0  0.52399017755E+02 -0.88751537702E+02 -0.24921023623E+01  0.16202994501E+03  0.12500000000E+03 0.  0.
          2    1    1    2  501    0 -0.38185314271E+02 -0.33144126869E+01 -0.34895258145E+03  0.35105128921E+03  0.00000000000E+00 0. -1.
          1    1    1    2  502    0 -0.14213703484E+02  0.92065950389E+02  0.15344828903E+03  0.17951196616E+03  0.00000000000E+00 0. -1.
<mgrwt>
<rscale>  0 0.59912968E+02</rscale>
<asrwt>0</asrwt>
<pdfrwt beam="1">  1        2 0.38045909E-01 0.93651658E+02</pdfrwt>
<pdfrwt beam="2">  1        1 0.68506891E-01 0.38328887E+02</pdfrwt>
<totfact> 0.98768611E+02</totfact>
</mgrwt>
</event>
<event>
 5    1  0.9399923E-003  0.6516280E+02  0.7546771E-02  0.1507026E+00
          2   -1    0    0  502    0  0.00000000000E+00  0.00000000000E+00  0.89673024528E+03  0.89673024528E+03  0.00000000000E+00 0. -1.
         -2   -1    0    0    0  501 -0.00000000000E+00 -0.00000000000E+00 -0.13390625924E+03  0.13390625924E+03  0.00000000000E+00 0.  1.
         25    1    1    2    0    0 -0.20455589246E+02 -0.37027716955E+02  0.34677620160E+03  0.37103667871E+03  0.12500000000E+03 0.  0.
          1    1    1    2  502    0 -0.23137586148E+01 -0.24644324206E+02  0.52864045427E+03  0.52921963880E+03  0.00000000000E+00 0. -1.
         -1    1    1    2    0  501  0.22769347861E+02  0.61672041161E+02 -0.11259266983E+03  0.13038018701E+03  0.00000000000E+00 0.  1.
<mgrwt>
<rscale>  0 0.40161615E+02</rscale>
<asrwt>0</asrwt>
<pdfrwt beam="1">  1        2 0.13795850E+00 0.24752701E+02</pdfrwt>
<pdfrwt beam="2">  1       -2 0.20600963E-01 0.65162801E+02</pdfrwt>
<totfact> 0.64918239E+02</totfact>
</mgrwt>
</event>
<event>
 5    1  0.9399923E-003  0.4612385E+02  0.7546771E-02  0.1472413E+00
          2   -1    0    0  502    0  0.00000000000E+00  0.00000000000E+00  0.89731166173E+03  0.89731166173E+03  0.00000000000E+00 0. -1.
          1   -1    0    0  501    0 -0.00000000000E+00 -0.00000000000E+00 -0.93537657642E+03  0.93537657642E+03  0.00000000000E+00 0. -1.
         25    1    1    2    0    0  0.63800665877E+02  0.59686875018E+02  0.49289005645E+03  0.51594443089E+03  0.12500000000E+03 0.  0.
          2    1    1    2  501    0 -0.24313283643E+02 -0.39143972995E+02 -0.92201146608E+03  0.92316224466E+03  0.00000000000E+00 0. -1.
          1    1    1    2  502    0 -0.39487382233E+02 -0.20542902023E+02  0.39105649494E+03  0.39358156260E+03  0.00000000000E+00 0. -1.
<mgrwt>
<rscale>  0 0.45310448E+02</rscale>
<asrwt>0</asrwt>
<pdfrwt beam="1">  1        2 0.13804795E+00 0.44511394E+02</pdfrwt>
<pdfrwt beam="2">  1        1 0.14390409E+00 0.46123847E+02</pdfrwt>
<totfact> 0.90365828E+01</totfact>
</mgrwt>
</event>
<event>
 5    1  0.9399923E-003  0.5599897E+02  0.7546771E-02  0.1541287E+00
         -2   -1    0    0    0  501  0.00000000000E+00  0.00000000000E+00  0.63692152812E+02  0.63692152812E+02  0.00000000000E+00 0.  1.
         -1   -1    0    0    0  502 -0.00000000000E+00 -0.00000000000E+00 -0.62949328825E+03  0.62949328825E+03  0.00000000000E+00 0.  1.
         25    1    1    2    0    0  0.22807830320E+02  0.46992972675E+02 -0.44957760761E+03  0.46954612326E+03  0.12500000000E+03 0.  0.
         -2    1    1    2    0  502  0.20247766287E+02 -0.10771863110E+02 -0.15411024925E+03  0.15580749019E+03  0.00000000000E+00 0.  1.
         -1    1    1    2    0  501 -0.43055596607E+02 -0.36221109565E+02  0.37886721422E+02  0.67831827614E+02  0.00000000000E+00 0.  1.
<mgrwt>
<rscale>  0 0.35837485E+02</rscale>
<asrwt>0</asrwt>
<pdfrwt beam="1">  1       -2 0.97987933E-02 0.55998975E+02</pdfrwt>
<pdfrwt beam="2">  1       -1 0.96845116E-01 0.22934801E+02</pdfrwt>
<totfact> 0.54660031E+02</totfact>
</mgrwt>
</event>
<event>
 5    1  0.9399923E-003  0.7371771E+02  0.7546771E-02  0.1460039E+00
         -1   -1    0    0    0  502 -0.00000000000E+00  0.00000000000E+00  0.27220712454E+03  0.27220712454E+03  0.00000000000E+00 0.  1.
         -2   -1    0    0    0  501  0.00000000000E+00 -0.00000000000E+00 -0.69084537769E+03  0.69084537769E+03  0.00000000000E+00 0.  1.
         25    1    1    2    0    0  0.71700575575E+02  0.39838576590E+02 -0.26436068958E+03  0.30370982683E+03  0.12500000000E+03 0.  0.
         -2    1    1    2    0  502  0.83988565166E+00 -0.30433697463E+02  0.24830714534E+03  0.25016665200E+03  0.00000000000E+00 0.  1.
         -1    1    1    2    0  501 -0.72540461227E+02 -0.94048791265E+01 -0.40258470891E+03  0.40917602339E+03  0.00000000000E+00 0.  1.
<mgrwt>
<rscale>  0 0.47374641E+02</rscale>
<asrwt>0</asrwt>
<pdfrwt beam="2">  1       -2 0.10628390E+00 0.73717710E+02</pdfrwt>
<pdfrwt beam="1">  1       -1 0.41878019E-01 0.30445285E+02</pdfrwt>
<totfact> 0.32614420E+01</totfact>
</mgrwt>
</event>
<event>
 5    1  0.9609500E-003  0.1025510E+03  0.7546771E-02  0.1326904E+00
          2   -1    0    0  502    0  0.00000000000E+00  0.00000000000E+00  0.11768785686E+04  0.11768785686E+04  0.00000000000E+00 0. -1.
         -2   -1    0    0    0  501 -0.00000000000E+00 -0.00000000000E+00 -0.31379176525E+02  0.31379176525E+02  0.00000000000E+00 0.  1.
         25    1    1    2    0    0  0.12589708248E+03  0.60737833410E+02  0.83299421470E+03  0.85384045436E+03  0.12500000000E+03 0.  0.
          1    1    1    2  502    0 -0.79526400388E+02 -0.17206921986E+02  0.25842483124E+03  0.27093157794E+03  0.00000000000E+00 0. -1.
         -1    1    1    2    0  501 -0.46370682089E+02 -0.43530911423E+02  0.54080346120E+02  0.83485712809E+02  0.00000000000E+00 0.  1.
<mgrwt>
<rscale>  0 0.80761499E+02</rscale>
<asrwt>0</asrwt>
<pdfrwt beam="1">  1        2 0.18105821E+00 0.10255097E+03</pdfrwt>
<pdfrwt beam="2">  1       -2 0.48275665E-02 0.63601733E+02</pdfrwt>
<totfact> 0.39514861E+03</totfact>
</mgrwt>
</event>
<event>
 5    1  0.9399923E-003  0.9893523E+02  0.7546771E-02  0.1412740E+00
         -2   -1    0    0    0  501 -0.00000000000E+00  0.00000000000E+00  0.28259744410E+03  0.28259744410E+03  0.00000000000E+00 0.  1.
          2   -1    0    0  502    0  0.00000000000E+00 -0.00000000000E+00 -0.79793794961E+03  0.79793794961E+03  0.00000000000E+00 0. -1.
         25    1    1    2    0    0  0.66283836890E+02  0.11093249314E+03 -0.61419266062E+03  0.63996655337E+03  0.12500000000E+03 0.  0.
          1    1    1    2  502    0 -0.23588634693E+02 -0.22160477104E+02 -0.16019138924E+03  0.16342824608E+03  0.00000000000E+00 0. -1.
         -1    1    1    2    0  501 -0.42695202197E+02 -0.88772016036E+02  0.25904354435E+03  0.27714059427E+03  0.00000000000E+00 0.  1.
<mgrwt>
<rscale>  0 0.56586792E+02</rscale>
<asrwt>0</asrwt>
<pdfrwt beam="2">  1        2 0.12275968E+00 0.32365266E+02</pdfrwt>
<pdfrwt beam="1">  1       -2 0.43476531E-01 0.98935230E+02</pdfrwt>
<totfact> 0.19671388E+02</totfact>
</mgrwt>
</event>
<event>
 5    1  0.9399923E-003  0.6116081E+02  0.7546771E-02  0.1466154E+00
          2   -1    0    0  502    0  0.00000000000E+00  0.00000000000E+00  0.11311423092E+04  0.11311423092E+04  0.00000000000E+00 0. -1.
          1   -1    0    0  501    0 -0.00000000000E+00 -0.00000000000E+00 -0.16084295460E+03  0.16084295460E+03  0.00000000000E+00 0. -1.
         25    1    1    2    0    0 -0.50073136531E+02 -0.52793732516E+02  0.62385424679E+03  0.64040113869E+03  0.12500000000E+03 0.  0.
          2    1    1    2  501    0  0.34693574342E+02 -0.53820432892E+01 -0.14870383870E+03  0.15279215339E+03  0.00000000000E+00 0. -1.
          1    1    1    2  502    0  0.15379562189E+02  0.58175775806E+02  0.49514894655E+03  0.49879197176E+03  0.00000000000E+00 0. -1.
<mgrwt>
<rscale>  0 0.46338617E+02</rscale>
<asrwt>0</asrwt>
<pdfrwt beam="1">  1        2 0.17402189E+00 0.61160807E+02</pdfrwt>
<pdfrwt beam="2">  1        1 0.24745071E-01 0.35108553E+02</pdfrwt>
<totfact> 0.59676787E+02</totfact>
</mgrwt>
</event>
<event>
 5    1  0.9399923E-003  0.4427939E+02  0.7546771E-02  0.1575775E+00
          2   -1    0    0  502    0  0.00000000000E+00  0.00000000000E+00  0.14324264762E+04  0.14324264762E+04  0.00000000000E+00 0. -1.
          1   -1    0    0  501    0 -0.00000000000E+00 -0.00000000000E+00 -0.23573964749E+02  0.23573964749E+02  0.00000000000E+00 0. -1.
         25    1    1    2    0    0 -0.23386415608E+02  0.50834044097E+00  0.50610125378E+03  0.52183394095E+03  0.12500000000E+03 0.  0.
          2    1    1    2  501    0 -0.21428504593E+02  0.91472043091E+01 -0.61600945495E+01  0.24099770137E+02  0.00000000000E+00 0. -1.
          1    1    1    2  502    0  0.44814920201E+02 -0.96555447501E+01  0.90891135225E+03  0.91006672990E+03  0.00000000000E+00 0. -1.
<mgrwt>
<rscale>  0 0.32119681E+02</rscale>
<asrwt>0</asrwt>
<pdfrwt beam="1">  1        2 0.22037324E+00 0.44279393E+02</pdfrwt>
<pdfrwt beam="2">  1        1 0.36267649E-02 0.23299188E+02</pdfrwt>
<totfact> 0.45665920E+03</totfact>
</mgrwt>
</event>
<event>
 5    1  0.9399923E-003  0.7319109E+02  0.7546771E-02  0.1378394E+00
          2   -1    0    0  502    0  0.00000000000E+00  0.00000000000E+00  0.12554371784E+04  0.12554371784E+04  0.00000000000E+00 0. -1.
          1   -1    0    0  501    0 -0.00000000000E+00 -0.00000000000E+00 -0.13302152473E+03  0.13302152473E+03  0.00000000000E+00 0. -1.
         25    1    1    2    0    0 -0.43440362901E+02 -0.96156380756E+02  0.19080609296E+03  0.25132663966E+03  0.12500000000E+03 0.  0.
          2    1    1    2  501    0 -0.16287206781E+02  0.55172466689E+02 -0.93330712220E+02  0.10963528642E+03  0.00000000000E+00 0. -1.
          1    1    1    2  502    0  0.59727569682E+02  0.40983914067E+02  0.10249402729E+04  0.10274967771E+04  0.00000000000E+00 0. -1.
<mgrwt>
<rscale>  0 0.64887689E+02</rscale>
<asrwt>0</asrwt>
<pdfrwt beam="1">  1        2 0.19314417E+00 0.73191094E+02</pdfrwt>
<pdfrwt beam="2">  1        1 0.20464851E-01 0.57526291E+02</pdfrwt>
<totfact> 0.65000141E+02</totfact>
</mgrwt>
</event>
<event>
 5    1  0.9399923E-003  0.6670199E+02  0.7546771E-02  0.1457609E+00
         -1   -1    0    0    0  501 -0.00000000000E+00  0.00000000000E+00  0.12722063417E+03  0.12722063417E+03  0.00000000000E+00 0.  1.
          1   -1    0    0  502    0  0.00000000000E+00 -0.00000000000E+00 -0.11006227597E+04  0.11006227597E+04  0.00000000000E+00 0. -1.
         25    1    1    2    0    0 -0.67955345474E+01 -0.36777040941E+02 -0.11379559593E+03  0.17312760520E+03  0.12500000000E+03 0.  0.
          2    1    1    2  502    0  0.32001436285E+02  0.59962565263E+02 -0.95290719040E+03  0.95532806651E+03  0.00000000000E+00 0. -1.
         -2    1    1    2    0  501 -0.25205901737E+02 -0.23185524323E+02  0.93300660771E+02  0.99387722183E+02  0.00000000000E+00 0.  1.
<mgrwt>
<rscale>  0 0.47795302E+02</rscale>
<asrwt>0</asrwt>
<pdfrwt beam="2">  1        1 0.16932659E+00 0.66701995E+02</pdfrwt>
<pdfrwt beam="1">  1       -1 0.19572404E-01 0.34247716E+02</pdfrwt>
<totfact> 0.28860922E+02</totfact>
</mgrwt>
</event>
<event>
 5    1  0.9399923E-003  0.5807520E+02  0.7546771E-02  0.1494172E+00
          2   -1    0    0  502    0  0.00000000000E+00  0.00000000000E+00  0.19470564293E+04  0.19470564293E+04  0.00000000000E+00 0. -1.
          1   -1    0    0  501    0 -0.00000000000E+00 -0.00000000000E+00 -0.12919727410E+03  0.12919727410E+03  0.00000000000E+00 0. -1.
         25    1    1    2    0    0  0.86591442439E+02 -0.16725492975E+02  0.26203838973E+02  0.15520780005E+03  0.12500000000E+03 0.  0.
          2    1    1    2  501    0 -0.29671587645E+02  0.63136821778E+01 -0.60662337557E+02  0.67824662873E+02  0.00000000000E+00 0. -1.
          1    1    1    2  502    0 -0.56919854794E+02  0.10411810797E+02  0.18523176538E+04  0.18532212405E+04  0.00000000000E+00 0. -1.
<mgrwt>
<rscale>  0 0.41973355E+02</rscale>
<asrwt>0</asrwt>
<pdfrwt beam="1">  1        2 0.29954712E+00 0.58075205E+02</pdfrwt>
<pdfrwt beam="2">  1        1 0.19876505E-01 0.30335881E+02</pdfrwt>
<totfact> 0.30052857E+02</totfact>
</mgrwt>
</event>
<event>
 5    1  0.9399923E-003  0.8633243E+02  0.7546771E-02  0.1354998E+00
          1   -1    0    0  501    0 -0.00000000000E+00  0.00000000000E+00  0.54017865281E+03  0.54017865281E+03  0.00000000000E+00 0. -1.
          2   -1    0    0  502    0  0.00000000000E+00 -0.00000000000E+00 -0.83912105958E+03  0.83912105958E+03  0.00000000000E+00 0. -1.
         25    1    1    2    0    0 -0.62939003085E+02  0.29080506421E+02 -0.23738711260E+02  0.14489831046E+03  0.12500000000E+03 0.  0.
          2    1    1    2  501    0 -0.20788249911E+02 -0.55483205484E+02  0.47520009320E+03  0.47887959447E+03  0.00000000000E+00 0. -1.
          1    1    1    2  502    0  0.83727252995E+02  0.26402699063E+02 -0.75040378871E+03  0.75552180745E+03  0.00000000000E+00 0. -1.
<mgrwt>
<rscale>  0 0.71520475E+02</rscale>
<asrwt>0</asrwt>
<pdfrwt beam="2">  1        2 0.12909555E+00 0.86332433E+02</pdfrwt>
<pdfrwt beam="1">  1        1 0.83104408E-01 0.59249788E+02</pdfrwt>
<totfact> 0.20266951E+02</totfact>
</mgrwt>
</event>
<event>
 5    1  0.9399923E-003  0.6275483E+02  0.7546771E-02  0.1440138E+00
          2   -1    0    0  502    0  0.00000000000E+00  0.00000000000E+00  0.11812165825E+04  0.11812165825E+04  0.00000000000E+00 0. -1.
          1   -1    0    0  501    0 -0.00000000000E+00 -0.00000000000E+00 -0.27866990750E+03  0.27866990750E+03  0.00000000000E+00 0. -1.
         25    1    1    2    0    0 -0.28968155520E+02  0.81202879103E+02  0.22412056549E+03  0.27071773028E+03  0.12500000000E+03 0.  0.
          2    1    1    2  501    0 -0.77472962676E+01 -0.62049605021E+02 -0.25107546670E+03  0.25874517205E+03  0.00000000000E+00 0. -1.
          1    1    1    2  502    0  0.36715451787E+02 -0.19153274082E+02  0.92950157623E+03  0.93042358768E+03  0.00000000000E+00 0. -1.
<mgrwt>
<rscale>  0 0.50977852E+02</rscale>
<asrwt>0</asrwt>
<pdfrwt beam="1">  1        2 0.18172563E+00 0.41411017E+02</pdfrwt>
<pdfrwt beam="2">  1        1 0.42872294E-01 0.62754833E+02</pdfrwt>
<totfact> 0.30183102E+02</totfact>
</mgrwt>
</event>
<event>
 5    1  0.9399923E-003  0.1107626E+03  0.7546771E-02  0.1312960E+00
          1   -1    0    0  501    0 -0.00000000000E+00  0.00000000000E+00  0.13267546711E+04  0.13267546711E+04  0.00000000000E+00 0. -1.
          2   -1    0    0  502    0  0.00000000000E+00 -0.00000000000E+00 -0.62528172525E+03  0.62528172525E+03  0.00000000000E+00 0. -1.
         25    1    1    2    0    0  0.15599668796E+03  0.55229201911E+02  0.14484489213E+03  0.25296298973E+03  0.12500000000E+03 0.  0.
          2    1    1    2  501    0 -0.66277733066E+02  0.74927972898E+01  0.11216061729E+04  0.11235876855E+04  0.00000000000E+00 0. -1.
          1    1    1    2  502    0 -0.89718954895E+02 -0.62721999201E+02 -0.56497811918E+03  0.57548572112E+03  0.00000000000E+00 0. -1.
<mgrwt>
<rscale>  0 0.85952631E+02</rscale>
<asrwt>0</asrwt>
<pdfrwt beam="2">  1        2 0.96197189E-01 0.11076257E+03</pdfrwt>
<pdfrwt beam="1">  1        1 0.20411610E+00 0.66699924E+02</pdfrwt>
<totfact> 0.70999790E+01</totfact>
</mgrwt>
</event>
<event>
 5    1  0.9399923E-003  0.5030566E+03  0.7546771E-02  0.1203585E+00
          2   -1    0    0  502    0  0.00000000000E+00  0.00000000000E+00  0.20887923782E+04  0.20887923782E+04  0.00000000000E+00 0. -1.
          1   -1    0    0  501    0 -0.00000000000E+00 -0.00000000000E+00 -0.29371499938E+03  0.29371499938E+03  0.00000000000E+00 0. -1.
         25    1    1    2    0    0  0.46286112441E+03  0.84922079288E+02  0.82556025449E+03  0.95845026675E+03  0.12500000000E+03 0.  0.
          2    1    1    2  501    0 -0.50594937427E+03 -0.88602170499E+02  0.64128773786E+02  0.51763656514E+03  0.00000000000E+00 0. -1.
          1    1    1    2  502    0  0.43088249861E+02  0.36800912117E+01  0.90538835056E+03  0.90642054571E+03  0.00000000000E+00 0. -1.
<mgrwt>
<rscale>  0 0.14749490E+03</rscale>
<asrwt>0</asrwt>
<pdfrwt beam="1">  1        2 0.32135266E+00 0.43245119E+02</pdfrwt>
<pdfrwt beam="2">  1        1 0.45186924E-01 0.50305664E+03</pdfrwt>
<totfact> 0.10076172E+02</totfact>
</mgrwt>
</event>
<event>
 5    1  0.9399923E-003  0.8299042E+02  0.7546771E-02  0.1471799E+00
          2   -1    0    0  502    0  0.00000000000E+00  0.00000000000E+00  0.10134722773E+02  0.10134722773E+02  0.00000000000E+00 0. -1.
          1   -1    0    0  501    0 -0.00000000000E+00 -0.00000000000E+00 -0.30390146410E+04  0.30390146410E+04  0.00000000000E+00 0. -1.
         25    1    1    2    0    0 -0.18098770529E+02 -0.92358089397E+02 -0.12646467810E+04  0.12742896307E+04  0.12500000000E+03 0.  0.
          2    1    1    2  501    0 -0.15899363630E+02  0.19093865196E+02 -0.14562505910E+04  0.14564625465E+04  0.00000000000E+00 0. -1.
          1    1    1    2  502    0  0.33998134159E+02  0.73264224201E+02 -0.30798254624E+03  0.31839718664E+03  0.00000000000E+00 0. -1.
<mgrwt>
<rscale>  0 0.45409798E+02</rscale>
<asrwt>0</asrwt>
<pdfrwt beam="1">  1        2 0.15591855E-02 0.82990423E+02</pdfrwt>
<pdfrwt beam="2">  1        1 0.46754151E+00 0.24846840E+02</pdfrwt>
<totfact> 0.94822751E+02</totfact>
</mgrwt>
</event>
<event>
 5    1  0.9399923E-003  0.1030290E+03  0.7546771E-02  0.1342682E+00
          1   -1    0    0  501    0 -0.00000000000E+00  0.00000000000E+00  0.41325142283E+03  0.41325142283E+03  0.00000000000E+00 0. -1.
          2   -1    0    0  502    0  0.00000000000E+00 -0.00000000000E+00 -0.11552148687E+03  0.11552148687E+03  0.00000000000E+00 0. -1.
         25    1    1    2    0    0  0.52212062673E+02 -0.20925966360E+02  0.11489918590E+02  0.13755367602E+03  0.12500000000E+03 0.  0.
          2    1    1    2  501    0 -0.94930505313E+02  0.55820547618E+02  0.31161610509E+03  0.33050314874E+03  0.00000000000E+00 0. -1.
          1    1    1    2  502    0  0.42718442640E+02 -0.34894581258E+02 -0.25376087723E+02  0.60716084944E+02  0.00000000000E+00 0. -1.
<mgrwt>
<rscale>  0 0.75385419E+02</rscale>
<asrwt>0</asrwt>
<pdfrwt beam="2">  1        2 0.17772537E-01 0.55158836E+02</pdfrwt>
<pdfrwt beam="1">  1        1 0.63577141E-01 0.10302903E+03</pdfrwt>
<totfact> 0.23866003E+03</totfact>
</mgrwt>
</event>
<event>
 5    1  0.9399923E-003  0.1588151E+03  0.7546771E-02  0.1296164E+00
          1   -1    0    0  501    0 -0.00000000000E+00  0.00000000000E+00  0.10179936646E+04  0.10179936646E+04  0.00000000000E+00 0. -1.
          2   -1    0    0  502    0  0.00000000000E+00 -0.00000000000E+00 -0.86296566449E+03  0.86296566449E+03  0.00000000000E+00 0. -1.
         25    1    1    2    0    0 -0.21020857065E+03 -0.76557193258E+01  0.11326863326E+03  0.26963129732E+03  0.12500000000E+03 0.  0.
          2    1    1    2  501    0  0.54010936038E+02 -0.50682407348E+01  0.81781242380E+03  0.81960968076E+03  0.00000000000E+00 0. -1.
          1    1    1    2  502    0  0.15619763461E+03  0.12723960061E+02 -0.77605305693E+03  0.79171835104E+03  0.00000000000E+00 0. -1.
<mgrwt>
<rscale>  0 0.92819378E+02</rscale>
<asrwt>0</asrwt>
<pdfrwt beam="2">  1        2 0.13276395E+00 0.15881514E+03</pdfrwt>
<pdfrwt beam="1">  1        1 0.15661441E+00 0.54248210E+02</pdfrwt>
<totfact> 0.77695277E+01</totfact>
</mgrwt>
</event>
<event>
 5    1  0.9399923E-003  0.3601584E+02  0.7546771E-02  0.1562513E+00
          2   -1    0    0  502    0  0.00000000000E+00  0.00000000000E+00  0.18223427586E+04  0.18223427586E+04  0.00000000000E+00 0. -1.
          1   -1    0    0  501    0 -0.00000000000E+00 -0.00000000000E+00 -0.18172566563E+02  0.18172566563E+02  0.00000000000E+00 0. -1.
         25    1    1    2    0    0 -0.62785106942E+02  0.21054844795E+02  0.12766195079E+04  0.12844328103E+04  0.12500000000E+03 0.  0.
          2    1    1    2  501    0  0.32332041866E+02 -0.14619323095E+02  0.90115063653E+01  0.36610009369E+02  0.00000000000E+00 0. -1.
          1    1    1    2  502    0  0.30453065075E+02 -0.64355216997E+01  0.51853917774E+03  0.51947250549E+03  0.00000000000E+00 0. -1.
<mgrwt>
<rscale>  0 0.33481573E+02</rscale>
<asrwt>0</asrwt>
<pdfrwt beam="1">  1        2 0.28036028E+00 0.31125634E+02</pdfrwt>
<pdfrwt beam="2">  1        1 0.27957809E-02 0.36015836E+02</pdfrwt>
<totfact> 0.46105612E+03</totfact>
</mgrwt>
</event>
<event>
 5    1  0.9399923E-003  0.8293607E+02  0.7546771E-02  0.1470996E+00
          2   -1    0    0  502    0  0.00000000000E+00  0.00000000000E+00  0.16546651632E+04  0.16546651632E+04  0.00000000000E+00 0. -1.
         -2   -1    0    0    0  501 -0.00000000000E+00 -0.00000000000E+00 -0.13294088094E+03  0.13294088094E+03  0.00000000000E+00 0.  1.
         25    1    1    2    0    0  0.84597506979E+02 -0.83319774239E+01 -0.17159463757E+02  0.15213680433E+03  0.12500000000E+03 0.  0.
          1    1    1    2  502    0 -0.81308163346E+02 -0.16457063640E+02  0.15827786487E+04  0.15849511359E+04  0.00000000000E+00 0. -1.
         -1    1    1    2    0  501 -0.32893436325E+01  0.24789041064E+02 -0.43894902707E+02  0.50518103904E+02  0.00000000000E+00 0.  1.
<mgrwt>
<rscale>  0 0.45540383E+02</rscale>
<asrwt>0</asrwt>
<pdfrwt beam="1">  1        2 0.25456386E+00 0.82936074E+02</pdfrwt>
<pdfrwt beam="2">  1       -2 0.20452444E-01 0.25006326E+02</pdfrwt>
<totfact> 0.23059091E+02</totfact>
</mgrwt>
</event>
<event>
 5    1  0.9399923E-003  0.1020576E+03  0.7546771E-02  0.1312758E+00
          2   -1    0    0  502    0  0.00000000000E+00  0.00000000000E+00  0.25421466025E+04  0.25421466025E+04  0.00000000000E+00 0. -1.
          1   -1    0    0  501    0 -0.00000000000E+00 -0.00000000000E+00 -0.10655467161E+04  0.10655467161E+04  0.00000000000E+00 0. -1.
         25    1    1    2    0    0 -0.16873377245E+03 -0.39965064353E+02  0.24803211610E+03  0.32743430326E+03  0.12500000000E+03 0.  0.
          2    1    1    2  501    0  0.10006361432E+03  0.16646867216E+02 -0.10227526692E+04  0.10277708244E+04  0.00000000000E+00 0. -1.
          1    1    1    2  502    0  0.68670158128E+02  0.23318197137E+02  0.22513204395E+04  0.22524881909E+04  0.00000000000E+00 0. -1.
<mgrwt>
<rscale>  0 0.86031055E+02</rscale>
<asrwt>0</asrwt>
<pdfrwt beam="1">  1        2 0.39109948E+00 0.72521231E+02</pdfrwt>
<pdfrwt beam="2">  1        1 0.16393026E+00 0.10205759E+03</pdfrwt>
<totfact> 0.95266289E+00</totfact>
</mgrwt>
</event>
<event>
 5    1  0.9399923E-003  0.1212987E+03  0.7546771E-02  0.1327024E+00
         -2   -1    0    0    0  501 -0.00000000000E+00  0.00000000000E+00  0.22354143834E+03  0.22354143834E+03  0.00000000000E+00 0.  1.
          2   -1    0    0  502    0  0.00000000000E+00 -0.00000000000E+00 -0.73087710432E+03  0.73087710432E+03  0.00000000000E+00 0. -1.
         25    1    1    2    0    0  0.72222159554E+02  0.15187390441E+03 -0.23949800427E+03  0.31822321917E+03  0.12500000000E+03 0.  0.
          1    1    1    2  502    0 -0.71117321737E+01 -0.53241597385E+02 -0.43121767984E+03  0.43455026387E+03  0.00000000000E+00 0. -1.
         -1    1    1    2    0  501 -0.65110427381E+02 -0.98632307022E+02  0.16338001813E+03  0.20164505961E+03  0.00000000000E+00 0.  1.
<mgrwt>
<rscale>  0 0.80718618E+02</rscale>
<asrwt>0</asrwt>
<pdfrwt beam="2">  1        2 0.11244263E+00 0.53714471E+02</pdfrwt>
<pdfrwt beam="1">  1       -2 0.34390990E-01 0.12129869E+03</pdfrwt>
<totfact> 0.33241102E+02</totfact>
</mgrwt>
</event>
<event>
 5    1  0.9399923E-003  0.3345198E+02  0.7546771E-02  0.1590309E+00
          2   -1    0    0  502    0  0.00000000000E+00  0.00000000000E+00  0.71395417104E+03  0.71395417104E+03  0.00000000000E+00 0. -1.
         -2   -1    0    0    0  501 -0.00000000000E+00 -0.00000000000E+00 -0.38084402172E+03  0.38084402172E+03  0.00000000000E+00 0.  1.
         25    1    1    2    0    0 -0.58521876544E+02  0.18835421343E+02 -0.73038361561E+00  0.13930224905E+03  0.12500000000E+03 0.  0.
          1    1    1    2  502    0  0.31797147615E+02 -0.98231439418E+01  0.64359765054E+03  0.64445751491E+03  0.00000000000E+00 0. -1.
         -1    1    1    2    0  501  0.26724728929E+02 -0.90122774011E+01 -0.30975711760E+03  0.31103842879E+03  0.00000000000E+00 0.  1.
<mgrwt>
<rscale>  0 0.30715794E+02</rscale>
<asrwt>0</asrwt>
<pdfrwt beam="1">  1        2 0.10983910E+00 0.33451984E+02</pdfrwt>
<pdfrwt beam="2">  1       -2 0.58591388E-01 0.28203409E+02</pdfrwt>
<totfact> 0.12376640E+02</totfact>
</mgrwt>
</event>
<event>
 5    1  0.9399923E-003  0.8039954E+02  0.7546771E-02  0.1469335E+00
          2   -1    0    0  502    0  0.00000000000E+00  0.00000000000E+00  0.15335690422E+04  0.15335690422E+04  0.00000000000E+00 0. -1.
          1   -1    0    0  501    0 -0.00000000000E+00 -0.00000000000E+00 -0.50130756658E+03  0.50130756658E+03  0.00000000000E+00 0. -1.
         25    1    1    2    0    0  0.46540272946E+02  0.61149749804E+02  0.10639033298E+03  0.18124346018E+03  0.12500000000E+03 0.  0.
          2    1    1    2  501    0 -0.25408053259E+02 -0.76474249906E+02 -0.46025743293E+03  0.46725879835E+03  0.00000000000E+00 0. -1.
          1    1    1    2  502    0 -0.21132219687E+02  0.15324500103E+02  0.13861285756E+04  0.13863743503E+04  0.00000000000E+00 0. -1.
<mgrwt>
<rscale>  0 0.45811981E+02</rscale>
<asrwt>0</asrwt>
<pdfrwt beam="1">  1        2 0.23593370E+00 0.26103851E+02</pdfrwt>
<pdfrwt beam="2">  1        1 0.77124242E-01 0.80399540E+02</pdfrwt>
<totfact> 0.10164175E+02</totfact>
</mgrwt>
</event>
<event>
 5    1  0.9399923E-003  0.1877795E+03  0.7546771E-02  0.1362201E+00
         -1   -1    0    0    0  502 -0.00000000000E+00  0.00000000000E+00  0.46172221425E+03  0.46172221425E+03  0.00000000000E+00 0.  1.
         -2   -1    0    0    0  501  0.00000000000E+00 -0.00000000000E+00 -0.44201518972E+03  0.44201518972E+03  0.00000000000E+00 0.  1.
         25    1    1    2    0    0 -0.18301712201E+03  0.65060069166E+02 -0.94143201428E+02  0.24943139723E+03  0.12500000000E+03 0.  0.
         -2    1    1    2    0  502  0.16675226341E+03 -0.84877022471E+02  0.36058586546E+03  0.40624203705E+03  0.00000000000E+00 0.  1.
         -1    1    1    2    0  501  0.16264858596E+02  0.19816953305E+02 -0.24673563950E+03  0.24806396970E+03  0.00000000000E+00 0.  1.
<mgrwt>
<rscale>  0 0.69383782E+02</rscale>
<asrwt>0</asrwt>
<pdfrwt beam="2">  1       -2 0.68002337E-01 0.25637029E+02</pdfrwt>
<pdfrwt beam="1">  1       -1 0.71034187E-01 0.18777953E+03</pdfrwt>
<totfact> 0.32649933E+01</totfact>
</mgrwt>
</event>
<event>
 5    1  0.9399923E-003  0.1395728E+03  0.7546771E-02  0.1256514E+00
          2   -1    0    0  502    0  0.00000000000E+00  0.00000000000E+00  0.16318120929E+04  0.16318120929E+04  0.00000000000E+00 0. -1.
         -2   -1    0    0    0  501 -0.00000000000E+00 -0.00000000000E+00 -0.12648722354E+03  0.12648722354E+03  0.00000000000E+00 0.  1.
         25    1    1    2    0    0 -0.12440884335E+03 -0.18067906099E+03  0.41670780027E+03  0.48722979608E+03  0.12500000000E+03 0.  0.
          1    1    1    2  502    0  0.86359118735E+02  0.98867659403E+02  0.11528590501E+04  0.11603088816E+04  0.00000000000E+00 0. -1.
         -1    1    1    2    0  501  0.38049724612E+02  0.81811401592E+02 -0.64241980971E+02  0.11076063873E+03  0.00000000000E+00 0.  1.
<mgrwt>
<rscale>  0 0.11221951E+03</rscale>
<asrwt>0</asrwt>
<pdfrwt beam="1">  1        2 0.25104800E+00 0.13957283E+03</pdfrwt>
<pdfrwt beam="2">  1       -2 0.19459574E-01 0.90226864E+02</pdfrwt>
<totfact> 0.26223226E+02</totfact>
</mgrwt>
</event>
<event>
 5    1  0.1445128E-002  0.1104971E+03  0.7546771E-02  0.1343792E+00
          1   -1    0    0  501    0 -0.00000000000E+00  0.00000000000E+00  0.22033241086E+04  0.22033241086E+04  0.00000000000E+00 0. -1.
          2   -1    0    0  502    0  0.00000000000E+00 -0.00000000000E+00 -0.13734829918E+04  0.13734829918E+04  0.00000000000E+00 0. -1.
         25    1    1    2    0    0 -0.61676904352E+01  0.73129129661E+02  0.77620993390E+03  0.78962824892E+03  0.12500000000E+03 0.  0.
          2    1    1    2  501    0 -0.44173250661E+02  0.25371193893E+02  0.14177086025E+04  0.14186235072E+04  0.00000000000E+00 0. -1.
          1    1    1    2  502    0  0.50340941097E+02 -0.98500323553E+02 -0.13640774195E+04  0.13685553443E+04  0.00000000000E+00 0. -1.
<mgrwt>
<rscale>  0 0.75025463E+02</rscale>
<asrwt>0</asrwt>
<pdfrwt beam="2">  1        2 0.21130508E+00 0.11049710E+03</pdfrwt>
<pdfrwt beam="1">  1        1 0.33897294E+00 0.50940883E+02</pdfrwt>
<totfact> 0.72798576E+00</totfact>
</mgrwt>
</event>
<event>
 5    1  0.9399923E-003  0.2243152E+03  0.7546771E-02  0.1244016E+00
         -2   -1    0    0    0  501 -0.00000000000E+00  0.00000000000E+00  0.31157496230E+03  0.31157496230E+03  0.00000000000E+00 0.  1.
          2   -1    0    0  502    0  0.00000000000E+00 -0.00000000000E+00 -0.14616359215E+04  0.14616359215E+04  0.00000000000E+00 0. -1.
         25    1    1    2    0    0  0.89959762090E+02 -0.15605718500E+03 -0.31917121142E+03  0.38722327666E+03  0.12500000000E+03 0.  0.
          1    1    1    2  502    0  0.60825785034E+02 -0.18587331047E+02 -0.10593667427E+04  0.10612743098E+04  0.00000000000E+00 0. -1.
         -1    1    1    2    0  501 -0.15078554712E+03  0.17464451604E+03  0.22847699500E+03  0.32471329731E+03  0.00000000000E+00 0.  1.
<mgrwt>
<rscale>  0 0.11944449E+03</rscale>
<asrwt>0</asrwt>
<pdfrwt beam="2">  1        2 0.22486707E+00 0.63602398E+02</pdfrwt>
<pdfrwt beam="1">  1       -2 0.47934609E-01 0.22431523E+03</pdfrwt>
<totfact> 0.67887781E+01</totfact>
</mgrwt>
</event>
<event>
 5    1  0.9399923E-003  0.9651816E+02  0.7546771E-02  0.1386783E+00
         -2   -1    0    0    0  501 -0.00000000000E+00  0.00000000000E+00  0.13083006250E+03  0.13083006250E+03  0.00000000000E+00 0.  1.
          2   -1    0    0  502    0  0.00000000000E+00 -0.00000000000E+00 -0.75967638891E+03  0.75967638891E+03  0.00000000000E+00 0. -1.
         25    1    1    2    0    0 -0.35059744428E+02 -0.97544243611E+02 -0.26990004891E+03  0.31498428777E+03  0.12500000000E+03 0.  0.
          1    1    1    2  502    0  0.65658613875E+02  0.70633321612E+02 -0.45819505284E+03  0.46823373025E+03  0.00000000000E+00 0. -1.
         -1    1    1    2    0  501 -0.30598869448E+02  0.26910921999E+02  0.99248775333E+02  0.10728843339E+03  0.00000000000E+00 0.  1.
<mgrwt>
<rscale>  0 0.62713854E+02</rscale>
<asrwt>0</asrwt>
<pdfrwt beam="2">  1        2 0.11687329E+00 0.96518160E+02</pdfrwt>
<pdfrwt beam="1">  1       -2 0.20127702E-01 0.40749092E+02</pdfrwt>
<totfact> 0.76164655E+02</totfact>
</mgrwt>
</event>
<event>
 5    1  0.9399923E-003  0.2820854E+02  0.7546771E-02  0.1649548E+00
          1   -1    0    0  501    0 -0.00000000000E+00  0.00000000000E+00  0.10560458517E+04  0.10560458517E+04  0.00000000000E+00 0. -1.
          2   -1    0    0  502    0  0.00000000000E+00 -0.00000000000E+00 -0.91699235860E+03  0.91699235860E+03  0.00000000000E+00 0. -1.
         25    1    1    2    0    0 -0.58520901295E+01 -0.19244538795E+02 -0.20418812460E+03  0.24025484274E+03  0.12500000000E+03 0.  0.
          2    1    1    2  501    0  0.23412649119E+02 -0.31735109093E+01  0.10375861510E+04  0.10378551171E+04  0.00000000000E+00 0. -1.
          1    1    1    2  502    0 -0.17560558990E+02  0.22418049704E+02 -0.69434453337E+03  0.69492825040E+03  0.00000000000E+00 0. -1.
<mgrwt>
<rscale>  0 0.25816197E+02</rscale>
<asrwt>0</asrwt>
<pdfrwt beam="2">  1        2 0.14107575E+00 0.28208536E+02</pdfrwt>
<pdfrwt beam="1">  1        1 0.16246859E+00 0.23626750E+02</pdfrwt>
<totfact> 0.77844995E+01</totfact>
</mgrwt>
</event>
<event>
 5    1  0.9399923E-003  0.1294884E+03  0.7546771E-02  0.1257856E+00
          2   -1    0    0  502    0  0.00000000000E+00  0.00000000000E+00  0.76892574565E+03  0.76892574565E+03  0.00000000000E+00 0. -1.
          1   -1    0    0  501    0 -0.00000000000E+00 -0.00000000000E+00 -0.47486753875E+03  0.47486753875E+03  0.00000000000E+00 0. -1.
         25    1    1    2    0    0  0.69215869658E+02 -0.85308780901E+02 -0.26716380067E+03  0.31475374676E+03  0.12500000000E+03 0.  0.
          2    1    1    2  501    0 -0.32139409265E+02  0.17383143816E+03 -0.13737563534E+03  0.22388027092E+03  0.00000000000E+00 0. -1.
          1    1    1    2  502    0 -0.37076460393E+02 -0.88522657261E+02  0.69859764291E+03  0.70515926672E+03  0.00000000000E+00 0. -1.
<mgrwt>
<rscale>  0 0.11147853E+03</rscale>
<asrwt>0</asrwt>
<pdfrwt beam="1">  1        2 0.11829627E+00 0.95973563E+02</pdfrwt>
<pdfrwt beam="2">  1        1 0.73056544E-01 0.12948840E+03</pdfrwt>
<totfact> 0.26023399E+02</totfact>
</mgrwt>
</event>
<event>
 5    1  0.9399923E-003  0.7228403E+02  0.7546771E-02  0.1502471E+00
          2   -1    0    0  502    0  0.00000000000E+00  0.00000000000E+00  0.57221165747E+03  0.57221165747E+03  0.00000000000E+00 0. -1.
         -2   -1    0    0    0  501 -0.00000000000E+00 -0.00000000000E+00 -0.39957986755E+03  0.39957986755E+03  0.00000000000E+00 0.  1.
         25    1    1    2    0    0  0.12308411730E+02  0.59313354839E+02  0.12115557009E+02  0.13943226952E+03  0.12500000000E+03 0.  0.
          1    1    1    2  502    0  0.64942827015E+01 -0.72592006450E+02  0.49336315144E+03  0.49871732906E+03  0.00000000000E+00 0. -1.
         -1    1    1    2    0  501 -0.18802694432E+02  0.13278651611E+02 -0.33284691853E+03  0.33364192645E+03  0.00000000000E+00 0.  1.
<mgrwt>
<rscale>  0 0.40790802E+02</rscale>
<asrwt>0</asrwt>
<pdfrwt beam="1">  1        2 0.88032563E-01 0.72284025E+02</pdfrwt>
<pdfrwt beam="2">  1       -2 0.61473826E-01 0.23018773E+02</pdfrwt>
<totfact> 0.14073467E+02</totfact>
</mgrwt>
</event>
<event>
 5    1  0.9399923E-003  0.6461076E+02  0.7546771E-02  0.1393609E+00
          2   -1    0    0  502    0  0.00000000000E+00  0.00000000000E+00  0.29031844032E+04  0.29031844032E+04  0.00000000000E+00 0. -1.
          1   -1    0    0  501    0 -0.00000000000E+00 -0.00000000000E+00 -0.54237905627E+03  0.54237905627E+03  0.00000000000E+00 0. -1.
         25    1    1    2    0    0 -0.10973937711E+03 -0.15142110124E+02  0.31954617292E+03  0.36056451713E+03  0.12500000000E+03 0.  0.
          2    1    1    2  501    0  0.54877696899E+02 -0.17580369322E+02 -0.51987967876E+03  0.52306358255E+03  0.00000000000E+00 0. -1.
          1    1    1    2  502    0  0.54861680209E+02  0.32722479446E+02  0.25611388528E+04  0.25619353598E+04  0.00000000000E+00 0. -1.
<mgrwt>
<rscale>  0 0.61017947E+02</rscale>
<asrwt>0</asrwt>
<pdfrwt beam="1">  1        2 0.44664374E+00 0.64610765E+02</pdfrwt>
<pdfrwt beam="2">  1        1 0.83442934E-01 0.57624917E+02</pdfrwt>
<totfact> 0.17127632E+01</totfact>
</mgrwt>
</event>
<event>
 5    1  0.9399923E-003  0.7420648E+02  0.7546771E-02  0.1508880E+00
          2   -1    0    0  502    0  0.00000000000E+00  0.00000000000E+00  0.18083529393E+04  0.18083529393E+04  0.00000000000E+00 0. -1.
          3   -1    0    0  501    0 -0.00000000000E+00 -0.00000000000E+00 -0.10421497540E+03  0.10421497540E+03  0.00000000000E+00 0. -1.
         25    1    1    2    0    0  0.27125776514E+02 -0.62355393916E+02  0.23106901412E+03  0.27137039667E+03  0.12500000000E+03 0.  0.
          2    1    1    2  501    0 -0.18003599737E+02 -0.11686052402E+02 -0.81785168711E+02  0.84554758857E+02  0.00000000000E+00 0. -1.
          1    1    1    2  502    0 -0.91221767772E+01  0.74041446318E+02  0.15548541185E+04  0.15566427592E+04  0.00000000000E+00 0. -1.
<mgrwt>
<rscale>  0 0.39909282E+02</rscale>
<asrwt>0</asrwt>
<pdfrwt beam="1">  1        2 0.27820812E+00 0.74206477E+02</pdfrwt>
<pdfrwt beam="2">  1        3 0.16033074E-01 0.21463770E+02</pdfrwt>
<totfact> 0.16547801E+02</totfact>
</mgrwt>
</event>
<event>
 5    1  0.9399923E-003  0.8846014E+02  0.7546771E-02  0.1310304E+00
         -2   -1    0    0    0  501 -0.00000000000E+00  0.00000000000E+00  0.38480309640E+02  0.38480309640E+02  0.00000000000E+00 0.  1.
          2   -1    0    0  502    0  0.00000000000E+00 -0.00000000000E+00 -0.29910089897E+04  0.29910089897E+04  0.00000000000E+00 0. -1.
         25    1    1    2    0    0 -0.44420563448E+02  0.90152102155E+02 -0.12244632962E+04  0.12349234598E+04  0.12500000000E+03 0.  0.
          1    1    1    2  502    0  0.84958782789E+02 -0.10022538762E+02 -0.16975768063E+04  0.16997309961E+04  0.00000000000E+00 0. -1.
         -1    1    1    2    0  501 -0.40538219340E+02 -0.80129563393E+02 -0.30488577666E+02  0.94834843412E+02  0.00000000000E+00 0.  1.
<mgrwt>
<rscale>  0 0.86991842E+02</rscale>
<asrwt>0</asrwt>
<pdfrwt beam="2">  1        2 0.46015537E+00 0.85547917E+02</pdfrwt>
<pdfrwt beam="1">  1       -2 0.59200458E-02 0.88460139E+02</pdfrwt>
<totfact> 0.34834003E+02</totfact>
</mgrwt>
</event>
<event>
 5    1  0.9399923E-003  0.4850671E+02  0.7546771E-02  0.1474866E+00
          1   -1    0    0  502    0  0.00000000000E+00  0.00000000000E+00  0.17615221379E+03  0.17615221379E+03  0.00000000000E+00 0. -1.
         -1   -1    0    0    0  501 -0.00000000000E+00 -0.00000000000E+00 -0.12455018887E+03  0.12455018887E+03  0.00000000000E+00 0.  1.
         25    1    1    2    0    0  0.17396333510E+02  0.78674810673E+01  0.36417510237E+02  0.13158937924E+03  0.12500000000E+03 0.  0.
          2    1    1    2  502    0 -0.52807810344E+02  0.13946983953E+02  0.77123736019E+02  0.94505311238E+02  0.00000000000E+00 0. -1.
         -2    1    1    2    0  501  0.35411476834E+02 -0.21814465020E+02 -0.61939221339E+02  0.74607712173E+02  0.00000000000E+00 0.  1.
<mgrwt>
<rscale>  0 0.44916160E+02</rscale>
<asrwt>0</asrwt>
<pdfrwt beam="1">  1        1 0.27100341E-01 0.48506711E+02</pdfrwt>
<pdfrwt beam="2">  1       -1 0.19161567E-01 0.41591388E+02</pdfrwt>
<totfact> 0.33339418E+03</totfact>
</mgrwt>
</event>
<event>
 5    1  0.9399923E-003  0.8901159E+02  0.7546771E-02  0.1362229E+00
          1   -1    0    0  501    0 -0.00000000000E+00  0.00000000000E+00  0.49253213834E+03  0.49253213834E+03  0.00000000000E+00 0. -1.
          2   -1    0    0  502    0  0.00000000000E+00 -0.00000000000E+00 -0.18013035766E+03  0.18013035766E+03  0.00000000000E+00 0. -1.
         25    1    1    2    0    0 -0.32372810227E+02  0.10816054514E+03  0.17318466147E+03  0.24158772596E+03  0.12500000000E+03 0.  0.
          2    1    1    2  501    0  0.60286662233E+02 -0.61851133203E+02  0.27323424636E+03  0.28656063531E+03  0.00000000000E+00 0. -1.
          1    1    1    2  502    0 -0.27913852006E+02 -0.46309411933E+02 -0.13401712716E+03  0.14451413474E+03  0.00000000000E+00 0. -1.
<mgrwt>
<rscale>  0 0.69375820E+02</rscale>
<asrwt>0</asrwt>
<pdfrwt beam="2">  1        2 0.27712363E-01 0.54071663E+02</pdfrwt>
<pdfrwt beam="1">  1        1 0.75774174E-01 0.89011585E+02</pdfrwt>
<totfact> 0.11827183E+03</totfact>
</mgrwt>
</event>
<event>
 5    1  0.9399923E-003  0.6056925E+02  0.7546771E-02  0.1508722E+00
          2   -1    0    0  502    0  0.00000000000E+00  0.00000000000E+00  0.30510684885E+04  0.30510684885E+04  0.00000000000E+00 0. -1.
          1   -1    0    0  501    0 -0.00000000000E+00 -0.00000000000E+00 -0.25306309549E+03  0.25306309549E+03  0.00000000000E+00 0. -1.
         25    1    1    2    0    0  0.26250446313E+02 -0.39836093251E+02  0.30539207044E+03  0.33341463217E+03  0.12500000000E+03 0.  0.
          2    1    1    2  501    0  0.25303304113E+02  0.72612447829E+01 -0.23798561831E+03  0.23943712619E+03  0.00000000000E+00 0. -1.
          1    1    1    2  502    0 -0.51553750426E+02  0.32574848468E+02  0.27305989409E+04  0.27312798256E+04  0.00000000000E+00 0. -1.
<mgrwt>
<rscale>  0 0.39930680E+02</rscale>
<asrwt>0</asrwt>
<pdfrwt beam="1">  1        2 0.46939513E+00 0.60569246E+02</pdfrwt>
<pdfrwt beam="2">  1        1 0.38932786E-01 0.26324568E+02</pdfrwt>
<totfact> 0.35913591E+01</totfact>
</mgrwt>
</event>
<event>
 5    1  0.9399923E-003  0.1022168E+03  0.7546771E-02  0.1354835E+00
          2   -1    0    0  502    0  0.00000000000E+00  0.00000000000E+00  0.39512269978E+02  0.39512269978E+02  0.00000000000E+00 0. -1.
          1   -1    0    0  501    0 -0.00000000000E+00 -0.00000000000E+00 -0.14075205583E+04  0.14075205583E+04  0.00000000000E+00 0. -1.
         25    1    1    2    0    0 -0.79772196993E+02  0.91461702453E+02 -0.53430447897E+03  0.56199210197E+03  0.12500000000E+03 0.  0.
          2    1    1    2  501    0  0.49931478696E+02  0.42416627533E+01 -0.75740298648E+03  0.75905890957E+03  0.00000000000E+00 0. -1.
          1    1    1    2  502    0  0.29840718297E+02 -0.95703365207E+02 -0.76300822899E+02  0.12598181677E+03  0.00000000000E+00 0. -1.
<mgrwt>
<rscale>  0 0.71569662E+02</rscale>
<asrwt>0</asrwt>
<pdfrwt beam="1">  1        2 0.60788113E-02 0.10221676E+03</pdfrwt>
<pdfrwt beam="2">  1        1 0.21654160E+00 0.50111319E+02</pdfrwt>
<totfact> 0.14705129E+03</totfact>
</mgrwt>
</event>
<event>
 5    1  0.9399923E-003  0.5128982E+02  0.7546771E-02  0.1441048E+00
          2   -1    0    0  502    0  0.00000000000E+00  0.00000000000E+00  0.15248585146E+03  0.15248585146E+03  0.00000000000E+00 0. -1.
         -2   -1    0    0    0  501 -0.00000000000E+00 -0.00000000000E+00 -0.58266608104E+03  0.58266608104E+03  0.00000000000E+00 0.  1.
         25    1    1    2    0    0  0.13716488236E+01  0.79870847540E+01 -0.22953249835E+03  0.26148774874E+03  0.12500000000E+03 0.  0.
          1    1    1    2  502    0 -0.41500246861E+01  0.50152952161E+02  0.12923404183E+03  0.13868662114E+03  0.00000000000E+00 0. -1.
         -1    1    1    2    0  501  0.27783758626E+01 -0.58140036915E+02 -0.32988177306E+03  0.33497756262E+03  0.00000000000E+00 0.  1.
<mgrwt>
<rscale>  0 0.50804795E+02</rscale>
<asrwt>0</asrwt>
<pdfrwt beam="1">  1        2 0.23459362E-01 0.50324361E+02</pdfrwt>
<pdfrwt beam="2">  1       -2 0.89640936E-01 0.51289816E+02</pdfrwt>
<totfact> 0.25320543E+02</totfact>
</mgrwt>
</event>
<event>
 5    1  0.9399923E-003  0.1519095E+03  0.7546771E-02  0.1337062E+00
          1   -1    0    0  501    0 -0.00000000000E+00  0.00000000000E+00  0.11006766185E+03  0.11006766185E+03  0.00000000000E+00 0. -1.
          2   -1    0    0  502    0  0.00000000000E+00 -0.00000000000E+00 -0.50972240974E+03  0.50972240974E+03  0.00000000000E+00 0. -1.
         25    1    1    2    0    0 -0.58586892825E+02 -0.16939774994E+03 -0.18224162627E+03  0.28454355034E+03  0.12500000000E+03 0.  0.
          2    1    1    2  501    0  0.36522348979E+02  0.13690453357E+03 -0.31397280678E+02  0.14512933032E+03  0.00000000000E+00 0. -1.
          1    1    1    2  502    0  0.22064543846E+02  0.32493216376E+02 -0.18601584094E+03  0.19011719092E+03  0.00000000000E+00 0. -1.
<mgrwt>
<rscale>  0 0.77243068E+02</rscale>
<asrwt>0</asrwt>
<pdfrwt beam="2">  1        2 0.78418832E-01 0.39276624E+02</pdfrwt>
<pdfrwt beam="1">  1        1 0.16933486E-01 0.15190948E+03</pdfrwt>
<totfact> 0.26370135E+03</totfact>
</mgrwt>
</event>
<event>
 5    1  0.9399923E-003  0.1645680E+03  0.7546771E-02  0.1305097E+00
         -2   -1    0    0    0  501 -0.00000000000E+00  0.00000000000E+00  0.23497503085E+03  0.23497503085E+03  0.00000000000E+00 0.  1.
          2   -1    0    0  502    0  0.00000000000E+00 -0.00000000000E+00 -0.81637302283E+03  0.81637302283E+03  0.00000000000E+00 0. -1.
         25    1    1    2    0    0 -0.10646217928E+03  0.17910872724E+03 -0.31494754124E+03  0.39778271144E+03  0.12500000000E+03 0.  0.
          1    1    1    2  502    0  0.20345392746E+02 -0.43715249361E+02 -0.42515371280E+03  0.42787923243E+03  0.00000000000E+00 0. -1.
         -1    1    1    2    0  501  0.86116786533E+02 -0.13539347788E+03  0.15870326206E+03  0.22568610981E+03  0.00000000000E+00 0.  1.
<mgrwt>
<rscale>  0 0.89079222E+02</rscale>
<asrwt>0</asrwt>
<pdfrwt beam="2">  1        2 0.12559585E+00 0.48217819E+02</pdfrwt>
<pdfrwt beam="1">  1       -2 0.36150005E-01 0.16456795E+03</pdfrwt>
<totfact> 0.26823568E+02</totfact>
</mgrwt>
</event>
<event>
 5    1  0.9399923E-003  0.9012474E+02  0.7546771E-02  0.1398326E+00
          1   -1    0    0  502    0  0.00000000000E+00  0.00000000000E+00  0.47282735908E+03  0.47282735908E+03  0.00000000000E+00 0. -1.
         -1   -1    0    0    0  501 -0.00000000000E+00 -0.00000000000E+00 -0.33757149280E+03  0.33757149280E+03  0.00000000000E+00 0.  1.
         25    1    1    2    0    0 -0.14267329112E+02 -0.54408955829E+02  0.11541001349E+02  0.13755757292E+03  0.12500000000E+03 0.  0.
          2    1    1    2  502    0  0.69342211014E+01 -0.39179200802E+02  0.38920997651E+03  0.39123841710E+03  0.00000000000E+00 0. -1.
         -2    1    1    2    0  501  0.73331080108E+01  0.93588156630E+02 -0.26549511158E+03  0.28160286186E+03  0.00000000000E+00 0.  1.
<mgrwt>
<rscale>  0 0.59882322E+02</rscale>
<asrwt>0</asrwt>
<pdfrwt beam="1">  1        1 0.72742671E-01 0.39788104E+02</pdfrwt>
<pdfrwt beam="2">  1       -1 0.51934076E-01 0.90124739E+02</pdfrwt>
<totfact> 0.19774474E+02</totfact>
</mgrwt>
</event>
<event>
 5    1  0.9399923E-003  0.1487674E+03  0.7546771E-02  0.1301655E+00
          2   -1    0    0  502    0  0.00000000000E+00  0.00000000000E+00  0.74583426436E+03  0.74583426436E+03  0.00000000000E+00 0. -1.
         -2   -1    0    0    0  501 -0.00000000000E+00 -0.00000000000E+00 -0.20203282157E+03  0.20203282157E+03  0.00000000000E+00 0.  1.
         25    1    1    2    0    0  0.94723304392E+01 -0.10270174858E+03  0.32212080354E+03  0.36058866632E+03  0.12500000000E+03 0.  0.
          1    1    1    2  502    0  0.31887603987E+02 -0.44873063463E+02  0.36995693498E+03  0.37403013897E+03  0.00000000000E+00 0. -1.
         -1    1    1    2    0  501 -0.41359934426E+02  0.14757481204E+03 -0.14827629573E+03  0.21324828065E+03  0.00000000000E+00 0.  1.
<mgrwt>
<rscale>  0 0.90495977E+02</rscale>
<asrwt>0</asrwt>
<pdfrwt beam="1">  1        2 0.11474373E+00 0.55049170E+02</pdfrwt>
<pdfrwt beam="2">  1       -2 0.31081973E-01 0.14876740E+03</pdfrwt>
<totfact> 0.39139777E+02</totfact>
</mgrwt>
</event>
<event>
 5    1  0.9399923E-003  0.1089839E+03  0.7546771E-02  0.1331212E+00
         -2   -1    0    0    0  501 -0.00000000000E+00  0.00000000000E+00  0.11768330490E+03  0.11768330490E+03  0.00000000000E+00 0.  1.
          2   -1    0    0  502    0  0.00000000000E+00 -0.00000000000E+00 -0.20821037246E+04  0.20821037246E+04  0.00000000000E+00 0. -1.
         25    1    1    2    0    0 -0.13417747642E+03 -0.19874853976E+02 -0.12388924696E+04  0.12525486642E+04  0.12500000000E+03 0.  0.
          1    1    1    2  502    0  0.42670029882E+02 -0.38719606069E+02 -0.80848238839E+03  0.81053298000E+03  0.00000000000E+00 0. -1.
         -1    1    1    2    0  501  0.91507446535E+02  0.58594460045E+02  0.82954438320E+02  0.13670538525E+03  0.00000000000E+00 0.  1.
<mgrwt>
<rscale>  0 0.79243525E+02</rscale>
<asrwt>0</asrwt>
<pdfrwt beam="2">  1        2 0.32032369E+00 0.57618915E+02</pdfrwt>
<pdfrwt beam="1">  1       -2 0.18105121E-01 0.10898394E+03</pdfrwt>
<totfact> 0.19389423E+02</totfact>
</mgrwt>
</event>
<event>
 5    1  0.9399923E-003  0.1390994E+03  0.7546771E-02  0.1244783E+00
          1   -1    0    0  502    0  0.00000000000E+00  0.00000000000E+00  0.10128617123E+04  0.10128617123E+04  0.00000000000E+00 0. -1.
         -1   -1    0    0    0  501 -0.00000000000E+00 -0.00000000000E+00 -0.20336153222E+03  0.20336153222E+03  0.00000000000E+00 0.  1.
         25    1    1    2    0    0  0.62974634725E+02 -0.20055363664E+03 -0.12777499654E+02  0.24489963309E+03  0.12500000000E+03 0.  0.
          2    1    1    2  502    0  0.15644208667E+02  0.13591934005E+03  0.85386580812E+03  0.86475755362E+03  0.00000000000E+00 0. -1.
         -2    1    1    2    0  501 -0.78618843392E+02  0.64634296595E+02 -0.31588128346E+02  0.10656605785E+03  0.00000000000E+00 0.  1.
<mgrwt>
<rscale>  0 0.11898356E+03</rscale>
<asrwt>0</asrwt>
<pdfrwt beam="1">  1        1 0.15582488E+00 0.13909938E+03</pdfrwt>
<pdfrwt beam="2">  1       -1 0.31286390E-01 0.10177679E+03</pdfrwt>
<totfact> 0.15482441E+02</totfact>
</mgrwt>
</event>
<event>
 5    1  0.9399923E-003  0.6667069E+02  0.7546771E-02  0.1445532E+00
          1   -1    0    0  501    0 -0.00000000000E+00  0.00000000000E+00  0.15103524662E+03  0.15103524662E+03  0.00000000000E+00 0. -1.
          2   -1    0    0  502    0  0.00000000000E+00 -0.00000000000E+00 -0.66936532650E+03  0.66936532650E+03  0.00000000000E+00 0. -1.
         25    1    1    2    0    0  0.62512715731E+01  0.99105365123E+02 -0.25392786332E+03  0.29994218037E+03  0.12500000000E+03 0.  0.
          2    1    1    2  501    0 -0.17446461188E+02 -0.63373196248E+02  0.11861778861E+03  0.13561239171E+03  0.00000000000E+00 0. -1.
          1    1    1    2  502    0  0.11195189615E+02 -0.35732168875E+02 -0.38302000516E+03  0.38484600104E+03  0.00000000000E+00 0. -1.
<mgrwt>
<rscale>  0 0.49964756E+02</rscale>
<asrwt>0</asrwt>
<pdfrwt beam="2">  1        2 0.10297928E+00 0.37444895E+02</pdfrwt>
<pdfrwt beam="1">  1        1 0.23236192E-01 0.66670685E+02</pdfrwt>
<totfact> 0.12873517E+03</totfact>
</mgrwt>
</event>
<event>
 5    1  0.9399923E-003  0.6846668E+02  0.7546771E-02  0.1398902E+00
          1   -1    0    0  501    0 -0.00000000000E+00  0.00000000000E+00  0.93867871728E+02  0.93867871728E+02  0.00000000000E+00 0. -1.
          2   -1    0    0  502    0  0.00000000000E+00 -0.00000000000E+00 -0.21320867858E+04  0.21320867858E+04  0.00000000000E+00 0. -1.
         25    1    1    2    0    0  0.22735680920E+02 -0.10669613826E+03 -0.44759259594E+03  0.47735218554E+03  0.12500000000E+03 0.  0.
          2    1    1    2  501    0 -0.36788747157E+02  0.56490350741E+02  0.64118646076E+02  0.93036403729E+02  0.00000000000E+00 0. -1.
          1    1    1    2  502    0  0.14053066236E+02  0.50205787523E+02 -0.16547449642E+04  0.16555660683E+04  0.00000000000E+00 0. -1.
<mgrwt>
<rscale>  0 0.59745664E+02</rscale>
<asrwt>0</asrwt>
<pdfrwt beam="2">  1        2 0.32801332E+00 0.52135494E+02</pdfrwt>
<pdfrwt beam="1">  1        1 0.14441212E-01 0.68466683E+02</pdfrwt>
<totfact> 0.38279815E+02</totfact>
</mgrwt>
</event>
<event>
 5    1  0.9399923E-003  0.8574241E+02  0.7546771E-02  0.1360366E+00
          1   -1    0    0  501    0 -0.00000000000E+00  0.00000000000E+00  0.45907652385E+03  0.45907652385E+03  0.00000000000E+00 0. -1.
          2   -1    0    0  502    0  0.00000000000E+00 -0.00000000000E+00 -0.74997815382E+02  0.74997815382E+02  0.00000000000E+00 0. -1.
         25    1    1    2    0    0 -0.80210498911E+02 -0.23395559931E+02  0.28390280433E+03  0.32125827408E+03  0.12500000000E+03 0.  0.
          2    1    1    2  501    0  0.29544941024E+02 -0.48765122720E+02  0.11020035450E+03  0.12407682647E+03  0.00000000000E+00 0. -1.
          1    1    1    2  502    0  0.50665557887E+02  0.72160682651E+02 -0.10024450364E+02  0.88739238682E+02  0.00000000000E+00 0. -1.
<mgrwt>
<rscale>  0 0.69919788E+02</rscale>
<asrwt>0</asrwt>
<pdfrwt beam="2">  1        2 0.11538126E-01 0.85742408E+02</pdfrwt>
<pdfrwt beam="1">  1        1 0.70627156E-01 0.57017021E+02</pdfrwt>
<totfact> 0.35597830E+03</totfact>
</mgrwt>
</event>
<event>
 5    1  0.9399923E-003  0.7730777E+02  0.7546771E-02  0.1363769E+00
          2   -1    0    0  502    0  0.00000000000E+00  0.00000000000E+00  0.15928735163E+04  0.15928735163E+04  0.00000000000E+00 0. -1.
         -2   -1    0    0    0  501 -0.00000000000E+00 -0.00000000000E+00 -0.16117551761E+03  0.16117551761E+03  0.00000000000E+00 0.  1.
         25    1    1    2    0    0  0.93505370731E+02 -0.21731216016E+02  0.51496589396E+03  0.53854467972E+03  0.12500000000E+03 0.  0.
          1    1    1    2  502    0 -0.24356599494E+02  0.56428204889E+02  0.10551469590E+04  0.10569354244E+04  0.00000000000E+00 0. -1.
         -1    1    1    2    0  501 -0.69148771238E+02 -0.34696988873E+02 -0.13841485430E+03  0.15856892978E+03  0.00000000000E+00 0.  1.
<mgrwt>
<rscale>  0 0.68930180E+02</rscale>
<asrwt>0</asrwt>
<pdfrwt beam="1">  1        2 0.24505745E+00 0.61460445E+02</pdfrwt>
<pdfrwt beam="2">  1       -2 0.24796235E-01 0.77307766E+02</pdfrwt>
<totfact> 0.19448525E+02</totfact>
</mgrwt>
</event>
<event>
 5    1  0.9399923E-003  0.3889571E+02  0.7546771E-02  0.1590986E+00
          1   -1    0    0  501    0 -0.00000000000E+00  0.00000000000E+00  0.65607427503E+03  0.65607427503E+03  0.00000000000E+00 0. -1.
          2   -1    0    0  502    0  0.00000000000E+00 -0.00000000000E+00 -0.31028771215E+03  0.31028771215E+03  0.00000000000E+00 0. -1.
         25    1    1    2    0    0  0.43610235210E+02 -0.20201817860E+02  0.13448048605E+03  0.18978927048E+03  0.12500000000E+03 0.  0.
          2    1    1    2  501    0 -0.38661356799E+02 -0.34421740701E+01  0.49265852760E+03  0.49418516154E+03  0.00000000000E+00 0. -1.
          1    1    1    2  502    0 -0.49488784107E+01  0.23643991930E+02 -0.28135245077E+03  0.28238755516E+03  0.00000000000E+00 0. -1.
<mgrwt>
<rscale>  0 0.30652550E+02</rscale>
<asrwt>0</asrwt>
<pdfrwt beam="2">  1        2 0.47736571E-01 0.24156360E+02</pdfrwt>
<pdfrwt beam="1">  1        1 0.10093450E+00 0.38895712E+02</pdfrwt>
<totfact> 0.47043986E+02</totfact>
</mgrwt>
</event>
<event>
 5    1  0.9399923E-003  0.1174357E+03  0.7546771E-02  0.1294242E+00
         -1   -1    0    0    0  501 -0.00000000000E+00  0.00000000000E+00  0.31178228161E+02  0.31178228161E+02  0.00000000000E+00 0.  1.
          1   -1    0    0  502    0  0.00000000000E+00 -0.00000000000E+00 -0.30166514464E+04  0.30166514464E+04  0.00000000000E+00 0. -1.
         25    1    1    2    0    0  0.69088359814E+01 -0.10378780890E+03 -0.18282511534E+04  0.18354691284E+04  0.12500000000E+03 0.  0.
          2    1    1    2  502    0 -0.74539973564E+02  0.46489605770E+01 -0.10462314475E+04  0.10488937326E+04  0.00000000000E+00 0. -1.
         -2    1    1    2    0  501  0.67631137583E+02  0.99138848321E+02 -0.11099061734E+03  0.16346681362E+03  0.00000000000E+00 0.  1.
<mgrwt>
<rscale>  0 0.93651832E+02</rscale>
<asrwt>0</asrwt>
<pdfrwt beam="2">  1        1 0.46410048E+00 0.74684808E+02</pdfrwt>
<pdfrwt beam="1">  1       -1 0.47966479E-02 0.11743574E+03</pdfrwt>
<totfact> 0.15236416E+02</totfact>
</mgrwt>
</event>
<event>
 5    1  0.9399923E-003  0.9408810E+02  0.7546771E-02  0.1358757E+00
          1   -1    0    0  501    0 -0.00000000000E+00  0.00000000000E+00  0.10328586842E+04  0.10328586842E+04  0.00000000000E+00 0. -1.
          2   -1    0    0  502    0  0.00000000000E+00 -0.00000000000E+00 -0.11760141528E+03  0.11760141528E+03  0.00000000000E+00 0. -1.
         25    1    1    2    0    0 -0.16876358719E+02 -0.64448097711E+02  0.12134467819E+03  0.18651514605E+03  0.12500000000E+03 0.  0.
          2    1    1    2  501    0  0.69429787015E+02  0.67911257431E+02  0.86779456342E+03  0.87321236736E+03  0.00000000000E+00 0. -1.
          1    1    1    2  502    0 -0.52553428296E+02 -0.34631597193E+01 -0.73881972648E+02  0.90732586116E+02  0.00000000000E+00 0. -1.
<mgrwt>
<rscale>  0 0.70394435E+02</rscale>
<asrwt>0</asrwt>
<pdfrwt beam="2">  1        2 0.18092526E-01 0.52667412E+02</pdfrwt>
<pdfrwt beam="1">  1        1 0.15890133E+00 0.94088096E+02</pdfrwt>
<totfact> 0.64412530E+02</totfact>
</mgrwt>
</event>
<event>
 5    1  0.9399923E-003  0.1096428E+03  0.7546771E-02  0.1353177E+00
          1   -1    0    0  501    0 -0.00000000000E+00  0.00000000000E+00  0.55274418614E+03  0.55274418614E+03  0.00000000000E+00 0. -1.
          2   -1    0    0  502    0  0.00000000000E+00 -0.00000000000E+00 -0.97291407210E+02  0.97291407210E+02  0.00000000000E+00 0. -1.
         25    1    1    2    0    0  0.44798547838E+02  0.62109006489E+02  0.22448822404E+03  0.26811266533E+03  0.12500000000E+03 0.  0.
          2    1    1    2  501    0 -0.48535012643E+01  0.47129787429E+02  0.25816103134E+03  0.26247264894E+03  0.00000000000E+00 0. -1.
          1    1    1    2  502    0 -0.39945046573E+02 -0.10923879392E+03 -0.27196476451E+02  0.11945027909E+03  0.00000000000E+00 0. -1.
<mgrwt>
<rscale>  0 0.72074750E+02</rscale>
<asrwt>0</asrwt>
<pdfrwt beam="2">  1        2 0.14967909E-01 0.10964278E+03</pdfrwt>
<pdfrwt beam="1">  1        1 0.85037565E-01 0.47379039E+02</pdfrwt>
<totfact> 0.21103453E+03</totfact>
</mgrwt>
</event>
<event>
 5    1  0.9399923E-003  0.1208762E+03  0.7546771E-02  0.1412476E+00
          1   -1    0    0  501    0 -0.00000000000E+00  0.00000000000E+00  0.17650774903E+04  0.17650774903E+04  0.00000000000E+00 0. -1.
          2   -1    0    0  502    0  0.00000000000E+00 -0.00000000000E+00 -0.20781985077E+04  0.20781985077E+04  0.00000000000E+00 0. -1.
         25    1    1    2    0    0 -0.10097734894E+03  0.60237151982E+02  0.58239952738E+03  0.60715660992E+03  0.12500000000E+03 0.  0.
          2    1    1    2  501    0 -0.13911656894E+02 -0.22607533340E+02  0.11683798150E+04  0.11686813196E+04  0.00000000000E+00 0. -1.
          1    1    1    2  502    0  0.11488900583E+03 -0.37629618642E+02 -0.20639003598E+04  0.20674380685E+04  0.00000000000E+00 0. -1.
<mgrwt>
<rscale>  0 0.56644968E+02</rscale>
<asrwt>0</asrwt>
<pdfrwt beam="2">  1        2 0.31972285E+00 0.12087615E+03</pdfrwt>
<pdfrwt beam="1">  1        1 0.27155038E+00 0.26544957E+02</pdfrwt>
<totfact> 0.63482084E+00</totfact>
</mgrwt>
</event>
<event>
 5    1  0.9399923E-003  0.8749820E+02  0.7546771E-02  0.1437021E+00
          1   -1    0    0  501    0 -0.00000000000E+00  0.00000000000E+00  0.72525651940E+03  0.72525651940E+03  0.00000000000E+00 0. -1.
          2   -1    0    0  502    0  0.00000000000E+00 -0.00000000000E+00 -0.67218178547E+03  0.67218178547E+03  0.00000000000E+00 0. -1.
         25    1    1    2    0    0  0.41765471388E+02 -0.70311641602E+02  0.62481740708E+03  0.64242499464E+03  0.12500000000E+03 0.  0.
          2    1    1    2  501    0  0.26299753597E+02  0.15250760962E+02  0.86131487710E+02  0.91339454369E+02  0.00000000000E+00 0. -1.
          1    1    1    2  502    0 -0.68065224985E+02  0.55060880640E+02 -0.65787416086E+03  0.66367385586E+03  0.00000000000E+00 0. -1.
<mgrwt>
<rscale>  0 0.51576091E+02</rscale>
<asrwt>0</asrwt>
<pdfrwt beam="2">  1        2 0.10341258E+00 0.87498201E+02</pdfrwt>
<pdfrwt beam="1">  1        1 0.11157793E+00 0.30401690E+02</pdfrwt>
<totfact> 0.18358330E+02</totfact>
</mgrwt>
</event>
<event>
 5    1  0.9399923E-003  0.3519396E+02  0.7546771E-02  0.1626648E+00
          2   -1    0    0  502    0  0.00000000000E+00  0.00000000000E+00  0.15868030771E+04  0.15868030771E+04  0.00000000000E+00 0. -1.
         -2   -1    0    0    0  501 -0.00000000000E+00 -0.00000000000E+00 -0.70266103976E+02  0.70266103976E+02  0.00000000000E+00 0.  1.
         25    1    1    2    0    0  0.21312673410E+02  0.33628154937E+02  0.13598181074E+04  0.13661315340E+04  0.12500000000E+03 0.  0.
          1    1    1    2  502    0  0.10613642560E+02 -0.18804904429E+02  0.21864386815E+03  0.21970756682E+03  0.00000000000E+00 0. -1.
         -1    1    1    2    0  501 -0.31926315970E+02 -0.14823250508E+02 -0.61925002452E+02  0.71230080273E+02  0.00000000000E+00 0.  1.
<mgrwt>
<rscale>  0 0.27567306E+02</rscale>
<asrwt>0</asrwt>
<pdfrwt beam="1">  1        2 0.24412352E+00 0.21593375E+02</pdfrwt>
<pdfrwt beam="2">  1       -2 0.10810171E-01 0.35193961E+02</pdfrwt>
<totfact> 0.78951841E+02</totfact>
</mgrwt>
</event>
<event>
 5    1  0.9399923E-003  0.3980634E+02  0.7546771E-02  0.1529958E+00
          1   -1    0    0  502    0  0.00000000000E+00  0.00000000000E+00  0.82717586121E+03  0.82717586121E+03  0.00000000000E+00 0. -1.
         -1   -1    0    0    0  501 -0.00000000000E+00 -0.00000000000E+00 -0.16947813662E+03  0.16947813662E+03  0.00000000000E+00 0.  1.
         25    1    1    2    0    0  0.16713061575E+02  0.96561600081E+00  0.64731642949E+03  0.65948754252E+03  0.12500000000E+03 0.  0.
          2    1    1    2  502    0  0.51651375323E+01 -0.34362461627E+02  0.16954625617E+03  0.17307047812E+03  0.00000000000E+00 0. -1.
         -2    1    1    2    0  501 -0.21878199108E+02  0.33396845626E+02 -0.15916496108E+03  0.16409597719E+03  0.00000000000E+00 0.  1.
<mgrwt>
<rscale>  0 0.37191531E+02</rscale>
<asrwt>0</asrwt>
<pdfrwt beam="1">  1        1 0.12725782E+00 0.34748488E+02</pdfrwt>
<pdfrwt beam="2">  1       -1 0.26073560E-01 0.39806336E+02</pdfrwt>
<totfact> 0.30340901E+02</totfact>
</mgrwt>
</event>
<event>
 5    1  0.9399923E-003  0.6120634E+02  0.7546771E-02  0.1429737E+00
          2   -1    0    0  502    0  0.00000000000E+00  0.00000000000E+00  0.10271794331E+04  0.10271794331E+04  0.00000000000E+00 0. -1.
         -2   -1    0    0    0  501 -0.00000000000E+00 -0.00000000000E+00 -0.31142460356E+03  0.31142460356E+03  0.00000000000E+00 0.  1.
         25    1    1    2    0    0  0.67431272341E+02  0.43812509980E+01  0.12191974179E+02  0.14261772710E+03  0.12500000000E+03 0.  0.
          1    1    1    2  502    0 -0.23822550497E+02  0.39252811072E+02  0.94534439172E+03  0.94645882955E+03  0.00000000000E+00 0. -1.
         -1    1    1    2    0  501 -0.43608721844E+02 -0.43634062070E+02 -0.24178153632E+03  0.24952748005E+03  0.00000000000E+00 0.  1.
<mgrwt>
<rscale>  0 0.53012851E+02</rscale>
<asrwt>0</asrwt>
<pdfrwt beam="1">  1        2 0.15802760E+00 0.45916196E+02</pdfrwt>
<pdfrwt beam="2">  1       -2 0.47911478E-01 0.61206341E+02</pdfrwt>
<totfact> 0.11726531E+02</totfact>
</mgrwt>
</event>
<event>
 5    1  0.9399923E-003  0.2951585E+02  0.7546771E-02  0.1665042E+00
          2   -1    0    0  502    0  0.00000000000E+00  0.00000000000E+00  0.26267131437E+04  0.26267131437E+04  0.00000000000E+00 0. -1.
          1   -1    0    0  501    0 -0.00000000000E+00 -0.00000000000E+00 -0.58869350010E+03  0.58869350010E+03  0.00000000000E+00 0. -1.
         25    1    1    2    0    0 -0.40668105132E+02 -0.75380095838E+01  0.18200826052E+04  0.18248387343E+04  0.12500000000E+03 0.  0.
          2    1    1    2  501    0  0.28128514258E+02 -0.89380324942E+01 -0.58581059820E+03  0.58655362815E+03  0.00000000000E+00 0. -1.
          1    1    1    2  502    0  0.12539590874E+02  0.16476042078E+02  0.80374763662E+03  0.80401428139E+03  0.00000000000E+00 0. -1.
<mgrwt>
<rscale>  0 0.24721019E+02</rscale>
<asrwt>0</asrwt>
<pdfrwt beam="1">  1        2 0.40410971E+00 0.20705103E+02</pdfrwt>
<pdfrwt beam="2">  1        1 0.90568232E-01 0.29515852E+02</pdfrwt>
<totfact> 0.26674879E+01</totfact>
</mgrwt>
</event>
<event>
 5    1  0.9399923E-003  0.4845237E+02  0.7546771E-02  0.1468714E+00
          1   -1    0    0  502    0  0.00000000000E+00  0.00000000000E+00  0.91082357041E+03  0.91082357041E+03  0.00000000000E+00 0. -1.
         -1   -1    0    0    0  501 -0.00000000000E+00 -0.00000000000E+00 -0.13138872694E+03  0.13138872694E+03  0.00000000000E+00 0.  1.
         25    1    1    2    0    0  0.71846407949E+02 -0.49598913102E+02  0.52622464354E+03  0.54786798956E+03  0.12500000000E+03 0.  0.
          2    1    1    2  502    0 -0.35871283117E+02  0.25128373028E+02  0.36851260234E+03  0.37110607939E+03  0.00000000000E+00 0. -1.
         -2    1    1    2    0  501 -0.35975124832E+02  0.24470540075E+02 -0.11530240241E+03  0.12323822840E+03  0.00000000000E+00 0.  1.
<mgrwt>
<rscale>  0 0.45914106E+02</rscale>
<asrwt>0</asrwt>
<pdfrwt beam="1">  1        1 0.14012670E+00 0.48452370E+02</pdfrwt>
<pdfrwt beam="2">  1       -1 0.20213651E-01 0.43508814E+02</pdfrwt>
<totfact> 0.38652781E+02</totfact>
</mgrwt>
</event>
<event>
 5    1  0.9399923E-003  0.1141093E+03  0.7546771E-02  0.1259603E+00
          2   -1    0    0  502    0  0.00000000000E+00  0.00000000000E+00  0.25647241021E+04  0.25647241021E+04  0.00000000000E+00 0. -1.
          1   -1    0    0  501    0 -0.00000000000E+00 -0.00000000000E+00 -0.15847535436E+03  0.15847535436E+03  0.00000000000E+00 0. -1.
         25    1    1    2    0    0 -0.81604841113E+01  0.16856476013E+02  0.29659782273E+03  0.32240657986E+03  0.12500000000E+03 0.  0.
          2    1    1    2  501    0 -0.96717862585E+02 -0.61817091128E+02 -0.12125620317E+03  0.16696935200E+03  0.00000000000E+00 0. -1.
          1    1    1    2  502    0  0.10487834670E+03  0.44960615115E+02  0.22309071282E+04  0.22338235246E+04  0.00000000000E+00 0. -1.
<mgrwt>
<rscale>  0 0.11052361E+03</rscale>
<asrwt>0</asrwt>
<pdfrwt beam="1">  1        2 0.39457291E+00 0.11410927E+03</pdfrwt>
<pdfrwt beam="2">  1        1 0.24380826E-01 0.10705063E+03</pdfrwt>
<totfact> 0.10913702E+02</totfact>
</mgrwt>
</event>
<event>
 5    1  0.9399923E-003  0.1739487E+03  0.7546771E-02  0.1296465E+00
          1   -1    0    0  501    0 -0.00000000000E+00  0.00000000000E+00  0.21741406483E+03  0.21741406483E+03  0.00000000000E+00 0. -1.
          2   -1    0    0  502    0  0.00000000000E+00 -0.00000000000E+00 -0.27429528520E+04  0.27429528520E+04  0.00000000000E+00 0. -1.
         25    1    1    2    0    0  0.17117145165E+03  0.11951929164E+03 -0.89199987394E+02  0.25916435844E+03  0.12500000000E+03 0.  0.
          2    1    1    2  501    0 -0.14428213718E+03 -0.78089706255E+02  0.81286788623E+02  0.18309254309E+03  0.00000000000E+00 0. -1.
          1    1    1    2  502    0 -0.26889314472E+02 -0.41429585381E+02 -0.25176255884E+04  0.25181100153E+04  0.00000000000E+00 0. -1.
<mgrwt>
<rscale>  0 0.92690107E+02</rscale>
<asrwt>0</asrwt>
<pdfrwt beam="2">  1        2 0.42199275E+00 0.49390746E+02</pdfrwt>
<pdfrwt beam="1">  1        1 0.33448317E-01 0.17394870E+03</pdfrwt>
<totfact> 0.67549244E+01</totfact>
</mgrwt>
</event>
<event>
 5    1  0.9399923E-003  0.3538175E+02  0.7546771E-02  0.1590726E+00
         -1   -1    0    0    0  501 -0.00000000000E+00  0.00000000000E+00  0.67261047466E+02  0.67261047466E+02  0.00000000000E+00 0.  1.
          1   -1    0    0  502    0  0.00000000000E+00 -0.00000000000E+00 -0.40155206368E+03  0.40155206368E+03  0.00000000000E+00 0. -1.
         25    1    1    2    0    0 -0.37597910276E+01 -0.19048537586E+02 -0.66775812759E+01  0.12667506820E+03  0.12500000000E+03 0.  0.
          2    1    1    2  502    0 -0.20894830018E+02  0.29027328530E+02 -0.30539270415E+03  0.30747989117E+03  0.00000000000E+00 0. -1.
         -2    1    1    2    0  501  0.24654621046E+02 -0.99787909440E+01 -0.22220730780E+02  0.34658151769E+02  0.00000000000E+00 0.  1.
<mgrwt>
<rscale>  0 0.30676795E+02</rscale>
<asrwt>0</asrwt>
<pdfrwt beam="2">  1        1 0.61777241E-01 0.35381747E+02</pdfrwt>
<pdfrwt beam="1">  1       -1 0.10347853E-01 0.26597493E+02</pdfrwt>
<totfact> 0.30321427E+03</totfact>
</mgrwt>
</event>
<event>
 5    1  0.9399923E-003  0.5353733E+02  0.7546771E-02  0.1526994E+00
          2   -1    0    0  502    0  0.00000000000E+00  0.00000000000E+00  0.28668227366E+04  0.28668227366E+04  0.00000000000E+00 0. -1.
         -2   -1    0    0    0  501 -0.00000000000E+00 -0.00000000000E+00 -0.22360996161E+02  0.22360996161E+02  0.00000000000E+00 0.  1.
         25    1    1    2    0    0  0.60520322612E+01  0.28977485539E+02  0.65699156279E+03  0.66943202444E+03  0.12500000000E+03 0.  0.
          1    1    1    2  502    0 -0.20870688349E+02 -0.50762867709E+02  0.21922814774E+04  0.21929684290E+04  0.00000000000E+00 0. -1.
         -1    1    1    2    0  501  0.14818656087E+02  0.21785382170E+02 -0.48112997890E+01  0.26783279303E+02  0.00000000000E+00 0.  1.
<mgrwt>
<rscale>  0 0.37557683E+02</rscale>
<asrwt>0</asrwt>
<pdfrwt beam="1">  1        2 0.44104936E+00 0.53537329E+02</pdfrwt>
<pdfrwt beam="2">  1       -2 0.34401555E-02 0.26347589E+02</pdfrwt>
<totfact> 0.83697781E+02</totfact>
</mgrwt>
</event>
<event>
 5    1  0.9399923E-003  0.7330062E+02  0.7546771E-02  0.1374479E+00
          2   -1    0    0  502    0  0.00000000000E+00  0.00000000000E+00  0.17342257331E+04  0.17342257331E+04  0.00000000000E+00 0. -1.
          1   -1    0    0  501    0 -0.00000000000E+00 -0.00000000000E+00 -0.57344261860E+03  0.57344261860E+03  0.00000000000E+00 0. -1.
         25    1    1    2    0    0  0.11695253198E+03 -0.19236220111E+02  0.49010646173E+02  0.17909486407E+03  0.12500000000E+03 0.  0.
          2    1    1    2  501    0 -0.55742706251E+02 -0.20270557725E+02 -0.50584787188E+03  0.50931347350E+03  0.00000000000E+00 0. -1.
          1    1    1    2  502    0 -0.61209825724E+02  0.39506777836E+02  0.16176203402E+04  0.16192600141E+04  0.00000000000E+00 0. -1.
<mgrwt>
<rscale>  0 0.65937464E+02</rscale>
<asrwt>0</asrwt>
<pdfrwt beam="1">  1        2 0.26680396E+00 0.73300616E+02</pdfrwt>
<pdfrwt beam="2">  1        1 0.88221942E-01 0.59313951E+02</pdfrwt>
<totfact> 0.62289780E+01</totfact>
</mgrwt>
</event>
<event>
 5    1  0.9399923E-003  0.2528769E+03  0.7546771E-02  0.1258208E+00
          2   -1    0    0  502    0  0.00000000000E+00  0.00000000000E+00  0.17465825415E+04  0.17465825415E+04  0.00000000000E+00 0. -1.
          1   -1    0    0  501    0 -0.00000000000E+00 -0.00000000000E+00 -0.20475515930E+04  0.20475515930E+04  0.00000000000E+00 0. -1.
         25    1    1    2    0    0 -0.99939381572E+02 -0.18131271763E+03  0.98844798849E+01  0.24204314596E+03  0.12500000000E+03 0.  0.
          2    1    1    2  501    0  0.12158803386E+03  0.22524241664E+03 -0.19226183929E+04  0.19395822439E+04  0.00000000000E+00 0. -1.
          1    1    1    2  502    0 -0.21648652292E+02 -0.43929699019E+02  0.16117648616E+04  0.16125087446E+04  0.00000000000E+00 0. -1.
<mgrwt>
<rscale>  0 0.11128554E+03</rscale>
<asrwt>0</asrwt>
<pdfrwt beam="1">  1        2 0.26870501E+00 0.48974306E+02</pdfrwt>
<pdfrwt beam="2">  1        1 0.31500794E+00 0.25287690E+03</pdfrwt>
<totfact> 0.51858238E+00</totfact>
</mgrwt>
</event>
<event>
 5    1  0.9399923E-003  0.1626376E+03  0.7546771E-02  0.1288040E+00
          2   -1    0    0  502    0  0.00000000000E+00  0.00000000000E+00  0.92715887023E+02  0.92715887023E+02  0.00000000000E+00 0. -1.
          1   -1    0    0  501    0 -0.00000000000E+00 -0.00000000000E+00 -0.10970685359E+04  0.10970685359E+04  0.00000000000E+00 0. -1.
         25    1    1    2    0    0 -0.18907544246E+02 -0.19638629289E+03 -0.43849015662E+03  0.49681353516E+03  0.12500000000E+03 0.  0.
          2    1    1    2  501    0 -0.30613729494E+02  0.48254909992E+02 -0.52953813790E+03  0.53261278267E+03  0.00000000000E+00 0. -1.
          1    1    1    2  502    0  0.49521273741E+02  0.14813138290E+03 -0.36324354360E+02  0.16035810510E+03  0.00000000000E+00 0. -1.
<mgrwt>
<rscale>  0 0.96406374E+02</rscale>
<asrwt>0</asrwt>
<pdfrwt beam="1">  1        2 0.14263982E-01 0.16263758E+03</pdfrwt>
<pdfrwt beam="2">  1        1 0.16877978E+00 0.57146625E+02</pdfrwt>
<totfact> 0.83214546E+02</totfact>
</mgrwt>
</event>
<event>
 5    1  0.9399923E-003  0.5458957E+02  0.7546771E-02  0.1564967E+00
         -1   -1    0    0    0  501 -0.00000000000E+00  0.00000000000E+00  0.21435187802E+02  0.21435187802E+02  0.00000000000E+00 0.  1.
          1   -1    0    0  502    0  0.00000000000E+00 -0.00000000000E+00 -0.73917480151E+03  0.73917480151E+03  0.00000000000E+00 0. -1.
         25    1    1    2    0    0 -0.24199849313E+01  0.57923915503E+02 -0.59163858371E+03  0.60747201585E+03  0.12500000000E+03 0.  0.
          2    1    1    2  502    0  0.19302881881E+02 -0.60203202929E+01 -0.77370948809E+02  0.79969426814E+02  0.00000000000E+00 0. -1.
         -2    1    1    2    0  501 -0.16882896949E+02 -0.51903595210E+02 -0.48730081192E+02  0.73168546645E+02  0.00000000000E+00 0.  1.
<mgrwt>
<rscale>  0 0.33223444E+02</rscale>
<asrwt>0</asrwt>
<pdfrwt beam="2">  1        1 0.11371921E+00 0.20219928E+02</pdfrwt>
<pdfrwt beam="1">  1       -1 0.32977209E-02 0.54589573E+02</pdfrwt>
<totfact> 0.80570740E+03</totfact>
</mgrwt>
</event>
<event>
 5    1  0.9399923E-003  0.6773320E+02  0.7546771E-02  0.1396571E+00
         -1   -1    0    0    0  501 -0.00000000000E+00  0.00000000000E+00  0.98818178508E+03  0.98818178508E+03  0.00000000000E+00 0.  1.
          1   -1    0    0  502    0  0.00000000000E+00 -0.00000000000E+00 -0.22197147245E+03  0.22197147245E+03  0.00000000000E+00 0. -1.
         25    1    1    2    0    0  0.15420077027E+01 -0.98802697707E+02  0.47537309800E+02  0.16628032561E+03  0.12500000000E+03 0.  0.
          2    1    1    2  502    0 -0.34852311484E+02  0.56701656984E+02 -0.15493045750E+03  0.16862149383E+03  0.00000000000E+00 0. -1.
         -2    1    1    2    0  501  0.33310303782E+02  0.42101040723E+02  0.87360346033E+03  0.87525143808E+03  0.00000000000E+00 0.  1.
<mgrwt>
<rscale>  0 0.60301356E+02</rscale>
<asrwt>0</asrwt>
<pdfrwt beam="2">  1        1 0.34149458E-01 0.67733200E+02</pdfrwt>
<pdfrwt beam="1">  1       -1 0.15202796E+00 0.53684951E+02</pdfrwt>
<totfact> 0.51891167E+01</totfact>
</mgrwt>
</event>
<event>
 5    1  0.9399923E-003  0.2363065E+02  0.7546771E-02  0.1704856E+00
         -1   -1    0    0    0  502 -0.00000000000E+00  0.00000000000E+00  0.13139588439E+02  0.13139588439E+02  0.00000000000E+00 0.  1.
         -2   -1    0    0    0  501  0.00000000000E+00 -0.00000000000E+00 -0.95238476862E+03  0.95238476862E+03  0.00000000000E+00 0.  1.
         25    1    1    2    0    0  0.36812948090E+00 -0.23817560256E+02 -0.34709232181E+03  0.36968296087E+03  0.12500000000E+03 0.  0.
         -2    1    1    2    0  502  0.18615045425E+02  0.93951215305E+01 -0.67502847972E+02  0.70650001480E+02  0.00000000000E+00 0.  1.
         -1    1    1    2    0  501 -0.18983174906E+02  0.14422438726E+02 -0.52465001040E+03  0.52519139472E+03  0.00000000000E+00 0.  1.
<mgrwt>
<rscale>  0 0.22197664E+02</rscale>
<asrwt>0</asrwt>
<pdfrwt beam="2">  1       -2 0.14652074E+00 0.23630650E+02</pdfrwt>
<pdfrwt beam="1">  1       -1 0.20214750E-02 0.20851576E+02</pdfrwt>
<totfact> 0.12939186E+03</totfact>
</mgrwt>
</event>
<event>
 5    1  0.9399923E-003  0.1470120E+03  0.7546771E-02  0.1292863E+00
          1   -1    0    0  501    0 -0.00000000000E+00  0.00000000000E+00  0.16571238594E+04  0.16571238594E+04  0.00000000000E+00 0. -1.
          2   -1    0    0  502    0  0.00000000000E+00 -0.00000000000E+00 -0.72560840561E+03  0.72560840561E+03  0.00000000000E+00 0. -1.
         25    1    1    2    0    0 -0.18214956666E+03 -0.98303747081E+02 -0.40576677929E+03  0.47234920398E+03  0.12500000000E+03 0.  0.
          2    1    1    2  501    0  0.12932922779E+03  0.68946546210E+02  0.16172958256E+04  0.16239228624E+04  0.00000000000E+00 0. -1.
          1    1    1    2  502    0  0.52820338867E+02  0.29357200871E+02 -0.28001359250E+03  0.28646019868E+03  0.00000000000E+00 0. -1.
<mgrwt>
<rscale>  0 0.94254954E+02</rscale>
<asrwt>0</asrwt>
<pdfrwt beam="2">  1        2 0.11163206E+00 0.60430402E+02</pdfrwt>
<pdfrwt beam="1">  1        1 0.25494213E+00 0.14701204E+03</pdfrwt>
<totfact> 0.34661498E+01</totfact>
</mgrwt>
</event>
<event>
 5    1  0.9399923E-003  0.7486221E+02  0.7546771E-02  0.1415439E+00
          1   -1    0    0  502    0  0.00000000000E+00  0.00000000000E+00  0.36312958583E+04  0.36312958583E+04  0.00000000000E+00 0. -1.
         -1   -1    0    0    0  501 -0.00000000000E+00 -0.00000000000E+00 -0.15495677420E+02  0.15495677420E+02  0.00000000000E+00 0.  1.
         25    1    1    2    0    0  0.23926026849E+02 -0.57526080192E+02  0.10209202194E+04  0.10304294246E+04  0.12500000000E+03 0.  0.
          2    1    1    2  502    0 -0.63652104174E+02  0.44246827522E+02  0.25618407922E+04  0.25630133860E+04  0.00000000000E+00 0. -1.
         -2    1    1    2    0  501  0.39726077325E+02  0.13279252670E+02  0.33039169312E+02  0.53348725195E+02  0.00000000000E+00 0.  1.
<mgrwt>
<rscale>  0 0.55997630E+02</rscale>
<asrwt>0</asrwt>
<pdfrwt beam="1">  1        1 0.55866022E+00 0.74862208E+02</pdfrwt>
<pdfrwt beam="2">  1       -1 0.23839533E-02 0.41886749E+02</pdfrwt>
<totfact> 0.13420885E+02</totfact>
</mgrwt>
</event>
<event>
 5    1  0.9399923E-003  0.9065203E+02  0.7546771E-02  0.1489711E+00
          2   -1    0    0  502    0  0.00000000000E+00  0.00000000000E+00  0.93888214831E+03  0.93888214831E+03  0.00000000000E+00 0. -1.
          1   -1    0    0  501    0 -0.00000000000E+00 -0.00000000000E+00 -0.69133052905E+03  0.69133052905E+03  0.00000000000E+00 0. -1.
         25    1    1    2    0    0  0.64064099704E+02  0.78316996775E+02  0.30315151318E+03  0.34316701590E+03  0.12500000000E+03 0.  0.
          2    1    1    2  501    0  0.31853748705E+01 -0.19791385569E+02 -0.66794462436E+03  0.66824536420E+03  0.00000000000E+00 0. -1.
          1    1    1    2  502    0 -0.67249474574E+02 -0.58525611206E+02  0.61234473044E+03  0.61880029726E+03  0.00000000000E+00 0. -1.
<mgrwt>
<rscale>  0 0.42628845E+02</rscale>
<asrwt>0</asrwt>
<pdfrwt beam="1">  1        2 0.14444341E+00 0.90652034E+02</pdfrwt>
<pdfrwt beam="2">  1        1 0.10635854E+00 0.20046086E+02</pdfrwt>
<totfact> 0.13229816E+02</totfact>
</mgrwt>
</event>
<event>
 5    1  0.9399923E-003  0.1129706E+03  0.7546771E-02  0.1390980E+00
          1   -1    0    0  501    0 -0.00000000000E+00  0.00000000000E+00  0.28748265703E+03  0.28748265703E+03  0.00000000000E+00 0. -1.
          2   -1    0    0  502    0  0.00000000000E+00 -0.00000000000E+00 -0.16642007806E+04  0.16642007806E+04  0.00000000000E+00 0. -1.
         25    1    1    2    0    0 -0.82356091842E+02  0.52275223755E+01 -0.49785004723E+03  0.51989376067E+03  0.12500000000E+03 0.  0.
          2    1    1    2  501    0  0.11342416818E+03  0.77206100207E+01  0.26451507454E+03  0.28791122660E+03  0.00000000000E+00 0. -1.
          1    1    1    2  502    0 -0.31068076340E+02 -0.12948132396E+02 -0.11433831508E+04  0.11438784503E+04  0.00000000000E+00 0. -1.
<mgrwt>
<rscale>  0 0.61663565E+02</rscale>
<asrwt>0</asrwt>
<pdfrwt beam="2">  1        2 0.25603088E+00 0.33658275E+02</pdfrwt>
<pdfrwt beam="1">  1        1 0.44228102E-01 0.11297059E+03</pdfrwt>
<totfact> 0.17097184E+02</totfact>
</mgrwt>
</event>
<event>
 5    1  0.9399923E-003  0.1356648E+03  0.7546771E-02  0.1269586E+00
          2   -1    0    0  502    0  0.00000000000E+00  0.00000000000E+00  0.63019034034E+03  0.63019034034E+03  0.00000000000E+00 0. -1.
          1   -1    0    0  501    0 -0.00000000000E+00 -0.00000000000E+00 -0.28788951577E+03  0.28788951577E+03  0.00000000000E+00 0. -1.
         25    1    1    2    0    0  0.71153021993E+02  0.84330955672E+02 -0.73263514953E+01  0.16689259435E+03  0.12500000000E+03 0.  0.
          2    1    1    2  501    0 -0.20186150157E+02 -0.14816824756E+03 -0.16929165717E+03  0.22587823142E+03  0.00000000000E+00 0. -1.
          1    1    1    2  502    0 -0.50966871836E+02  0.63837291892E+02  0.51891883324E+03  0.52530903034E+03  0.00000000000E+00 0. -1.
<mgrwt>
<rscale>  0 0.10527154E+03</rscale>
<asrwt>0</asrwt>
<pdfrwt beam="1">  1        2 0.96952360E-01 0.81687342E+02</pdfrwt>
<pdfrwt beam="2">  1        1 0.44290695E-01 0.13566480E+03</pdfrwt>
<totfact> 0.61747996E+02</totfact>
</mgrwt>
</event>
<event>
 5    1  0.9399923E-003  0.1377085E+03  0.7546771E-02  0.1241055E+00
          1   -1    0    0  501    0 -0.00000000000E+00  0.00000000000E+00  0.61695830935E+03  0.61695830935E+03  0.00000000000E+00 0. -1.
          2   -1    0    0  502    0  0.00000000000E+00 -0.00000000000E+00 -0.10679891781E+04  0.10679891781E+04  0.00000000000E+00 0. -1.
         25    1    1    2    0    0  0.69828538636E+02  0.11456569308E+03 -0.14526076818E+03  0.23393805508E+03  0.12500000000E+03 0.  0.
          2    1    1    2  501    0  0.69143700041E+02 -0.81333094317E+02  0.56174845560E+03  0.57180175835E+03  0.00000000000E+00 0. -1.
          1    1    1    2  502    0 -0.13897223868E+03 -0.33232598768E+02 -0.86751855621E+03  0.87920767405E+03  0.00000000000E+00 0. -1.
<mgrwt>
<rscale>  0 0.12124608E+03</rscale>
<asrwt>0</asrwt>
<pdfrwt beam="2">  1        2 0.16430603E+00 0.13770847E+03</pdfrwt>
<pdfrwt beam="1">  1        1 0.94916663E-01 0.10675169E+03</pdfrwt>
<totfact> 0.11862697E+02</totfact>
</mgrwt>
</event>
<event>
 5    1  0.9399923E-003  0.3721817E+02  0.7546771E-02  0.1598016E+00
          1   -1    0    0  501    0 -0.00000000000E+00  0.00000000000E+00  0.47694673840E+03  0.47694673840E+03  0.00000000000E+00 0. -1.
          2   -1    0    0  502    0  0.00000000000E+00 -0.00000000000E+00 -0.23651803402E+03  0.23651803402E+03  0.00000000000E+00 0. -1.
         25    1    1    2    0    0 -0.33150439447E+01  0.18107746552E+02 -0.89612025171E+01  0.12666563525E+03  0.12500000000E+03 0.  0.
          2    1    1    2  501    0  0.16783195613E+02  0.17423846232E+02  0.41559862233E+03  0.41630215103E+03  0.00000000000E+00 0. -1.
          1    1    1    2  502    0 -0.13468151668E+02 -0.35531592784E+02 -0.16620871544E+03  0.17049698614E+03  0.00000000000E+00 0. -1.
<mgrwt>
<rscale>  0 0.30006535E+02</rscale>
<asrwt>0</asrwt>
<pdfrwt beam="2">  1        2 0.36387390E-01 0.37218170E+02</pdfrwt>
<pdfrwt beam="1">  1        1 0.73376421E-01 0.24192273E+02</pdfrwt>
<totfact> 0.94212791E+02</totfact>
</mgrwt>
</event>
<event>
 5    1  0.9399923E-003  0.1003668E+03  0.7546771E-02  0.1444380E+00
         -3   -1    0    0    0  501 -0.00000000000E+00  0.00000000000E+00  0.82458756915E+02  0.82458756915E+02  0.00000000000E+00 0.  1.
          1   -1    0    0  502    0  0.00000000000E+00 -0.00000000000E+00 -0.12038827305E+04  0.12038827305E+04  0.00000000000E+00 0. -1.
         25    1    1    2    0    0 -0.11135287038E+03  0.25641567439E+02 -0.30638509234E+03  0.35007681519E+03  0.12500000000E+03 0.  0.
          2    1    1    2  502    0  0.12562687537E+02 -0.21714875529E+02 -0.83502070441E+03  0.83539747051E+03  0.00000000000E+00 0. -1.
         -2    1    1    2    0  501  0.98790182844E+02 -0.39266919101E+01  0.19981823124E+02  0.10086720176E+03  0.00000000000E+00 0.  1.
<mgrwt>
<rscale>  0 0.50178676E+02</rscale>
<asrwt>0</asrwt>
<pdfrwt beam="2">  1        1 0.18521272E+00 0.25086987E+02</pdfrwt>
<pdfrwt beam="1">  1       -3 0.12685963E-01 0.10036675E+03</pdfrwt>
<totfact> 0.34618371E+02</totfact>
</mgrwt>
</event>
<event>
 5    1  0.9399923E-003  0.1653311E+03  0.7546771E-02  0.1355411E+00
          2   -1    0    0  502    0  0.00000000000E+00  0.00000000000E+00  0.19151101878E+04  0.19151101878E+04  0.00000000000E+00 0. -1.
          1   -1    0    0  501    0 -0.00000000000E+00 -0.00000000000E+00 -0.17720020269E+04  0.17720020269E+04  0.00000000000E+00 0. -1.
         25    1    1    2    0    0 -0.16412167643E+03  0.31113723288E+02 -0.31176976443E+03  0.37513914014E+03  0.12500000000E+03 0.  0.
          2    1    1    2  501    0  0.16544791182E+03 -0.31123251620E+00 -0.14236302814E+04  0.14332118777E+04  0.00000000000E+00 0. -1.
          1    1    1    2  502    0 -0.13262353851E+01 -0.30802490772E+02  0.18785082067E+04  0.18787611969E+04  0.00000000000E+00 0. -1.
<mgrwt>
<rscale>  0 0.71395582E+02</rscale>
<asrwt>0</asrwt>
<pdfrwt beam="1">  1        2 0.29463234E+00 0.30831029E+02</pdfrwt>
<pdfrwt beam="2">  1        1 0.27261570E+00 0.16533114E+03</pdfrwt>
<totfact> 0.71451269E+00</totfact>
</mgrwt>
</event>
<event>
 5    1  0.9399923E-003  0.1721280E+03  0.7546771E-02  0.1228285E+00
          2   -1    0    0  502    0  0.00000000000E+00  0.00000000000E+00  0.12861683411E+04  0.12861683411E+04  0.00000000000E+00 0. -1.
          1   -1    0    0  501    0 -0.00000000000E+00 -0.00000000000E+00 -0.10956440296E+04  0.10956440296E+04  0.00000000000E+00 0. -1.
         25    1    1    2    0    0  0.14499412910E+03 -0.20799605111E+02 -0.13992459404E+03  0.23803321841E+03  0.12500000000E+03 0.  0.
          2    1    1    2  501    0 -0.16442616069E+03 -0.74584278469E+02 -0.89572838772E+03  0.91374401310E+03  0.00000000000E+00 0. -1.
          1    1    1    2  502    0  0.19432031592E+02  0.95383883580E+02  0.12261772933E+04  0.12300351392E+04  0.00000000000E+00 0. -1.
<mgrwt>
<rscale>  0 0.12944299E+03</rscale>
<asrwt>0</asrwt>
<pdfrwt beam="1">  1        2 0.19787205E+00 0.97343151E+02</pdfrwt>
<pdfrwt beam="2">  1        1 0.16856062E+00 0.17212805E+03</pdfrwt>
<totfact> 0.36930516E+01</totfact>
</mgrwt>
</event>
<event>
 5    1  0.9399923E-003  0.6345445E+02  0.7546771E-02  0.1392188E+00
          2   -1    0    0  502    0  0.00000000000E+00  0.00000000000E+00  0.21117877045E+04  0.21117877045E+04  0.00000000000E+00 0. -1.
         -2   -1    0    0    0  501 -0.00000000000E+00 -0.00000000000E+00 -0.53307545633E+03  0.53307545633E+03  0.00000000000E+00 0.  1.
         25    1    1    2    0    0  0.29060523551E+02  0.11319117105E+03  0.33309776347E+03  0.37448080760E+03  0.12500000000E+03 0.  0.
          1    1    1    2  502    0 -0.31864364333E+02 -0.50065646863E+02  0.17555470177E+04  0.17565498109E+04  0.00000000000E+00 0. -1.
         -1    1    1    2    0  501  0.28038407819E+01 -0.63125524182E+02 -0.50993253302E+03  0.51383254233E+03  0.00000000000E+00 0.  1.
<mgrwt>
<rscale>  0 0.61365675E+02</rscale>
<asrwt>0</asrwt>
<pdfrwt beam="1">  1        2 0.32489041E+00 0.59345655E+02</pdfrwt>
<pdfrwt beam="2">  1       -2 0.82011610E-01 0.63454454E+02</pdfrwt>
<totfact> 0.10857347E+01</totfact>
</mgrwt>
</event>
<event>
 5    1  0.9399923E-003  0.3362659E+02  0.7546771E-02  0.1628439E+00
          2   -1    0    0  502    0  0.00000000000E+00  0.00000000000E+00  0.43247420028E+02  0.43247420028E+02  0.00000000000E+00 0. -1.
         -2   -1    0    0    0  501 -0.00000000000E+00 -0.00000000000E+00 -0.31580911876E+03  0.31580911876E+03  0.00000000000E+00 0.  1.
         25    1    1    2    0    0  0.31442416915E+02  0.23532318624E+02 -0.16583967207E+03  0.21135324089E+03  0.12500000000E+03 0.  0.
          1    1    1    2  502    0  0.22240179384E+01 -0.22255131303E+02  0.11235019575E+02  0.25029238701E+02  0.00000000000E+00 0. -1.
         -1    1    1    2    0  501 -0.33666434853E+02 -0.12771873205E+01 -0.11795704624E+03  0.12267405920E+03  0.00000000000E+00 0.  1.
<mgrwt>
<rscale>  0 0.27424288E+02</rscale>
<asrwt>0</asrwt>
<pdfrwt beam="1">  1        2 0.66534491E-02 0.22365981E+02</pdfrwt>
<pdfrwt beam="2">  1       -2 0.48586019E-01 0.33626586E+02</pdfrwt>
<totfact> 0.35085686E+03</totfact>
</mgrwt>
</event>
<event>
 5    1  0.9399923E-003  0.6807283E+02  0.7546771E-02  0.1398191E+00
          1   -1    0    0  501    0 -0.00000000000E+00  0.00000000000E+00  0.12701111204E+04  0.12701111204E+04  0.00000000000E+00 0. -1.
          2   -1    0    0  502    0  0.00000000000E+00 -0.00000000000E+00 -0.73926466002E+02  0.73926466002E+02  0.00000000000E+00 0. -1.
         25    1    1    2    0    0 -0.25099025317E+02 -0.11609510455E+02  0.18204034505E+03  0.22254983494E+03  0.12500000000E+03 0.  0.
          2    1    1    2  501    0  0.30092946000E+02  0.64106325440E+02  0.10533806017E+04  0.10557584470E+04  0.00000000000E+00 0. -1.
          1    1    1    2  502    0 -0.49939206828E+01 -0.52496814984E+02 -0.39236292358E+02  0.65729304464E+02  0.00000000000E+00 0. -1.
<mgrwt>
<rscale>  0 0.59914438E+02</rscale>
<asrwt>0</asrwt>
<pdfrwt beam="2">  1        2 0.11373303E-01 0.52733811E+02</pdfrwt>
<pdfrwt beam="1">  1        1 0.19540170E+00 0.68072831E+02</pdfrwt>
<totfact> 0.77351440E+02</totfact>
</mgrwt>
</event>
<event>
 5    1  0.9399923E-003  0.2671087E+03  0.7546771E-02  0.1264549E+00
          1   -1    0    0  501    0 -0.00000000000E+00  0.00000000000E+00  0.86858094135E+03  0.86858094135E+03  0.00000000000E+00 0. -1.
          2   -1    0    0  502    0  0.00000000000E+00 -0.00000000000E+00 -0.25970940896E+04  0.25970940896E+04  0.00000000000E+00 0. -1.
         25    1    1    2    0    0 -0.23584966556E+03 -0.17965142315E+03 -0.13966623703E+03  0.35075825914E+03  0.12500000000E+03 0.  0.
          2    1    1    2  501    0  0.88367395437E+01  0.42664191917E+02  0.75493203814E+03  0.75618827249E+03  0.00000000000E+00 0. -1.
          1    1    1    2  502    0  0.22701292601E+03  0.13698723124E+03 -0.23437789494E+04  0.23587284994E+04  0.00000000000E+00 0. -1.
<mgrwt>
<rscale>  0 0.10787889E+03</rscale>
<asrwt>0</asrwt>
<pdfrwt beam="2">  1        2 0.39955294E+00 0.26710874E+03</pdfrwt>
<pdfrwt beam="1">  1        1 0.13362784E+00 0.43569728E+02</pdfrwt>
<totfact> 0.10950256E+01</totfact>
</mgrwt>
</event>
<event>
 5    1  0.9399923E-003  0.7609082E+02  0.7546771E-02  0.1463128E+00
          2   -1    0    0  502    0  0.00000000000E+00  0.00000000000E+00  0.41436130859E+03  0.41436130859E+03  0.00000000000E+00 0. -1.
          1   -1    0    0  501    0 -0.00000000000E+00 -0.00000000000E+00 -0.21291222840E+04  0.21291222840E+04  0.00000000000E+00 0. -1.
         25    1    1    2    0    0 -0.82097096252E+02 -0.52207536663E+02 -0.14020952033E+03  0.21154023184E+03  0.12500000000E+03 0.  0.
          2    1    1    2  501    0  0.71291468089E+02  0.25465444722E+02 -0.19519634299E+04  0.19534308777E+04  0.00000000000E+00 0. -1.
          1    1    1    2  502    0  0.10805628163E+02  0.26742091941E+02  0.37741197482E+03  0.37851248304E+03  0.00000000000E+00 0. -1.
<mgrwt>
<rscale>  0 0.46847243E+02</rscale>
<asrwt>0</asrwt>
<pdfrwt beam="1">  1        2 0.63747895E-01 0.28842695E+02</pdfrwt>
<pdfrwt beam="2">  1        1 0.32755726E+00 0.76090815E+02</pdfrwt>
<totfact> 0.34660352E+01</totfact>
</mgrwt>
</event>
<event>
 5    1  0.9399923E-003  0.1616161E+03  0.7546771E-02  0.1268153E+00
          2   -1    0    0  502    0  0.00000000000E+00  0.00000000000E+00  0.23512773104E+04  0.23512773104E+04  0.00000000000E+00 0. -1.
          1   -1    0    0  501    0 -0.00000000000E+00 -0.00000000000E+00 -0.13820656967E+04  0.13820656967E+04  0.00000000000E+00 0. -1.
         25    1    1    2    0    0 -0.13099990825E+03 -0.12925564193E+03 -0.47846308752E+03  0.52765511753E+03  0.12500000000E+03 0.  0.
          2    1    1    2  501    0  0.14563405895E+03  0.61284607683E+02 -0.87138099075E+03  0.88559014973E+03  0.00000000000E+00 0. -1.
          1    1    1    2  502    0 -0.14634150694E+02  0.67971034242E+02  0.23190556920E+04  0.23200977399E+04  0.00000000000E+00 0. -1.
<mgrwt>
<rscale>  0 0.10600439E+03</rscale>
<asrwt>0</asrwt>
<pdfrwt beam="1">  1        2 0.36173497E+00 0.69528554E+02</pdfrwt>
<pdfrwt beam="2">  1        1 0.21262549E+00 0.16161605E+03</pdfrwt>
<totfact> 0.70688283E+00</totfact>
</mgrwt>
</event>
<event>
 5    1  0.9399923E-003  0.3551488E+02  0.7546771E-02  0.1554845E+00
         -1   -1    0    0    0  501 -0.00000000000E+00  0.00000000000E+00  0.10520226928E+03  0.10520226928E+03  0.00000000000E+00 0.  1.
          1   -1    0    0  502    0  0.00000000000E+00 -0.00000000000E+00 -0.75499466845E+03  0.75499466845E+03  0.00000000000E+00 0. -1.
         25    1    1    2    0    0 -0.27592333188E+01 -0.33031179212E+02 -0.96058082237E+02  0.16109260483E+03  0.12500000000E+03 0.  0.
          2    1    1    2  502    0 -0.28408437518E+02  0.21770186318E+02 -0.62210067555E+03  0.62312938533E+03  0.00000000000E+00 0. -1.
         -2    1    1    2    0  501  0.31167670837E+02  0.11260992895E+02  0.68366358626E+02  0.75974947569E+02  0.00000000000E+00 0.  1.
<mgrwt>
<rscale>  0 0.34306693E+02</rscale>
<asrwt>0</asrwt>
<pdfrwt beam="2">  1        1 0.11615303E+00 0.35514878E+02</pdfrwt>
<pdfrwt beam="1">  1       -1 0.16184964E-01 0.33139609E+02</pdfrwt>
<totfact> 0.71475810E+02</totfact>
</mgrwt>
</event>
<event>
 5    1  0.9399923E-003  0.9596130E+02  0.7546771E-02  0.1410493E+00
          2   -1    0    0  502    0  0.00000000000E+00  0.00000000000E+00  0.34468828186E+03  0.34468828186E+03  0.00000000000E+00 0. -1.
          1   -1    0    0  501    0 -0.00000000000E+00 -0.00000000000E+00 -0.11307326916E+04  0.11307326916E+04  0.00000000000E+00 0. -1.
         25    1    1    2    0    0 -0.90021807139E+02 -0.45973839261E+02 -0.40451510119E+03  0.43528724625E+03  0.12500000000E+03 0.  0.
          2    1    1    2  501    0 -0.51448071739E+01  0.33565149644E+02 -0.70342067507E+03  0.70423982735E+03  0.00000000000E+00 0. -1.
          1    1    1    2  502    0  0.95166614313E+02  0.12408689617E+02  0.32189136657E+03  0.33589389981E+03  0.00000000000E+00 0. -1.
<mgrwt>
<rscale>  0 0.57083910E+02</rscale>
<asrwt>0</asrwt>
<pdfrwt beam="1">  1        2 0.53028966E-01 0.95961305E+02</pdfrwt>
<pdfrwt beam="2">  1        1 0.17395888E+00 0.33957154E+02</pdfrwt>
<totfact> 0.19226866E+02</totfact>
</mgrwt>
</event>
<event>
 5    1  0.9399923E-003  0.8580583E+02  0.7546771E-02  0.1445484E+00
          1   -1    0    0  501    0 -0.00000000000E+00  0.00000000000E+00  0.44985536541E+03  0.44985536541E+03  0.00000000000E+00 0. -1.
          2   -1    0    0  502    0  0.00000000000E+00 -0.00000000000E+00 -0.12754921450E+04  0.12754921450E+04  0.00000000000E+00 0. -1.
         25    1    1    2    0    0  0.54175351699E+02  0.77616063348E+02 -0.73478242058E+02  0.17315679045E+03  0.12500000000E+03 0.  0.
          2    1    1    2  501    0 -0.68027055957E+02 -0.52018852933E+02  0.39524609817E+03  0.40441701190E+03  0.00000000000E+00 0. -1.
          1    1    1    2  502    0  0.13851704258E+02 -0.25597210414E+02 -0.11474046357E+04  0.11477737080E+04  0.00000000000E+00 0. -1.
<mgrwt>
<rscale>  0 0.49973571E+02</rscale>
<asrwt>0</asrwt>
<pdfrwt beam="2">  1        2 0.19622956E+00 0.29104757E+02</pdfrwt>
<pdfrwt beam="1">  1        1 0.69208519E-01 0.85805827E+02</pdfrwt>
<totfact> 0.15387651E+02</totfact>
</mgrwt>
</event>
<event>
 5    1  0.9399923E-003  0.6807351E+02  0.7546771E-02  0.1440339E+00
          1   -1    0    0  501    0 -0.00000000000E+00  0.00000000000E+00  0.12988333737E+03  0.12988333737E+03  0.00000000000E+00 0. -1.
          2   -1    0    0  502    0  0.00000000000E+00 -0.00000000000E+00 -0.34551157390E+03  0.34551157390E+03  0.00000000000E+00 0. -1.
         25    1    1    2    0    0  0.83383538328E+01 -0.10309548829E+03 -0.14700058017E+03  0.21893464418E+03  0.12500000000E+03 0.  0.
          2    1    1    2  501    0 -0.10129465263E+02  0.65019545251E+02  0.79675920352E+02  0.10333634218E+03  0.00000000000E+00 0. -1.
          3    1    1    2  502    0  0.17911114307E+01  0.38075943037E+02 -0.14830357670E+03  0.15312392491E+03  0.00000000000E+00 0. -1.
<mgrwt>
<rscale>  0 0.50939465E+02</rscale>
<asrwt>0</asrwt>
<pdfrwt beam="2">  1        2 0.53155626E-01 0.38118047E+02</pdfrwt>
<pdfrwt beam="1">  1        1 0.19982052E-01 0.68073506E+02</pdfrwt>
<totfact> 0.30880580E+03</totfact>
</mgrwt>
</event>
<event>
 5    1  0.9399923E-003  0.5568272E+02  0.7546771E-02  0.1435997E+00
         -2   -1    0    0    0  501 -0.00000000000E+00  0.00000000000E+00  0.52773870161E+03  0.52773870161E+03  0.00000000000E+00 0.  1.
          2   -1    0    0  502    0  0.00000000000E+00 -0.00000000000E+00 -0.65613534819E+03  0.65613534819E+03  0.00000000000E+00 0. -1.
         25    1    1    2    0    0  0.37773191885E+02 -0.92538697674E+02 -0.81351307301E+02  0.17953623532E+03  0.12500000000E+03 0.  0.
          1    1    1    2  502    0 -0.29590790419E+02  0.37973048633E+02 -0.52299230292E+03  0.52520330941E+03  0.00000000000E+00 0. -1.
         -1    1    1    2    0  501 -0.81824014658E+01  0.54565649042E+02  0.47594696365E+03  0.47913450508E+03  0.00000000000E+00 0.  1.
<mgrwt>
<rscale>  0 0.51774787E+02</rscale>
<asrwt>0</asrwt>
<pdfrwt beam="2">  1        2 0.10094390E+00 0.48141119E+02</pdfrwt>
<pdfrwt beam="1">  1       -2 0.81190570E-01 0.55682723E+02</pdfrwt>
<totfact> 0.68408564E+01</totfact>
</mgrwt>
</event>
<event>
 5    1  0.9399923E-003  0.8876244E+02  0.7546771E-02  0.1438130E+00
          2   -1    0    0  502    0  0.00000000000E+00  0.00000000000E+00  0.21849301502E+04  0.21849301502E+04  0.00000000000E+00 0. -1.
         -2   -1    0    0    0  501 -0.00000000000E+00 -0.00000000000E+00 -0.83629009157E+02  0.83629009157E+02  0.00000000000E+00 0.  1.
         25    1    1    2    0    0  0.28631287259E+02  0.65818937486E+02  0.10166204819E+04  0.10267882388E+04  0.12500000000E+03 0.  0.
          1    1    1    2  502    0 -0.18925541856E+02  0.22915902216E+02  0.11376074344E+04  0.11379956017E+04  0.00000000000E+00 0. -1.
         -1    1    1    2    0  501 -0.97057454028E+01 -0.88734839702E+02 -0.52926775224E+02  0.10377531887E+03  0.00000000000E+00 0.  1.
<mgrwt>
<rscale>  0 0.51362183E+02</rscale>
<asrwt>0</asrwt>
<pdfrwt beam="1">  1        2 0.33614306E+00 0.29720611E+02</pdfrwt>
<pdfrwt beam="2">  1       -2 0.12866003E-01 0.88762436E+02</pdfrwt>
<totfact> 0.32464767E+02</totfact>
</mgrwt>
</event>
<event>
 5    1  0.9399923E-003  0.3312200E+02  0.7546771E-02  0.1585861E+00
          2   -1    0    0  502    0  0.00000000000E+00  0.00000000000E+00  0.42274894268E+04  0.42274894268E+04  0.00000000000E+00 0. -1.
         -2   -1    0    0    0  501 -0.00000000000E+00 -0.00000000000E+00 -0.55974753718E+01  0.55974753718E+01  0.00000000000E+00 0.  1.
         25    1    1    2    0    0  0.47885563525E+02 -0.52391532856E+01  0.32482418486E+04  0.32510030118E+04  0.12500000000E+03 0.  0.
          1    1    1    2  502    0 -0.23685149526E+02 -0.17195613443E+02  0.90925256295E+03  0.90972352870E+03  0.00000000000E+00 0. -1.
         -1    1    1    2    0  501 -0.24200413999E+02  0.22434766729E+02  0.64397539902E+02  0.72360361672E+02  0.00000000000E+00 0.  1.
<mgrwt>
<rscale>  0 0.31135969E+02</rscale>
<asrwt>0</asrwt>
<pdfrwt beam="1">  1        2 0.65038044E+00 0.29269018E+02</pdfrwt>
<pdfrwt beam="2">  1       -2 0.86115344E-03 0.33122004E+02</pdfrwt>
<totfact> 0.92829600E+02</totfact>
</mgrwt>
</event>
<event>
 5    1  0.9399923E-003  0.1276634E+03  0.7546771E-02  0.1288151E+00
          1   -1    0    0  501    0 -0.00000000000E+00  0.00000000000E+00  0.80510283664E+03  0.80510283664E+03  0.00000000000E+00 0. -1.
          2   -1    0    0  502    0  0.00000000000E+00 -0.00000000000E+00 -0.15427549528E+03  0.15427549528E+03  0.00000000000E+00 0. -1.
         25    1    1    2    0    0 -0.16810117638E+03 -0.98290104726E+02  0.93343224178E+02  0.24951334170E+03  0.12500000000E+03 0.  0.
          2    1    1    2  501    0  0.10234885032E+03  0.67213238693E+02  0.60871350667E+03  0.62090662729E+03  0.00000000000E+00 0. -1.
          1    1    1    2  502    0  0.65752326064E+02  0.31076866033E+02 -0.51229389490E+02  0.88958362916E+02  0.00000000000E+00 0. -1.
<mgrwt>
<rscale>  0 0.96356149E+02</rscale>
<asrwt>0</asrwt>
<pdfrwt beam="2">  1        2 0.23734692E-01 0.72726474E+02</pdfrwt>
<pdfrwt beam="1">  1        1 0.12386197E+00 0.12766338E+03</pdfrwt>
<totfact> 0.70802084E+02</totfact>
</mgrwt>
</event>
<event>
 5    1  0.9399923E-003  0.5441136E+02  0.7546771E-02  0.1485359E+00
         -1   -1    0    0    0  501 -0.00000000000E+00  0.00000000000E+00  0.19467709321E+02  0.19467709321E+02  0.00000000000E+00 0.  1.
          1   -1    0    0  502    0  0.00000000000E+00 -0.00000000000E+00 -0.21247692433E+04  0.21247692433E+04  0.00000000000E+00 0. -1.
         25    1    1    2    0    0  0.61376060654E+01  0.65065625032E+02 -0.11469973330E+04  0.11556379571E+04  0.12500000000E+03 0.  0.
          2    1    1    2  502    0 -0.32551747821E+02 -0.42982202394E+02 -0.95208733071E+03  0.95361279947E+03  0.00000000000E+00 0. -1.
         -2    1    1    2    0  501  0.26414141756E+02 -0.22083422638E+02 -0.62168701868E+01  0.34986196064E+02  0.00000000000E+00 0.  1.
<mgrwt>
<rscale>  0 0.43282229E+02</rscale>
<asrwt>0</asrwt>
<pdfrwt beam="2">  1        1 0.32688733E+00 0.54411365E+02</pdfrwt>
<pdfrwt beam="1">  1       -1 0.29950344E-02 0.34429412E+02</pdfrwt>
<totfact> 0.10178788E+03</totfact>
</mgrwt>
</event>
<event>
 5    1  0.9399923E-003  0.7125229E+02  0.7546771E-02  0.1481038E+00
          2   -1    0    0  502    0  0.00000000000E+00  0.00000000000E+00  0.11899018723E+04  0.11899018723E+04  0.00000000000E+00 0. -1.
          1   -1    0    0  501    0 -0.00000000000E+00 -0.00000000000E+00 -0.17155376293E+02  0.17155376293E+02  0.00000000000E+00 0. -1.
         25    1    1    2    0    0  0.41270295909E+02 -0.34150701863E+02  0.35984733460E+03  0.38468768109E+03  0.12500000000E+03 0.  0.
          2    1    1    2  501    0  0.47614351892E+00 -0.27098849772E+02  0.60083870677E+02  0.65913927869E+02  0.00000000000E+00 0. -1.
          1    1    1    2  502    0 -0.41746439428E+02  0.61249551634E+02  0.75281529070E+03  0.75645563961E+03  0.00000000000E+00 0. -1.
<mgrwt>
<rscale>  0 0.43944889E+02</rscale>
<asrwt>0</asrwt>
<pdfrwt beam="1">  1        2 0.18306176E+00 0.71252294E+02</pdfrwt>
<pdfrwt beam="2">  1        1 0.26392896E-02 0.27103033E+02</pdfrwt>
<totfact> 0.91197086E+03</totfact>
</mgrwt>
</event>
<event>
 5    1  0.9399923E-003  0.1044206E+03  0.7546771E-02  0.1280799E+00
          1   -1    0    0  501    0 -0.00000000000E+00  0.00000000000E+00  0.12365052681E+04  0.12365052681E+04  0.00000000000E+00 0. -1.
          2   -1    0    0  502    0  0.00000000000E+00 -0.00000000000E+00 -0.13024477351E+03  0.13024477351E+03  0.00000000000E+00 0. -1.
         25    1    1    2    0    0  0.56853119946E+01  0.72162302062E+02  0.19856809443E+03  0.24554838370E+03  0.12500000000E+03 0.  0.
          2    1    1    2  501    0 -0.99258561950E+02 -0.54051569368E+02  0.98929542642E+03  0.99573052329E+03  0.00000000000E+00 0. -1.
          1    1    1    2  502    0  0.93573249955E+02 -0.18110732695E+02 -0.81603026223E+02  0.12547113467E+03  0.00000000000E+00 0. -1.
<mgrwt>
<rscale>  0 0.99761209E+02</rscale>
<asrwt>0</asrwt>
<pdfrwt beam="2">  1        2 0.20037658E-01 0.95309767E+02</pdfrwt>
<pdfrwt beam="1">  1        1 0.19023157E+00 0.10442055E+03</pdfrwt>
<totfact> 0.42357944E+02</totfact>
</mgrwt>
</event>
<event>
 5    1  0.9399923E-003  0.6995830E+02  0.7546771E-02  0.1381118E+00
          2   -1    0    0  502    0  0.00000000000E+00  0.00000000000E+00  0.21157364218E+04  0.21157364218E+04  0.00000000000E+00 0. -1.
          1   -1    0    0  501    0 -0.00000000000E+00 -0.00000000000E+00 -0.17253262287E+04  0.17253262287E+04  0.00000000000E+00 0. -1.
         25    1    1    2    0    0  0.24038364654E+02 -0.35665242146E+02  0.59188399619E+03  0.60646641904E+03  0.12500000000E+03 0.  0.
          2    1    1    2  501    0 -0.70004975598E+02 -0.11016648183E+01 -0.17167500594E+04  0.17181771378E+04  0.00000000000E+00 0. -1.
          1    1    1    2  502    0  0.45966610943E+02  0.36766906965E+02  0.15152762563E+04  0.15164190937E+04  0.00000000000E+00 0. -1.
<mgrwt>
<rscale>  0 0.64170751E+02</rscale>
<asrwt>0</asrwt>
<pdfrwt beam="1">  1        2 0.32549791E+00 0.58861998E+02</pdfrwt>
<pdfrwt beam="2">  1        1 0.26543480E+00 0.69958300E+02</pdfrwt>
<totfact> 0.62066477E+00</totfact>
</mgrwt>
</event>
<event>
 5    1  0.9399923E-003  0.9754226E+02  0.7546771E-02  0.1337525E+00
          2   -1    0    0  502    0  0.00000000000E+00  0.00000000000E+00  0.50216672900E+03  0.50216672900E+03  0.00000000000E+00 0. -1.
          1   -1    0    0  501    0 -0.00000000000E+00 -0.00000000000E+00 -0.36073539978E+03  0.36073539978E+03  0.00000000000E+00 0. -1.
         25    1    1    2    0    0  0.11753374684E+02 -0.50058041112E+02  0.13003748845E+03  0.18755985098E+03  0.12500000000E+03 0.  0.
          2    1    1    2  501    0  0.28270778258E+02  0.95988768132E+02 -0.32160684430E+03  0.33681455255E+03  0.00000000000E+00 0. -1.
          1    1    1    2  502    0 -0.40024152942E+02 -0.45930727020E+02  0.33300068507E+03  0.33852772525E+03  0.00000000000E+00 0. -1.
<mgrwt>
<rscale>  0 0.77087801E+02</rscale>
<asrwt>0</asrwt>
<pdfrwt beam="1">  1        2 0.77256420E-01 0.60922611E+02</pdfrwt>
<pdfrwt beam="2">  1        1 0.55497754E-01 0.97542258E+02</pdfrwt>
<totfact> 0.60296151E+02</totfact>
</mgrwt>
</event>
<event>
 5    1  0.9399923E-003  0.9774921E+02  0.7546771E-02  0.1320938E+00
         -2   -1    0    0    0  501 -0.00000000000E+00  0.00000000000E+00  0.38347744595E+03  0.38347744595E+03  0.00000000000E+00 0.  1.
          2   -1    0    0  502    0  0.00000000000E+00 -0.00000000000E+00 -0.44734398277E+03  0.44734398277E+03  0.00000000000E+00 0. -1.
         25    1    1    2    0    0  0.39605323051E+02  0.15757425242E+03  0.18882514680E+02  0.20586348875E+03  0.12500000000E+03 0.  0.
          1    1    1    2  502    0 -0.13983292582E+02 -0.68953024540E+02 -0.34232317181E+03  0.34947847720E+03  0.00000000000E+00 0. -1.
         -1    1    1    2    0  501 -0.25622030469E+02 -0.88621227881E+02  0.25957412031E+03  0.27547946278E+03  0.00000000000E+00 0.  1.
<mgrwt>
<rscale>  0 0.82929506E+02</rscale>
<asrwt>0</asrwt>
<pdfrwt beam="2">  1        2 0.68822151E-01 0.70356606E+02</pdfrwt>
<pdfrwt beam="1">  1       -2 0.58996531E-01 0.97749214E+02</pdfrwt>
<totfact> 0.19933575E+02</totfact>
</mgrwt>
</event>
<event>
 5    1  0.9399923E-003  0.7954607E+02  0.7546771E-02  0.1353118E+00
         -1   -1    0    0    0  501 -0.00000000000E+00  0.00000000000E+00  0.27018927810E+03  0.27018927810E+03  0.00000000000E+00 0.  1.
          1   -1    0    0  502    0  0.00000000000E+00 -0.00000000000E+00 -0.34109435195E+04  0.34109435195E+04  0.00000000000E+00 0. -1.
         25    1    1    2    0    0  0.59416554382E+02 -0.36422043789E+02  0.95305572501E+02  0.17194488756E+03  0.12500000000E+03 0.  0.
          2    1    1    2  502    0 -0.40266314060E+02 -0.51455176203E+02 -0.33574631496E+04  0.33580988389E+04  0.00000000000E+00 0. -1.
         -2    1    1    2    0  501 -0.19150240322E+02  0.87877219992E+02  0.12140333567E+03  0.15108907112E+03  0.00000000000E+00 0.  1.
<mgrwt>
<rscale>  0 0.72092685E+02</rscale>
<asrwt>0</asrwt>
<pdfrwt beam="2">  1        1 0.52476054E+00 0.65337671E+02</pdfrwt>
<pdfrwt beam="1">  1       -1 0.41567581E-01 0.79546074E+02</pdfrwt>
<totfact> 0.27800288E+00</totfact>
</mgrwt>
</event>
<event>
 5    1  0.9399923E-003  0.1248684E+03  0.7546771E-02  0.1431655E+00
         -1   -1    0    0    0  501 -0.00000000000E+00  0.00000000000E+00  0.35517079547E+03  0.35517079547E+03  0.00000000000E+00 0.  1.
          1   -1    0    0  502    0  0.00000000000E+00 -0.00000000000E+00 -0.83879404762E+02  0.83879404762E+02  0.00000000000E+00 0. -1.
         25    1    1    2    0    0 -0.78406580367E+02  0.10879610112E+03  0.12031041845E+03  0.21928014103E+03  0.12500000000E+03 0.  0.
          2    1    1    2  502    0  0.22146010445E+02 -0.12640790265E+01 -0.43968629437E+01  0.22613625940E+02  0.00000000000E+00 0. -1.
         -2    1    1    2    0  501  0.56260569922E+02 -0.10753202209E+03  0.15537783520E+03  0.19715643326E+03  0.00000000000E+00 0.  1.
<mgrwt>
<rscale>  0 0.52629245E+02</rscale>
<asrwt>0</asrwt>
<pdfrwt beam="2">  1        1 0.12904524E-01 0.22182057E+02</pdfrwt>
<pdfrwt beam="1">  1       -1 0.54641660E-01 0.12486837E+03</pdfrwt>
<totfact> 0.13826568E+03</totfact>
</mgrwt>
</event>
<event>
 5    1  0.9399923E-003  0.1605832E+03  0.7546771E-02  0.1302492E+00
          2   -1    0    0  502    0  0.00000000000E+00  0.00000000000E+00  0.95185309445E+03  0.95185309445E+03  0.00000000000E+00 0. -1.
          1   -1    0    0  501    0 -0.00000000000E+00 -0.00000000000E+00 -0.50516455871E+03  0.50516455871E+03  0.00000000000E+00 0. -1.
         25    1    1    2    0    0  0.17702964164E+03 -0.10647178610E+03  0.54398291073E+03  0.59516228243E+03  0.12500000000E+03 0.  0.
          2    1    1    2  501    0 -0.14442355846E+03  0.67767826711E+02 -0.46452403351E+03  0.49115498601E+03  0.00000000000E+00 0. -1.
          1    1    1    2  502    0 -0.32606083174E+02  0.38703959386E+02  0.36722965852E+03  0.37070038472E+03  0.00000000000E+00 0. -1.
<mgrwt>
<rscale>  0 0.90148588E+02</rscale>
<asrwt>0</asrwt>
<pdfrwt beam="1">  1        2 0.14643894E+00 0.50607837E+02</pdfrwt>
<pdfrwt beam="2">  1        1 0.77717624E-01 0.16058319E+03</pdfrwt>
<totfact> 0.18837156E+02</totfact>
</mgrwt>
</event>
<event>
 5    1  0.9399923E-003  0.8182090E+02  0.7546771E-02  0.1359734E+00
          2   -1    0    0  502    0  0.00000000000E+00  0.00000000000E+00  0.40377171539E+04  0.40377171539E+04  0.00000000000E+00 0. -1.
         -2   -1    0    0    0  501 -0.00000000000E+00 -0.00000000000E+00 -0.50032448193E+02  0.50032448193E+02  0.00000000000E+00 0.  1.
         25    1    1    2    0    0 -0.65589392756E+01 -0.45773765654E+02  0.16376213239E+03  0.21114282680E+03  0.12500000000E+03 0.  0.
          1    1    1    2  502    0  0.26159724857E+02 -0.54072087269E+02  0.37508600411E+04  0.37513409829E+04  0.00000000000E+00 0. -1.
         -1    1    1    2    0  501 -0.19600785582E+02  0.99845852923E+02  0.73062532267E+02  0.12526579247E+03  0.00000000000E+00 0.  1.
<mgrwt>
<rscale>  0 0.70105554E+02</rscale>
<asrwt>0</asrwt>
<pdfrwt beam="1">  1        2 0.62118700E+00 0.60067644E+02</pdfrwt>
<pdfrwt beam="2">  1       -2 0.76973029E-02 0.81820900E+02</pdfrwt>
<totfact> 0.53389547E+01</totfact>
</mgrwt>
</event>
<event>
 5    1  0.9399923E-003  0.9014310E+02  0.7546771E-02  0.1379849E+00
          2   -1    0    0  502    0  0.00000000000E+00  0.00000000000E+00  0.18659376833E+04  0.18659376833E+04  0.00000000000E+00 0. -1.
          1   -1    0    0  501    0 -0.00000000000E+00 -0.00000000000E+00 -0.24738406041E+03  0.24738406041E+03  0.00000000000E+00 0. -1.
         25    1    1    2    0    0  0.23090647207E+02  0.43551019271E+02  0.25384620582E+03  0.28721553836E+03  0.12500000000E+03 0.  0.
          2    1    1    2  501    0 -0.19202286919E+02 -0.89543418610E+02 -0.22126199799E+03  0.23946528641E+03  0.00000000000E+00 0. -1.
          1    1    1    2  502    0 -0.38883602883E+01  0.45992399339E+02  0.15859694151E+04  0.15866409190E+04  0.00000000000E+00 0. -1.
<mgrwt>
<rscale>  0 0.64503393E+02</rscale>
<asrwt>0</asrwt>
<pdfrwt beam="1">  1        2 0.28706733E+00 0.46156475E+02</pdfrwt>
<pdfrwt beam="2">  1        1 0.38059087E-01 0.90143099E+02</pdfrwt>
<totfact> 0.15878699E+02</totfact>
</mgrwt>
</event>
<event>
 5    1  0.9399923E-003  0.9308122E+02  0.7546771E-02  0.1421490E+00
         -2   -1    0    0    0  501 -0.00000000000E+00  0.00000000000E+00  0.32683553030E+02  0.32683553030E+02  0.00000000000E+00 0.  1.
          2   -1    0    0  502    0  0.00000000000E+00 -0.00000000000E+00 -0.12219224929E+04  0.12219224929E+04  0.00000000000E+00 0. -1.
         25    1    1    2    0    0 -0.23865014356E+02 -0.10320587034E+03 -0.78689880568E+03  0.80377591464E+03  0.12500000000E+03 0.  0.
          1    1    1    2  502    0  0.41953901974E+02  0.76623757633E+02 -0.40880423705E+03  0.41803377179E+03  0.00000000000E+00 0. -1.
         -1    1    1    2    0  501 -0.18088887618E+02  0.26582112711E+02  0.64641028482E+01  0.32796359509E+02  0.00000000000E+00 0.  1.
<mgrwt>
<rscale>  0 0.54706876E+02</rscale>
<asrwt>0</asrwt>
<pdfrwt beam="2">  1        2 0.18798808E+00 0.93081224E+02</pdfrwt>
<pdfrwt beam="1">  1       -2 0.50282388E-02 0.32153018E+02</pdfrwt>
<totfact> 0.32660467E+03</totfact>
</mgrwt>
</event>
<event>
 5    1  0.9399923E-003  0.3112765E+02  0.7546771E-02  0.1641237E+00
          2   -1    0    0  502    0  0.00000000000E+00  0.00000000000E+00  0.20248903549E+04  0.20248903549E+04  0.00000000000E+00 0. -1.
          1   -1    0    0  501    0 -0.00000000000E+00 -0.00000000000E+00 -0.32011123257E+03  0.32011123257E+03  0.00000000000E+00 0. -1.
         25    1    1    2    0    0 -0.39222265306E+02 -0.65825385190E+01  0.90136462746E+03  0.91085943347E+03  0.12500000000E+03 0.  0.
          2    1    1    2  501    0  0.22478095478E+02  0.21530753084E+02 -0.31448286388E+03  0.31601947690E+03  0.00000000000E+00 0. -1.
          1    1    1    2  502    0  0.16744169829E+02 -0.14948214565E+02  0.11178973588E+04  0.11181226771E+04  0.00000000000E+00 0. -1.
<mgrwt>
<rscale>  0 0.26432684E+02</rscale>
<asrwt>0</asrwt>
<pdfrwt beam="1">  1        2 0.31152158E+00 0.22445854E+02</pdfrwt>
<pdfrwt beam="2">  1        1 0.49247883E-01 0.31127654E+02</pdfrwt>
<totfact> 0.10628137E+02</totfact>
</mgrwt>
</event>
<event>
 5    1  0.9399923E-003  0.1106389E+03  0.7546771E-02  0.1360521E+00
          2   -1    0    0  502    0  0.00000000000E+00  0.00000000000E+00  0.26065545945E+03  0.26065545945E+03  0.00000000000E+00 0. -1.
          1   -1    0    0  501    0 -0.00000000000E+00 -0.00000000000E+00 -0.19897112711E+04  0.19897112711E+04  0.00000000000E+00 0. -1.
         25    1    1    2    0    0  0.16918000551E+02 -0.66135871934E+02 -0.30707371936E+03  0.33849585141E+03  0.12500000000E+03 0.  0.
          2    1    1    2  501    0  0.79974616044E+01 -0.43398696828E+02 -0.16537376008E+04  0.16543262854E+04  0.00000000000E+00 0. -1.
          1    1    1    2  502    0 -0.24915462155E+02  0.10953456876E+03  0.23175550854E+03  0.25754459371E+03  0.00000000000E+00 0. -1.
<mgrwt>
<rscale>  0 0.69874387E+02</rscale>
<asrwt>0</asrwt>
<pdfrwt beam="1">  1        2 0.40100840E-01 0.11063887E+03</pdfrwt>
<pdfrwt beam="2">  1        1 0.30610943E+00 0.44129426E+02</pdfrwt>
<totfact> 0.73869721E+01</totfact>
</mgrwt>
</event>
<event>
 5    1  0.9399923E-003  0.5762471E+02  0.7546771E-02  0.1526517E+00
          2   -1    0    0  502    0  0.00000000000E+00  0.00000000000E+00  0.41546834864E+03  0.41546834864E+03  0.00000000000E+00 0. -1.
          1   -1    0    0  501    0 -0.00000000000E+00 -0.00000000000E+00 -0.54305685040E+03  0.54305685040E+03  0.00000000000E+00 0. -1.
         25    1    1    2    0    0 -0.36042101272E+02 -0.26884997997E+02  0.10048705256E+03  0.16656675513E+03  0.12500000000E+03 0.  0.
          2    1    1    2  501    0  0.57472178492E+01 -0.23874266699E+02 -0.50661792312E+03  0.50721270799E+03  0.00000000000E+00 0. -1.
          3    1    1    2  502    0  0.30294883422E+02  0.50759264696E+02  0.27854236879E+03  0.28474573592E+03  0.00000000000E+00 0. -1.
<mgrwt>
<rscale>  0 0.37617135E+02</rscale>
<asrwt>0</asrwt>
<pdfrwt beam="1">  1        2 0.63918208E-01 0.57624712E+02</pdfrwt>
<pdfrwt beam="2">  1        1 0.83547207E-01 0.24556285E+02</pdfrwt>
<totfact> 0.45482981E+02</totfact>
</mgrwt>
</event>
<event>
 5    1  0.9399923E-003  0.6739095E+02  0.7546771E-02  0.1428151E+00
          2   -1    0    0  502    0  0.00000000000E+00  0.00000000000E+00  0.23494305522E+04  0.23494305522E+04  0.00000000000E+00 0. -1.
          1   -1    0    0  501    0 -0.00000000000E+00 -0.00000000000E+00 -0.63182240369E+02  0.63182240369E+02  0.00000000000E+00 0. -1.
         25    1    1    2    0    0  0.19387179907E+02  0.10420514366E+03  0.28771917537E+03  0.33112218075E+03  0.12500000000E+03 0.  0.
          2    1    1    2  501    0 -0.16699590264E+02 -0.62083298347E+02 -0.16215829993E+02  0.66303585054E+02  0.00000000000E+00 0. -1.
          1    1    1    2  502    0 -0.26875896432E+01 -0.42121845308E+02  0.20147449664E+04  0.20151870267E+04  0.00000000000E+00 0. -1.
<mgrwt>
<rscale>  0 0.53332950E+02</rscale>
<asrwt>0</asrwt>
<pdfrwt beam="1">  1        2 0.36145079E+00 0.42207499E+02</pdfrwt>
<pdfrwt beam="2">  1        1 0.97203465E-02 0.67390953E+02</pdfrwt>
<totfact> 0.51082354E+02</totfact>
</mgrwt>
</event>
<event>
 5    1  0.1163843E-002  0.6139690E+02  0.7546771E-02  0.1421792E+00
          2   -1    0    0  502    0  0.00000000000E+00  0.00000000000E+00  0.24558272287E+04  0.24558272287E+04  0.00000000000E+00 0. -1.
         -2   -1    0    0    0  501 -0.00000000000E+00 -0.00000000000E+00 -0.68204382691E+01  0.68204382691E+01  0.00000000000E+00 0.  1.
         25    1    1    2    0    0 -0.61517665505E+02  0.32810994573E+02  0.14642922633E+04  0.14712708170E+04  0.12500000000E+03 0.  0.
          1    1    1    2  502    0  0.21024957344E+02 -0.59746672753E+02  0.66128370506E+03  0.66431005736E+03  0.00000000000E+00 0. -1.
         -1    1    1    2    0  501  0.40492708162E+02  0.26935678181E+02  0.32343082203E+03  0.32706679258E+03  0.00000000000E+00 0.  1.
<mgrwt>
<rscale>  0 0.54643653E+02</rscale>
<asrwt>0</asrwt>
<pdfrwt beam="1">  1        2 0.37781887E+00 0.61396897E+02</pdfrwt>
<pdfrwt beam="2">  1       -2 0.10493002E-02 0.48633221E+02</pdfrwt>
<totfact> 0.78531797E+03</totfact>
</mgrwt>
</event>
<event>
 5    1  0.9399923E-003  0.1886627E+03  0.7546771E-02  0.1188110E+00
          1   -1    0    0  501    0 -0.00000000000E+00  0.00000000000E+00  0.16277849044E+04  0.16277849044E+04  0.00000000000E+00 0. -1.
          2   -1    0    0  502    0  0.00000000000E+00 -0.00000000000E+00 -0.52937255197E+03  0.52937255197E+03  0.00000000000E+00 0. -1.
         25    1    1    2    0    0  0.59828027611E+02 -0.96237629704E+01 -0.15056907638E+03  0.20486106624E+03  0.12500000000E+03 0.  0.
          2    1    1    2  501    0 -0.19075567975E+03 -0.29251969685E+02  0.15812865104E+04  0.15930192827E+04  0.00000000000E+00 0. -1.
          1    1    1    2  502    0  0.13092765214E+03  0.38875732656E+02 -0.33230508158E+03  0.35927710744E+03  0.00000000000E+00 0. -1.
<mgrwt>
<rscale>  0 0.16052117E+03</rscale>
<asrwt>0</asrwt>
<pdfrwt beam="2">  1        2 0.81441932E-01 0.13657735E+03</pdfrwt>
<pdfrwt beam="1">  1        1 0.25042844E+00 0.18866266E+03</pdfrwt>
<totfact> 0.49463439E+01</totfact>
</mgrwt>
</event>
<event>
 5    1  0.9399923E-003  0.4737192E+02  0.7546771E-02  0.1520728E+00
          2   -1    0    0  502    0  0.00000000000E+00  0.00000000000E+00  0.37553048011E+03  0.37553048011E+03  0.00000000000E+00 0. -1.
         -2   -1    0    0    0  501 -0.00000000000E+00 -0.00000000000E+00 -0.29031756076E+03  0.29031756076E+03  0.00000000000E+00 0.  1.
         25    1    1    2    0    0 -0.54722916530E+02  0.46105777390E+02  0.11460633913E+03  0.18406507890E+03  0.12500000000E+03 0.  0.
          1    1    1    2  502    0  0.24540626099E+02 -0.38842264825E+02  0.22290041062E+03  0.22758637244E+03  0.00000000000E+00 0. -1.
         -1    1    1    2    0  501  0.30182290430E+02 -0.72635125651E+01 -0.25229383040E+03  0.25419658953E+03  0.00000000000E+00 0.  1.
<mgrwt>
<rscale>  0 0.38348576E+02</rscale>
<asrwt>0</asrwt>
<pdfrwt beam="1">  1        2 0.57773920E-01 0.47371918E+02</pdfrwt>
<pdfrwt beam="2">  1       -2 0.44664240E-01 0.31043989E+02</pdfrwt>
<totfact> 0.40894800E+02</totfact>
</mgrwt>
</event>
<event>
 5    1  0.9399923E-003  0.2947766E+02  0.7546771E-02  0.1641691E+00
          1   -1    0    0  501    0 -0.00000000000E+00  0.00000000000E+00  0.60700362984E+02  0.60700362984E+02  0.00000000000E+00 0. -1.
          2   -1    0    0  502    0  0.00000000000E+00 -0.00000000000E+00 -0.15048797511E+04  0.15048797511E+04  0.00000000000E+00 0. -1.
         25    1    1    2    0    0  0.30531809563E+01  0.10306088735E+02 -0.44946824953E+03  0.46665002381E+03  0.12500000000E+03 0.  0.
          2    1    1    2  501    0 -0.17276683694E+02  0.16137331556E+02  0.49201096094E+02  0.54586125766E+02  0.00000000000E+00 0. -1.
          1    1    1    2  502    0  0.14223502738E+02 -0.26443420291E+02 -0.10439122347E+04  0.10443439645E+04  0.00000000000E+00 0. -1.
<mgrwt>
<rscale>  0 0.26398516E+02</rscale>
<asrwt>0</asrwt>
<pdfrwt beam="2">  1        2 0.23151998E+00 0.29477661E+02</pdfrwt>
<pdfrwt beam="1">  1        1 0.93385167E-02 0.23641008E+02</pdfrwt>
<totfact> 0.13081561E+03</totfact>
</mgrwt>
</event>
<event>
 5    1  0.9399923E-003  0.2540424E+03  0.7546771E-02  0.1287420E+00
          1   -1    0    0  501    0 -0.00000000000E+00  0.00000000000E+00  0.40709715777E+03  0.40709715777E+03  0.00000000000E+00 0. -1.
          2   -1    0    0  502    0  0.00000000000E+00 -0.00000000000E+00 -0.16962457525E+04  0.16962457525E+04  0.00000000000E+00 0. -1.
         25    1    1    2    0    0 -0.43020846132E+02 -0.23392650524E+03 -0.55378536165E+03  0.61552874005E+03  0.12500000000E+03 0.  0.
          2    1    1    2  501    0 -0.32243707015E+02 -0.17734320043E+02  0.35975591188E+03  0.36163307216E+03  0.00000000000E+00 0. -1.
          1    1    1    2  502    0  0.75264553147E+02  0.25166082528E+03 -0.10951191449E+04  0.11261810980E+04  0.00000000000E+00 0. -1.
<mgrwt>
<rscale>  0 0.96687616E+02</rscale>
<asrwt>0</asrwt>
<pdfrwt beam="2">  1        2 0.26096089E+00 0.25404244E+03</pdfrwt>
<pdfrwt beam="1">  1        1 0.62630332E-01 0.36798950E+02</pdfrwt>
<totfact> 0.90024194E+01</totfact>
</mgrwt>
</event>
<event>
 5    1  0.9399923E-003  0.7082885E+02  0.7546771E-02  0.1390197E+00
          1   -1    0    0  501    0 -0.00000000000E+00  0.00000000000E+00  0.27935018162E+03  0.27935018162E+03  0.00000000000E+00 0. -1.
          2   -1    0    0  502    0  0.00000000000E+00 -0.00000000000E+00 -0.11467026334E+03  0.11467026334E+03  0.00000000000E+00 0. -1.
         25    1    1    2    0    0  0.67592497944E+02  0.78055726078E+02 -0.14148507859E+02  0.16274711188E+03  0.12500000000E+03 0.  0.
          2    1    1    2  501    0 -0.17916511039E+02 -0.50965448216E+02  0.16415956308E+03  0.17282025469E+03  0.00000000000E+00 0. -1.
          1    1    1    2  502    0 -0.49675986904E+02 -0.27090277862E+02  0.14668863057E+02  0.58453078387E+02  0.00000000000E+00 0. -1.
<mgrwt>
<rscale>  0 0.61857765E+02</rscale>
<asrwt>0</asrwt>
<pdfrwt beam="2">  1        2 0.17641579E-01 0.70828854E+02</pdfrwt>
<pdfrwt beam="1">  1        1 0.42976951E-01 0.54022942E+02</pdfrwt>
<totfact> 0.39368297E+03</totfact>
</mgrwt>
</event>
<event>
 5    1  0.9399923E-003  0.5335368E+02  0.7546771E-02  0.1489437E+00
          1   -1    0    0  501    0 -0.00000000000E+00  0.00000000000E+00  0.20235470867E+04  0.20235470867E+04  0.00000000000E+00 0. -1.
          2   -1    0    0  502    0  0.00000000000E+00 -0.00000000000E+00 -0.46152161808E+02  0.46152161808E+02  0.00000000000E+00 0. -1.
         25    1    1    2    0    0 -0.73758194075E+02  0.11197080618E+02  0.26812368390E+03  0.30509171682E+03  0.12500000000E+03 0.  0.
          2    1    1    2  501    0  0.44523826632E+02 -0.28800076640E+02  0.17258528470E+04  0.17266672711E+04  0.00000000000E+00 0. -1.
          1    1    1    2  502    0  0.29234367443E+02  0.17602996022E+02 -0.16581606075E+02  0.37940260525E+02  0.00000000000E+00 0. -1.
<mgrwt>
<rscale>  0 0.42669578E+02</rscale>
<asrwt>0</asrwt>
<pdfrwt beam="2">  1        2 0.71003341E-02 0.34124972E+02</pdfrwt>
<pdfrwt beam="1">  1        1 0.31131487E+00 0.53353682E+02</pdfrwt>
<totfact> 0.45468335E+02</totfact>
</mgrwt>
</event>
<event>
 5    1  0.9399923E-003  0.1445782E+03  0.7546771E-02  0.1240057E+00
          2   -1    0    0  502    0  0.00000000000E+00  0.00000000000E+00  0.12777938920E+04  0.12777938920E+04  0.00000000000E+00 0. -1.
         -2   -1    0    0    0  501 -0.00000000000E+00 -0.00000000000E+00 -0.75527386122E+03  0.75527386122E+03  0.00000000000E+00 0.  1.
         25    1    1    2    0    0  0.20646997692E+03 -0.80907103913E+02  0.73003714719E+03  0.77314620034E+03  0.12500000000E+03 0.  0.
          1    1    1    2  502    0 -0.11521840692E+03  0.33754581202E+02  0.51567734625E+03  0.52946933667E+03  0.00000000000E+00 0. -1.
         -1    1    1    2    0  501 -0.91251570005E+02  0.47152522711E+02 -0.72319446263E+03  0.73045221624E+03  0.00000000000E+00 0.  1.
<mgrwt>
<rscale>  0 0.12186156E+03</rscale>
<asrwt>0</asrwt>
<pdfrwt beam="1">  1        2 0.19658367E+00 0.14457825E+03</pdfrwt>
<pdfrwt beam="2">  1       -2 0.11619598E+00 0.10271421E+03</pdfrwt>
<totfact> 0.11901141E+01</totfact>
</mgrwt>
</event>
<event>
 5    1  0.9399923E-003  0.4235576E+02  0.7546771E-02  0.1562911E+00
          2   -1    0    0  502    0  0.00000000000E+00  0.00000000000E+00  0.35332681874E+03  0.35332681874E+03  0.00000000000E+00 0. -1.
          1   -1    0    0  501    0 -0.00000000000E+00 -0.00000000000E+00 -0.41920929259E+02  0.41920929259E+02  0.00000000000E+00 0. -1.
         25    1    1    2    0    0  0.83612233349E+01 -0.25935958469E+02  0.18229835877E+03  0.22271119327E+03  0.12500000000E+03 0.  0.
          2    1    1    2  501    0 -0.34664180114E+02  0.28199774841E+02  0.42150544161E+01  0.44884288652E+02  0.00000000000E+00 0. -1.
          1    1    1    2  502    0  0.26302956779E+02 -0.22638163723E+01  0.12489247629E+03  0.12765226608E+03  0.00000000000E+00 0. -1.
<mgrwt>
<rscale>  0 0.33439502E+02</rscale>
<asrwt>0</asrwt>
<pdfrwt beam="1">  1        2 0.54357970E-01 0.26400197E+02</pdfrwt>
<pdfrwt beam="2">  1        1 0.64493740E-02 0.42355756E+02</pdfrwt>
<totfact> 0.12332731E+04</totfact>
</mgrwt>
</event>
<event>
 5    1  0.9399923E-003  0.7602400E+02  0.7546771E-02  0.1355596E+00
          1   -1    0    0  502    0  0.00000000000E+00  0.00000000000E+00  0.10823731627E+04  0.10823731627E+04  0.00000000000E+00 0. -1.
         -1   -1    0    0    0  501 -0.00000000000E+00 -0.00000000000E+00 -0.16227352214E+03  0.16227352214E+03  0.00000000000E+00 0.  1.
         25    1    1    2    0    0 -0.50267380688E+02 -0.12334859991E+03  0.11362627928E+03  0.21512233264E+03  0.12500000000E+03 0.  0.
          2    1    1    2  502    0  0.42779910647E+02  0.51491224173E+02  0.90493097279E+03  0.90740373177E+03  0.00000000000E+00 0. -1.
         -2    1    1    2    0  501  0.74874700417E+01  0.71857375733E+02 -0.98457611543E+02  0.12212062039E+03  0.00000000000E+00 0.  1.
<mgrwt>
<rscale>  0 0.71339556E+02</rscale>
<asrwt>0</asrwt>
<pdfrwt beam="1">  1        1 0.16651894E+00 0.66943759E+02</pdfrwt>
<pdfrwt beam="2">  1       -1 0.24965158E-01 0.76023999E+02</pdfrwt>
<totfact> 0.20918372E+02</totfact>
</mgrwt>
</event>
<event>
 5    1  0.9399923E-003  0.2869538E+02  0.7546771E-02  0.1639513E+00
          2   -1    0    0  502    0  0.00000000000E+00  0.00000000000E+00  0.22549335551E+04  0.22549335551E+04  0.00000000000E+00 0. -1.
         -2   -1    0    0    0  501 -0.00000000000E+00 -0.00000000000E+00 -0.39788944970E+02  0.39788944970E+02  0.00000000000E+00 0.  1.
         25    1    1    2    0    0  0.48703548710E+02  0.13293494065E+02  0.55485350922E+03  0.57099576998E+03  0.12500000000E+03 0.  0.
          1    1    1    2  502    0 -0.20240527960E+02 -0.13962990522E+02  0.16855120331E+04  0.16856913886E+04  0.00000000000E+00 0. -1.
         -3    1    1    2    0  501 -0.28463020750E+02  0.66949645717E+00 -0.25220932202E+02  0.38035341419E+02  0.00000000000E+00 0.  1.
<mgrwt>
<rscale>  0 0.26563234E+02</rscale>
<asrwt>0</asrwt>
<pdfrwt beam="1">  1        2 0.34691276E+00 0.24589512E+02</pdfrwt>
<pdfrwt beam="2">  1       -2 0.61213779E-02 0.28695380E+02</pdfrwt>
<totfact> 0.86177422E+02</totfact>
</mgrwt>
</event>
<event>
 5    1  0.9399923E-003  0.9914113E+02  0.7546771E-02  0.1462107E+00
         -1   -1    0    0    0  502 -0.00000000000E+00  0.00000000000E+00  0.21508320483E+03  0.21508320483E+03  0.00000000000E+00 0.  1.
         -2   -1    0    0    0  501  0.00000000000E+00 -0.00000000000E+00 -0.77433577935E+03  0.77433577935E+03  0.00000000000E+00 0.  1.
         25    1    1    2    0    0  0.10435594152E+03 -0.16884474681E+02 -0.10767061454E+03  0.19594185171E+03  0.12500000000E+03 0.  0.
         -2    1    1    2    0  502 -0.12229214702E+02 -0.18648923623E+02  0.16628304677E+03  0.16777183222E+03  0.00000000000E+00 0.  1.
         -1    1    1    2    0  501 -0.92126726815E+02  0.35533398303E+02 -0.61786500676E+03  0.62570530025E+03  0.00000000000E+00 0.  1.
<mgrwt>
<rscale>  0 0.47020735E+02</rscale>
<asrwt>0</asrwt>
<pdfrwt beam="2">  1       -2 0.11912858E+00 0.99141130E+02</pdfrwt>
<pdfrwt beam="1">  1       -1 0.33089724E-01 0.22301032E+02</pdfrwt>
<totfact> 0.36186165E+01</totfact>
</mgrwt>
</event>
<event>
 5    1  0.9399923E-003  0.2610915E+02  0.7546771E-02  0.1678314E+00
          2   -1    0    0  502    0  0.00000000000E+00  0.00000000000E+00  0.16006014624E+04  0.16006014624E+04  0.00000000000E+00 0. -1.
         -2   -1    0    0    0  501 -0.00000000000E+00 -0.00000000000E+00 -0.98749922931E+02  0.98749922931E+02  0.00000000000E+00 0.  1.
         25    1    1    2    0    0 -0.61281043827E+00  0.28325971198E+02  0.14539743091E+02  0.12899279170E+03  0.12500000000E+03 0.  0.
          1    1    1    2  502    0  0.19461047440E+02 -0.97345018193E+01  0.15245297455E+04  0.15246850290E+04  0.00000000000E+00 0. -1.
         -1    1    1    2    0  501 -0.18848237002E+02 -0.18591469379E+02 -0.37217949081E+02  0.45673564625E+02  0.00000000000E+00 0.  1.
<mgrwt>
<rscale>  0 0.23835526E+02</rscale>
<asrwt>0</asrwt>
<pdfrwt beam="1">  1        2 0.24624636E+00 0.21759892E+02</pdfrwt>
<pdfrwt beam="2">  1       -2 0.15192297E-01 0.26109152E+02</pdfrwt>
<totfact> 0.44879379E+02</totfact>
</mgrwt>
</event>
<event>
 5    1  0.9399923E-003  0.8659402E+02  0.7546771E-02  0.1358681E+00
          1   -1    0    0  501    0 -0.00000000000E+00  0.00000000000E+00  0.12936533918E+03  0.12936533918E+03  0.00000000000E+00 0. -1.
          2   -1    0    0  502    0  0.00000000000E+00 -0.00000000000E+00 -0.18047563769E+04  0.18047563769E+04  0.00000000000E+00 0. -1.
         25    1    1    2    0    0  0.19705851277E+02 -0.47038846302E+02  0.40214176522E+02  0.14086572908E+03  0.12500000000E+03 0.  0.
          2    1    1    2  501    0  0.66169681216E+02  0.58170687496E+02 -0.13715681417E+02  0.89164878247E+02  0.00000000000E+00 0. -1.
          1    1    1    2  502    0 -0.85875532493E+02 -0.11131841194E+02 -0.17018895329E+04  0.17040911088E+04  0.00000000000E+00 0. -1.
<mgrwt>
<rscale>  0 0.70417001E+02</rscale>
<asrwt>0</asrwt>
<pdfrwt beam="2">  1        2 0.27765482E+00 0.86594024E+02</pdfrwt>
<pdfrwt beam="1">  1        1 0.19902361E-01 0.57262082E+02</pdfrwt>
<totfact> 0.34848480E+02</totfact>
</mgrwt>
</event>
<event>
 5    1  0.9399923E-003  0.1117895E+03  0.7546771E-02  0.1303051E+00
         -2   -1    0    0    0  501 -0.00000000000E+00  0.00000000000E+00  0.33802898060E+02  0.33802898060E+02  0.00000000000E+00 0.  1.
          2   -1    0    0  502    0  0.00000000000E+00 -0.00000000000E+00 -0.18634109008E+04  0.18634109008E+04  0.00000000000E+00 0. -1.
         25    1    1    2    0    0 -0.11765780574E+03  0.97235687868E+02 -0.58756360261E+03  0.61980168228E+03  0.12500000000E+03 0.  0.
          1    1    1    2  502    0  0.45332711884E+02 -0.97400321845E+02 -0.11713800818E+04  0.11762963799E+04  0.00000000000E+00 0. -1.
         -1    1    1    2    0  501  0.72325093858E+02  0.16463397723E+00 -0.70664318303E+02  0.10111573659E+03  0.00000000000E+00 0.  1.
<mgrwt>
<rscale>  0 0.89917793E+02</rscale>
<asrwt>0</asrwt>
<pdfrwt beam="2">  1        2 0.28667863E+00 0.11178953E+03</pdfrwt>
<pdfrwt beam="1">  1       -2 0.52004453E-02 0.72325281E+02</pdfrwt>
<totfact> 0.15702177E+03</totfact>
</mgrwt>
</event>
<event>
 5    1  0.9399923E-003  0.1489126E+03  0.7546771E-02  0.1258302E+00
          1   -1    0    0  502    0  0.00000000000E+00  0.00000000000E+00  0.79009908069E+03  0.79009908069E+03  0.00000000000E+00 0. -1.
         -1   -1    0    0    0  501 -0.00000000000E+00 -0.00000000000E+00 -0.54618092903E+03  0.54618092903E+03  0.00000000000E+00 0.  1.
         25    1    1    2    0    0  0.87107879744E+02 -0.16730899072E+01 -0.26662133852E+02  0.15468177438E+03  0.12500000000E+03 0.  0.
          2    1    1    2  502    0  0.71714503873E+02  0.41962157878E+02  0.70884875762E+03  0.71370186629E+03  0.00000000000E+00 0. -1.
         -2    1    1    2    0  501 -0.15882238362E+03 -0.40289067971E+02 -0.43826847211E+03  0.46789636906E+03  0.00000000000E+00 0.  1.
<mgrwt>
<rscale>  0 0.11123404E+03</rscale>
<asrwt>0</asrwt>
<pdfrwt beam="1">  1        1 0.12155371E+00 0.83089065E+02</pdfrwt>
<pdfrwt beam="2">  1       -1 0.84027835E-01 0.14891264E+03</pdfrwt>
<totfact> 0.37913770E+01</totfact>
</mgrwt>
</event>
<event>
 5    1  0.9399923E-003  0.2316641E+03  0.7546771E-02  0.1149025E+00
         -2   -1    0    0    0  501 -0.00000000000E+00  0.00000000000E+00  0.42091359021E+03  0.42091359021E+03  0.00000000000E+00 0.  1.
          2   -1    0    0  502    0  0.00000000000E+00 -0.00000000000E+00 -0.29203050126E+04  0.29203050126E+04  0.00000000000E+00 0. -1.
         25    1    1    2    0    0  0.13904172130E+03  0.10091533230E+03  0.86009350937E+01  0.21263932054E+03  0.12500000000E+03 0.  0.
          1    1    1    2  502    0 -0.28109071497E+02 -0.23513808771E+03 -0.27884353605E+04  0.27984731194E+04  0.00000000000E+00 0. -1.
         -1    1    1    2    0  501 -0.11093264980E+03  0.13422275541E+03  0.28044300300E+03  0.33010616291E+03  0.00000000000E+00 0.  1.
<mgrwt>
<rscale>  0 0.20084829E+03</rscale>
<asrwt>0</asrwt>
<pdfrwt beam="2">  1        2 0.44927770E+00 0.23166411E+03</pdfrwt>
<pdfrwt beam="1">  1       -2 0.64755936E-01 0.17413156E+03</pdfrwt>
<totfact> 0.54710721E+00</totfact>
</mgrwt>
</event>
<event>
 5    1  0.9399923E-003  0.1795778E+03  0.7546771E-02  0.1311879E+00
          1   -1    0    0  501    0 -0.00000000000E+00  0.00000000000E+00  0.10463188975E+03  0.10463188975E+03  0.00000000000E+00 0. -1.
          2   -1    0    0  502    0  0.00000000000E+00 -0.00000000000E+00 -0.10083375033E+04  0.10083375033E+04  0.00000000000E+00 0. -1.
         25    1    1    2    0    0 -0.98166876375E+02  0.12299106981E+03 -0.32334830718E+03  0.38071336544E+03  0.12500000000E+03 0.  0.
          2    1    1    2  501    0 -0.40747834094E+02  0.80942275803E+01  0.54933929481E+02  0.68874081567E+02  0.00000000000E+00 0. -1.
          1    1    1    2  502    0  0.13891471047E+03 -0.13108529739E+03 -0.63529123589E+03  0.66338194607E+03  0.00000000000E+00 0. -1.
<mgrwt>
<rscale>  0 0.86373486E+02</rscale>
<asrwt>0</asrwt>
<pdfrwt beam="2">  1        2 0.15512885E+00 0.17957785E+03</pdfrwt>
<pdfrwt beam="1">  1        1 0.16097214E-01 0.41543983E+02</pdfrwt>
<totfact> 0.11251405E+03</totfact>
</mgrwt>
</event>
<event>
 5    1  0.9399923E-003  0.7634003E+02  0.7546771E-02  0.1359399E+00
          2   -1    0    0  502    0  0.00000000000E+00  0.00000000000E+00  0.15073895662E+04  0.15073895662E+04  0.00000000000E+00 0. -1.
          1   -1    0    0  501    0 -0.00000000000E+00 -0.00000000000E+00 -0.70203208852E+02  0.70203208852E+02  0.00000000000E+00 0. -1.
         25    1    1    2    0    0 -0.11760124695E+03 -0.64836519872E+01  0.22514939989E+03  0.28317722949E+03  0.12500000000E+03 0.  0.
          2    1    1    2  501    0  0.61536121175E+02  0.38498250905E+02 -0.76794288946E+01  0.72991665004E+02  0.00000000000E+00 0. -1.
          1    1    1    2  502    0  0.56065125777E+02 -0.32014598917E+02  0.12197163863E+04  0.12214238805E+04  0.00000000000E+00 0. -1.
<mgrwt>
<rscale>  0 0.70204371E+02</rscale>
<asrwt>0</asrwt>
<pdfrwt beam="1">  1        2 0.23190606E+00 0.64561853E+02</pdfrwt>
<pdfrwt beam="2">  1        1 0.10800495E-01 0.76340030E+02</pdfrwt>
<totfact> 0.11103208E+03</totfact>
</mgrwt>
</event>
<event>
 5    1  0.9399923E-003  0.1219901E+03  0.7546771E-02  0.1363203E+00
         -2   -1    0    0    0  501 -0.00000000000E+00  0.00000000000E+00  0.34293738106E+03  0.34293738106E+03  0.00000000000E+00 0.  1.
          2   -1    0    0  502    0  0.00000000000E+00 -0.00000000000E+00 -0.19152603401E+04  0.19152603401E+04  0.00000000000E+00 0. -1.
         25    1    1    2    0    0  0.12855652111E+03 -0.62590504328E+02 -0.27182548704E+03  0.33159982774E+03  0.12500000000E+03 0.  0.
          1    1    1    2  502    0 -0.97610928269E+01  0.37896595640E+02 -0.16015426652E+04  0.16020207050E+04  0.00000000000E+00 0. -1.
         -1    1    1    2    0  501 -0.11879542828E+03  0.24693908688E+02  0.30104519318E+03  0.32457718842E+03  0.00000000000E+00 0.  1.
<mgrwt>
<rscale>  0 0.69093426E+02</rscale>
<asrwt>0</asrwt>
<pdfrwt beam="2">  1        2 0.29465544E+00 0.39133501E+02</pdfrwt>
<pdfrwt beam="1">  1       -2 0.52759597E-01 0.12199015E+03</pdfrwt>
<totfact> 0.35390792E+01</totfact>
</mgrwt>
</event>
<event>
 5    1  0.9399923E-003  0.7446427E+02  0.7546771E-02  0.1424339E+00
          1   -1    0    0  501    0 -0.00000000000E+00  0.00000000000E+00  0.54077094489E+03  0.54077094489E+03  0.00000000000E+00 0. -1.
          2   -1    0    0  502    0  0.00000000000E+00 -0.00000000000E+00 -0.18454032730E+04  0.18454032730E+04  0.00000000000E+00 0. -1.
         25    1    1    2    0    0 -0.20767258914E+02 -0.89062826270E+02 -0.16981236837E+03  0.22983626023E+03  0.12500000000E+03 0.  0.
          2    1    1    2  501    0  0.45693259658E+02  0.58647602788E+02  0.50781694274E+03  0.51323041865E+03  0.00000000000E+00 0. -1.
          1    1    1    2  502    0 -0.24926000744E+02  0.30415223481E+02 -0.16426369025E+04  0.16431075390E+04  0.00000000000E+00 0. -1.
<mgrwt>
<rscale>  0 0.54113274E+02</rscale>
<asrwt>0</asrwt>
<pdfrwt beam="2">  1        2 0.28390819E+00 0.39324183E+02</pdfrwt>
<pdfrwt beam="1">  1        1 0.83195533E-01 0.74464268E+02</pdfrwt>
<totfact> 0.62905908E+01</totfact>
</mgrwt>
</event>
<event>
 5    1  0.9399923E-003  0.5980775E+02  0.7546771E-02  0.1412823E+00
         -2   -1    0    0    0  501 -0.00000000000E+00  0.00000000000E+00  0.14045428190E+02  0.14045428190E+02  0.00000000000E+00 0.  1.
          2   -1    0    0  502    0  0.00000000000E+00 -0.00000000000E+00 -0.18095199834E+04  0.18095199834E+04  0.00000000000E+00 0. -1.
         25    1    1    2    0    0  0.11850113969E+02  0.68894585710E+02 -0.15021156495E+04  0.15089278689E+04  0.12500000000E+03 0.  0.
          1    1    1    2  502    0 -0.49709614608E+02 -0.31086638337E+02 -0.17952627188E+03  0.18885737254E+03  0.00000000000E+00 0. -1.
         -1    1    1    2    0  501  0.37859500639E+02 -0.37807947373E+02 -0.11383263386E+03  0.12578017016E+03  0.00000000000E+00 0.  1.
<mgrwt>
<rscale>  0 0.56568654E+02</rscale>
<asrwt>0</asrwt>
<pdfrwt beam="2">  1        2 0.27838746E+00 0.59807754E+02</pdfrwt>
<pdfrwt beam="1">  1       -2 0.21608369E-02 0.53504978E+02</pdfrwt>
<totfact> 0.61007718E+03</totfact>
</mgrwt>
</event>
<event>
 5    1  0.9399923E-003  0.1418096E+03  0.7546771E-02  0.1355960E+00
          1   -1    0    0  501    0 -0.00000000000E+00  0.00000000000E+00  0.21441099381E+04  0.21441099381E+04  0.00000000000E+00 0. -1.
          2   -1    0    0  502    0  0.00000000000E+00 -0.00000000000E+00 -0.12573565923E+04  0.12573565923E+04  0.00000000000E+00 0. -1.
         25    1    1    2    0    0 -0.33845517200E+02 -0.15260805109E+03 -0.39365689881E+02  0.20398380777E+03  0.12500000000E+03 0.  0.
          2    1    1    2  501    0  0.33918649331E+02  0.11384570799E+02  0.20572544013E+04  0.20575654922E+04  0.00000000000E+00 0. -1.
          1    1    1    2  502    0 -0.73132130581E-01  0.14122348029E+03 -0.11311353656E+04  0.11399172304E+04  0.00000000000E+00 0. -1.
<mgrwt>
<rscale>  0 0.71229903E+02</rscale>
<asrwt>0</asrwt>
<pdfrwt beam="2">  1        2 0.19343948E+00 0.14180959E+03</pdfrwt>
<pdfrwt beam="1">  1        1 0.32986307E+00 0.35778251E+02</pdfrwt>
<totfact> 0.94595587E+00</totfact>
</mgrwt>
</event>
<event>
 5    1  0.9399923E-003  0.7313941E+02  0.7546771E-02  0.1458730E+00
          2   -1    0    0  502    0  0.00000000000E+00  0.00000000000E+00  0.72013233536E+03  0.72013233536E+03  0.00000000000E+00 0. -1.
          1   -1    0    0  501    0 -0.00000000000E+00 -0.00000000000E+00 -0.15005224004E+03  0.15005224004E+03  0.00000000000E+00 0. -1.
         25    1    1    2    0    0 -0.54918607715E+02 -0.84496107113E+02  0.54322657326E+02  0.16950397249E+03  0.12500000000E+03 0.  0.
          2    1    1    2  501    0  0.39549710088E+02  0.57597734572E+02 -0.78801282201E+02  0.10531533921E+03  0.00000000000E+00 0. -1.
          1    1    1    2  502    0  0.15368897627E+02  0.26898372542E+02  0.59455872020E+03  0.59536526370E+03  0.00000000000E+00 0. -1.
<mgrwt>
<rscale>  0 0.47600607E+02</rscale>
<asrwt>0</asrwt>
<pdfrwt beam="1">  1        2 0.11078959E+00 0.30979436E+02</pdfrwt>
<pdfrwt beam="2">  1        1 0.23084960E-01 0.73139412E+02</pdfrwt>
<totfact> 0.12070162E+03</totfact>
</mgrwt>
</event>
<event>
 5    1  0.9399923E-003  0.8485610E+02  0.7546771E-02  0.1322200E+00
          1   -1    0    0  501    0 -0.00000000000E+00  0.00000000000E+00  0.14809699480E+04  0.14809699480E+04  0.00000000000E+00 0. -1.
          2   -1    0    0  502    0  0.00000000000E+00 -0.00000000000E+00 -0.65270491217E+03  0.65270491217E+03  0.00000000000E+00 0. -1.
         25    1    1    2    0    0 -0.13495418788E+03  0.11307929753E+01 -0.27078989455E+02  0.18593596529E+03  0.12500000000E+03 0.  0.
          2    1    1    2  501    0  0.65708770520E+02  0.45877989482E+02  0.13971803267E+04  0.13994767943E+04  0.00000000000E+00 0. -1.
          1    1    1    2  502    0  0.69245417355E+02 -0.47008782457E+02 -0.54183630139E+03  0.54826210061E+03  0.00000000000E+00 0. -1.
<mgrwt>
<rscale>  0 0.82464383E+02</rscale>
<asrwt>0</asrwt>
<pdfrwt beam="2">  1        2 0.10041614E+00 0.84856097E+02</pdfrwt>
<pdfrwt beam="1">  1        1 0.22784153E+00 0.80140080E+02</pdfrwt>
<totfact> 0.53305268E+01</totfact>
</mgrwt>
</event>
<event>
 5    1  0.9399923E-003  0.5985683E+02  0.7546771E-02  0.1460656E+00
          2   -1    0    0  502    0  0.00000000000E+00  0.00000000000E+00  0.30036994093E+03  0.30036994093E+03  0.00000000000E+00 0. -1.
          1   -1    0    0  501    0 -0.00000000000E+00 -0.00000000000E+00 -0.10020652522E+04  0.10020652522E+04  0.00000000000E+00 0. -1.
         25    1    1    2    0    0  0.31479254792E+02 -0.22404405114E+02 -0.34860422800E+03  0.37234769857E+03  0.12500000000E+03 0.  0.
          2    1    1    2  501    0 -0.63349763464E+02  0.29715862037E+01 -0.63880507092E+03  0.64194543498E+03  0.00000000000E+00 0. -1.
          1    1    1    2  502    0  0.31870508672E+02  0.19432818911E+02  0.28571398764E+03  0.28814205960E+03  0.00000000000E+00 0. -1.
<mgrwt>
<rscale>  0 0.47268629E+02</rscale>
<asrwt>0</asrwt>
<pdfrwt beam="1">  1        2 0.46210761E-01 0.37327788E+02</pdfrwt>
<pdfrwt beam="2">  1        1 0.15416388E+00 0.59856835E+02</pdfrwt>
<totfact> 0.25796384E+02</totfact>
</mgrwt>
</event>
<event>
 5    1  0.9399923E-003  0.1109026E+03  0.7546771E-02  0.1348885E+00
          2   -1    0    0  502    0  0.00000000000E+00  0.00000000000E+00  0.36111488458E+03  0.36111488458E+03  0.00000000000E+00 0. -1.
         -2   -1    0    0    0  501 -0.00000000000E+00 -0.00000000000E+00 -0.62498451139E+03  0.62498451139E+03  0.00000000000E+00 0.  1.
         25    1    1    2    0    0  0.12516343994E+03 -0.42327293315E+02  0.19718969319E+03  0.26826528206E+03  0.12500000000E+03 0.  0.
          1    1    1    2  502    0 -0.14622547354E+02  0.46332337417E+02  0.11836382450E+03  0.12794725215E+03  0.00000000000E+00 0. -1.
         -1    1    1    2    0  501 -0.11054089259E+03 -0.40050441019E+01 -0.57942314449E+03  0.58988686177E+03  0.00000000000E+00 0.  1.
<mgrwt>
<rscale>  0 0.73404397E+02</rscale>
<asrwt>0</asrwt>
<pdfrwt beam="1">  1        2 0.55556136E-01 0.48585022E+02</pdfrwt>
<pdfrwt beam="2">  1       -2 0.96151463E-01 0.11090260E+03</pdfrwt>
<totfact> 0.86992151E+01</totfact>
</mgrwt>
</event>
<event>
 5    1  0.9399923E-003  0.1647109E+03  0.7546771E-02  0.1310162E+00
         -1   -1    0    0    0  501 -0.00000000000E+00  0.00000000000E+00  0.26734075682E+03  0.26734075682E+03  0.00000000000E+00 0.  1.
          1   -1    0    0  502    0  0.00000000000E+00 -0.00000000000E+00 -0.20609947540E+04  0.20609947540E+04  0.00000000000E+00 0. -1.
         25    1    1    2    0    0  0.88461774725E+01  0.18356899639E+03 -0.88879418831E+03  0.91616370833E+03  0.12500000000E+03 0.  0.
          2    1    1    2  502    0  0.27932411740E+02 -0.15593384960E+03 -0.11509589117E+04  0.11618097958E+04  0.00000000000E+00 0. -1.
         -2    1    1    2    0  501 -0.36778589212E+02 -0.27635146791E+02  0.24609910287E+03  0.25036200670E+03  0.00000000000E+00 0.  1.
<mgrwt>
<rscale>  0 0.87048005E+02</rscale>
<asrwt>0</asrwt>
<pdfrwt beam="2">  1        1 0.31707613E+00 0.16471087E+03</pdfrwt>
<pdfrwt beam="1">  1       -1 0.41129346E-01 0.46003978E+02</pdfrwt>
<totfact> 0.19323416E+01</totfact>
</mgrwt>
</event>
<event>
 5    1  0.9565237E-003  0.1546233E+03  0.7546771E-02  0.1231973E+00
          2   -1    0    0  502    0  0.00000000000E+00  0.00000000000E+00  0.18222212307E+04  0.18222212307E+04  0.00000000000E+00 0. -1.
          1   -1    0    0  501    0 -0.00000000000E+00 -0.00000000000E+00 -0.11182729262E+04  0.11182729262E+04  0.00000000000E+00 0. -1.
         25    1    1    2    0    0  0.71795971069E+01 -0.73579545993E+02 -0.51744120038E+02  0.15416857709E+03  0.12500000000E+03 0.  0.
          2    1    1    2  501    0 -0.85302899650E+02  0.14270527600E+03 -0.10069581152E+04  0.10205910181E+04  0.00000000000E+00 0. -1.
          1    1    1    2  502    0  0.78123302543E+02 -0.69125730009E+02  0.17626505397E+04  0.17657345616E+04  0.00000000000E+00 0. -1.
<mgrwt>
<rscale>  0 0.12700208E+03</rscale>
<asrwt>0</asrwt>
<pdfrwt beam="1">  1        2 0.28034173E+00 0.10431499E+03</pdfrwt>
<pdfrwt beam="2">  1        1 0.17204199E+00 0.15462331E+03</pdfrwt>
<totfact> 0.18920582E+01</totfact>
</mgrwt>
</event>
<event>
 5    1  0.9399923E-003  0.1443252E+03  0.7546771E-02  0.1373959E+00
         -2   -1    0    0    0  501 -0.00000000000E+00  0.00000000000E+00  0.27662710853E+03  0.27662710853E+03  0.00000000000E+00 0.  1.
          2   -1    0    0  502    0  0.00000000000E+00 -0.00000000000E+00 -0.10785602978E+04  0.10785602978E+04  0.00000000000E+00 0. -1.
         25    1    1    2    0    0 -0.13995481352E+03 -0.59808630810E+02  0.59709691701E+02  0.20580250103E+03  0.12500000000E+03 0.  0.
          1    1    1    2  502    0  0.11886995952E+03  0.81504932638E+02 -0.99869079098E+03  0.10090373716E+04  0.00000000000E+00 0. -1.
         -1    1    1    2    0  501  0.21084854002E+02 -0.21696301828E+02  0.13704790999E+03  0.14034753370E+03  0.00000000000E+00 0.  1.
<mgrwt>
<rscale>  0 0.66078785E+02</rscale>
<asrwt>0</asrwt>
<pdfrwt beam="2">  1        2 0.16593235E+00 0.14432522E+03</pdfrwt>
<pdfrwt beam="1">  1       -2 0.42558017E-01 0.30253935E+02</pdfrwt>
<totfact> 0.12746705E+02</totfact>
</mgrwt>
</event>
<event>
 5    1  0.9399923E-003  0.8140054E+02  0.7546771E-02  0.1436652E+00
          2   -1    0    0  502    0  0.00000000000E+00  0.00000000000E+00  0.70719319574E+03  0.70719319574E+03  0.00000000000E+00 0. -1.
         -2   -1    0    0    0  501 -0.00000000000E+00 -0.00000000000E+00 -0.76613393577E+03  0.76613393577E+03  0.00000000000E+00 0.  1.
         25    1    1    2    0    0 -0.35099898209E+02  0.35746663891E+02 -0.14403879830E+03  0.19718519785E+03  0.12500000000E+03 0.  0.
          1    1    1    2  502    0  0.64244424320E+02 -0.50728734716E+02  0.67770440988E+03  0.68263022036E+03  0.00000000000E+00 0. -1.
         -1    1    1    2    0  501 -0.29144526111E+02  0.14982070825E+02 -0.59260635161E+03  0.59351171330E+03  0.00000000000E+00 0.  1.
<mgrwt>
<rscale>  0 0.51647721E+02</rscale>
<asrwt>0</asrwt>
<pdfrwt beam="1">  1        2 0.10879895E+00 0.81400544E+02</pdfrwt>
<pdfrwt beam="2">  1       -2 0.11786676E+00 0.32769892E+02</pdfrwt>
<totfact> 0.27168073E+01</totfact>
</mgrwt>
</event>
<event>
 5    1  0.9399923E-003  0.1045032E+03  0.7546771E-02  0.1280303E+00
          2   -1    0    0  502    0  0.00000000000E+00  0.00000000000E+00  0.38953409949E+03  0.38953409949E+03  0.00000000000E+00 0. -1.
          1   -1    0    0  501    0 -0.00000000000E+00 -0.00000000000E+00 -0.32211972460E+03  0.32211972460E+03  0.00000000000E+00 0. -1.
         25    1    1    2    0    0  0.84412223263E+00  0.11227917209E+03  0.10269162957E+03  0.19692103953E+03  0.12500000000E+03 0.  0.
          2    1    1    2  501    0 -0.86596892655E+02 -0.40699384109E+02 -0.25274725861E+03  0.27025291566E+03  0.00000000000E+00 0. -1.
          1    1    1    2  502    0  0.85752770423E+02 -0.71579787981E+02  0.21747000394E+03  0.24447986890E+03  0.00000000000E+00 0. -1.
<mgrwt>
<rscale>  0 0.99996528E+02</rscale>
<asrwt>0</asrwt>
<pdfrwt beam="1">  1        2 0.59928323E-01 0.10450323E+03</pdfrwt>
<pdfrwt beam="2">  1        1 0.49556881E-01 0.95684177E+02</pdfrwt>
<totfact> 0.90301544E+02</totfact>
</mgrwt>
</event>
<event>
 5    1  0.9399923E-003  0.6688440E+02  0.7546771E-02  0.1409024E+00
          1   -1    0    0  501    0 -0.00000000000E+00  0.00000000000E+00  0.85230563028E+03  0.85230563028E+03  0.00000000000E+00 0. -1.
          2   -1    0    0  502    0  0.00000000000E+00 -0.00000000000E+00 -0.13225767969E+03  0.13225767969E+03  0.00000000000E+00 0. -1.
         25    1    1    2    0    0 -0.81584867839E+02 -0.14311948303E+02  0.31051504681E+03  0.34482679249E+03  0.12500000000E+03 0.  0.
          2    1    1    2  501    0  0.45927306281E+02  0.48329618410E+02  0.51711964047E+03  0.52139983893E+03  0.00000000000E+00 0. -1.
          1    1    1    2  502    0  0.35657561558E+02 -0.34017670107E+02 -0.10758673670E+03  0.11833667854E+03  0.00000000000E+00 0. -1.
<mgrwt>
<rscale>  0 0.57412210E+02</rscale>
<asrwt>0</asrwt>
<pdfrwt beam="2">  1        2 0.20347336E-01 0.49281473E+02</pdfrwt>
<pdfrwt beam="1">  1        1 0.13112394E+00 0.66884402E+02</pdfrwt>
<totfact> 0.78244951E+02</totfact>
</mgrwt>
</event>
<event>
 5    1  0.9399923E-003  0.7922850E+02  0.7546771E-02  0.1408351E+00
          2   -1    0    0  502    0  0.00000000000E+00  0.00000000000E+00  0.11792690822E+04  0.11792690822E+04  0.00000000000E+00 0. -1.
          1   -1    0    0  501    0 -0.00000000000E+00 -0.00000000000E+00 -0.28173885824E+02  0.28173885824E+02  0.00000000000E+00 0. -1.
         25    1    1    2    0    0  0.51099525422E+01 -0.68860320829E+02  0.40141614401E+03  0.42606076571E+03  0.12500000000E+03 0.  0.
          2    1    1    2  501    0 -0.46919635321E+02  0.69903956520E+02  0.10157397281E+03  0.13192909940E+03  0.00000000000E+00 0. -1.
          1    1    1    2  502    0  0.41809682779E+02 -0.10436356908E+01  0.64810507955E+03  0.64945310292E+03  0.00000000000E+00 0. -1.
<mgrwt>
<rscale>  0 0.57563447E+02</rscale>
<asrwt>0</asrwt>
<pdfrwt beam="1">  1        2 0.18142598E+00 0.41822706E+02</pdfrwt>
<pdfrwt beam="2">  1        1 0.43344449E-02 0.79228504E+02</pdfrwt>
<totfact> 0.56814981E+03</totfact>
</mgrwt>
</event>
<event>
 5    1  0.9399923E-003  0.7300223E+02  0.7546771E-02  0.1394492E+00
          1   -1    0    0  501    0 -0.00000000000E+00  0.00000000000E+00  0.14151994759E+03  0.14151994759E+03  0.00000000000E+00 0. -1.
          2   -1    0    0  502    0  0.00000000000E+00 -0.00000000000E+00 -0.25849904287E+04  0.25849904287E+04  0.00000000000E+00 0. -1.
         25    1    1    2    0    0 -0.35767726349E+02 -0.10239554575E+02 -0.82248061759E+03  0.83275659411E+03  0.12500000000E+03 0.  0.
          2    1    1    2  501    0 -0.42455439737E+02  0.27608143336E+02  0.13073306736E+03  0.14019917562E+03  0.00000000000E+00 0. -1.
          1    1    1    2  502    0  0.78223166086E+02 -0.17368588761E+02 -0.17517229309E+04  0.17535546066E+04  0.00000000000E+00 0. -1.
<mgrwt>
<rscale>  0 0.60803153E+02</rscale>
<asrwt>0</asrwt>
<pdfrwt beam="2">  1        2 0.39769082E+00 0.73002230E+02</pdfrwt>
<pdfrwt beam="1">  1        1 0.21772301E-01 0.50642610E+02</pdfrwt>
<totfact> 0.12731867E+02</totfact>
</mgrwt>
</event>
<event>
 5    1  0.9399923E-003  0.1055703E+03  0.7546771E-02  0.1337621E+00
         -1   -1    0    0    0  501 -0.00000000000E+00  0.00000000000E+00  0.40469658313E+02  0.40469658313E+02  0.00000000000E+00 0.  1.
          1   -1    0    0  502    0  0.00000000000E+00 -0.00000000000E+00 -0.26419783618E+04  0.26419783618E+04  0.00000000000E+00 0. -1.
         25    1    1    2    0    0 -0.34340477637E+02 -0.11775058835E+02 -0.19570084010E+04  0.19613324048E+04  0.12500000000E+03 0.  0.
          2    1    1    2  502    0  0.94418030455E+02  0.98583881204E+02 -0.58336161151E+03  0.59911961734E+03  0.00000000000E+00 0. -1.
         -2    1    1    2    0  501 -0.60077552818E+02 -0.86808822369E+02 -0.61138690987E+02  0.12199599801E+03  0.00000000000E+00 0.  1.
<mgrwt>
<rscale>  0 0.77055589E+02</rscale>
<asrwt>0</asrwt>
<pdfrwt beam="2">  1        1 0.40645820E+00 0.56242758E+02</pdfrwt>
<pdfrwt beam="1">  1       -1 0.62261014E-02 0.10557028E+03</pdfrwt>
<totfact> 0.19045232E+02</totfact>
</mgrwt>
</event>
<event>
 5    1  0.9399923E-003  0.1251896E+03  0.7546771E-02  0.1340640E+00
          1   -1    0    0  501    0 -0.00000000000E+00  0.00000000000E+00  0.11494688082E+03  0.11494688082E+03  0.00000000000E+00 0. -1.
          2   -1    0    0  502    0  0.00000000000E+00 -0.00000000000E+00 -0.74209405016E+03  0.74209405016E+03  0.00000000000E+00 0. -1.
         25    1    1    2    0    0  0.16139534927E+02 -0.11851981824E+03 -0.14128206810E+03  0.22336753271E+03  0.12500000000E+03 0.  0.
          2    1    1    2  501    0 -0.45885638332E+02 -0.54031776038E+01  0.58525233919E+02  0.74564664142E+02  0.00000000000E+00 0. -1.
          1    1    1    2  502    0  0.29746103405E+02  0.12392299584E+03 -0.54439033516E+03  0.55910873413E+03  0.00000000000E+00 0. -1.
<mgrwt>
<rscale>  0 0.76053210E+02</rscale>
<asrwt>0</asrwt>
<pdfrwt beam="2">  1        2 0.11416832E+00 0.12518955E+03</pdfrwt>
<pdfrwt beam="1">  1        1 0.17684135E-01 0.46202664E+02</pdfrwt>
<totfact> 0.15199819E+03</totfact>
</mgrwt>
</event>
<event>
 5    1  0.9399923E-003  0.1349195E+03  0.7546771E-02  0.1333725E+00
          1   -1    0    0  501    0 -0.00000000000E+00  0.00000000000E+00  0.12060531077E+04  0.12060531077E+04  0.00000000000E+00 0. -1.
          2   -1    0    0  502    0  0.00000000000E+00 -0.00000000000E+00 -0.63526904359E+03  0.63526904359E+03  0.00000000000E+00 0. -1.
         25    1    1    2    0    0 -0.24264505695E+02  0.16721966382E+03  0.57351701501E+03  0.61081744303E+03  0.12500000000E+03 0.  0.
          2    1    1    2  501    0  0.31496196974E+02 -0.32876948646E+02  0.60568278151E+03  0.60739158374E+03  0.00000000000E+00 0. -1.
          1    1    1    2  502    0 -0.72316912783E+01 -0.13434271518E+03 -0.60841573242E+03  0.62311312451E+03  0.00000000000E+00 0. -1.
<mgrwt>
<rscale>  0 0.78375830E+02</rscale>
<asrwt>0</asrwt>
<pdfrwt beam="2">  1        2 0.97733700E-01 0.13491949E+03</pdfrwt>
<pdfrwt beam="1">  1        1 0.18554663E+00 0.45529157E+02</pdfrwt>
<totfact> 0.85870840E+01</totfact>
</mgrwt>
</event>
<event>
 5    1  0.9399923E-003  0.9271662E+02  0.7546771E-02  0.1337428E+00
          2   -1    0    0  502    0  0.00000000000E+00  0.00000000000E+00  0.17793231756E+04  0.17793231756E+04  0.00000000000E+00 0. -1.
          1   -1    0    0  501    0 -0.00000000000E+00 -0.00000000000E+00 -0.14183060613E+04  0.14183060613E+04  0.00000000000E+00 0. -1.
         25    1    1    2    0    0  0.30832055917E+02  0.11295945780E+03  0.19170163760E+02  0.17234543788E+03  0.12500000000E+03 0.  0.
          2    1    1    2  501    0 -0.59168294040E+02 -0.24779628015E+02 -0.13396765116E+04  0.13412114198E+04  0.00000000000E+00 0. -1.
          1    1    1    2  502    0  0.28336238123E+02 -0.88179829784E+02  0.16815234621E+04  0.16840723792E+04  0.00000000000E+00 0. -1.
<mgrwt>
<rscale>  0 0.77120364E+02</rscale>
<asrwt>0</asrwt>
<pdfrwt beam="1">  1        2 0.27374203E+00 0.92716623E+02</pdfrwt>
<pdfrwt beam="2">  1        1 0.21820093E+00 0.64147619E+02</pdfrwt>
<totfact> 0.13640954E+01</totfact>
</mgrwt>
</event>
<event>
 5    1  0.9399923E-003  0.7571272E+02  0.7546771E-02  0.1492477E+00
          2   -1    0    0  502    0  0.00000000000E+00  0.00000000000E+00  0.14972414065E+04  0.14972414065E+04  0.00000000000E+00 0. -1.
          1   -1    0    0  501    0 -0.00000000000E+00 -0.00000000000E+00 -0.38099738367E+03  0.38099738367E+03  0.00000000000E+00 0. -1.
         25    1    1    2    0    0 -0.74616945098E+02  0.72986920863E+00 -0.13704063727E+03  0.19993338257E+03  0.12500000000E+03 0.  0.
          2    1    1    2  501    0  0.28150772279E+01  0.23375375556E+02 -0.21087638808E+03  0.21218667228E+03  0.00000000000E+00 0. -1.
          1    1    1    2  502    0  0.71801867870E+02 -0.24105244765E+02  0.14641610482E+04  0.14661187354E+04  0.00000000000E+00 0. -1.
<mgrwt>
<rscale>  0 0.42220859E+02</rscale>
<asrwt>0</asrwt>
<pdfrwt beam="1">  1        2 0.23034483E+00 0.75712716E+02</pdfrwt>
<pdfrwt beam="2">  1        1 0.58614983E-01 0.23544274E+02</pdfrwt>
<totfact> 0.13681061E+02</totfact>
</mgrwt>
</event>
<event>
 5    1  0.9399923E-003  0.5743761E+02  0.7546771E-02  0.1487799E+00
          1   -1    0    0  501    0 -0.00000000000E+00  0.00000000000E+00  0.39398956229E+03  0.39398956229E+03  0.00000000000E+00 0. -1.
          2   -1    0    0  502    0  0.00000000000E+00 -0.00000000000E+00 -0.31303369377E+03  0.31303369377E+03  0.00000000000E+00 0. -1.
         25    1    1    2    0    0 -0.67201682809E+02 -0.56187934046E+02 -0.40507912430E+02  0.15792099631E+03  0.12500000000E+03 0.  0.
          2    1    1    2  501    0  0.23722790626E+02  0.21570208633E+02  0.33088349382E+03  0.33243334847E+03  0.00000000000E+00 0. -1.
          1    1    1    2  502    0  0.43478892183E+02  0.34617725413E+02 -0.20941971287E+03  0.21666891128E+03  0.00000000000E+00 0. -1.
<mgrwt>
<rscale>  0 0.42914215E+02</rscale>
<asrwt>0</asrwt>
<pdfrwt beam="2">  1        2 0.48159030E-01 0.57437609E+02</pdfrwt>
<pdfrwt beam="1">  1        1 0.60613779E-01 0.32063136E+02</pdfrwt>
<totfact> 0.89228287E+02</totfact>
</mgrwt>
</event>
<event>
 5    1  0.9399923E-003  0.6383788E+02  0.7546771E-02  0.1434068E+00
         -2   -1    0    0    0  501 -0.00000000000E+00  0.00000000000E+00  0.14490165242E+04  0.14490165242E+04  0.00000000000E+00 0.  1.
          2   -1    0    0  502    0  0.00000000000E+00 -0.00000000000E+00 -0.89309149683E+03  0.89309149683E+03  0.00000000000E+00 0. -1.
         25    1    1    2    0    0 -0.72508498146E+01 -0.28821163827E+02 -0.15475252430E+03  0.20113820642E+03  0.12500000000E+03 0.  0.
          1    1    1    2  502    0  0.28727964494E+02 -0.31463119374E+02 -0.71379252246E+03  0.71506292657E+03  0.00000000000E+00 0. -1.
         -1    1    1    2    0  501 -0.21477114679E+02  0.60284283201E+02  0.14244700741E+04  0.14259068880E+04  0.00000000000E+00 0.  1.
<mgrwt>
<rscale>  0 0.52152098E+02</rscale>
<asrwt>0</asrwt>
<pdfrwt beam="2">  1        2 0.13739869E+00 0.42605444E+02</pdfrwt>
<pdfrwt beam="1">  1       -2 0.22292562E+00 0.63837882E+02</pdfrwt>
<totfact> 0.39336846E+00</totfact>
</mgrwt>
</event>
<event>
 5    1  0.9399923E-003  0.6821210E+02  0.7546771E-02  0.1443141E+00
          1   -1    0    0  502    0  0.00000000000E+00  0.00000000000E+00  0.25600281993E+03  0.25600281993E+03  0.00000000000E+00 0. -1.
         -1   -1    0    0    0  501 -0.00000000000E+00 -0.00000000000E+00 -0.72225409004E+02  0.72225409004E+02  0.00000000000E+00 0.  1.
         25    1    1    2    0    0 -0.59985745169E+02 -0.26323412537E+02  0.15929487506E+03  0.21281698450E+03  0.12500000000E+03 0.  0.
          2    1    1    2  502    0 -0.96174974940E+01  0.35991473683E+02  0.25477037588E+02  0.45132714080E+02  0.00000000000E+00 0. -1.
         -2    1    1    2    0  501  0.69603242663E+02 -0.96680611460E+01 -0.99450171958E+00  0.70278530357E+02  0.00000000000E+00 0.  1.
<mgrwt>
<rscale>  0 0.50410255E+02</rscale>
<asrwt>0</asrwt>
<pdfrwt beam="1">  1        1 0.39385049E-01 0.37254294E+02</pdfrwt>
<pdfrwt beam="2">  1       -1 0.11111602E-01 0.68212104E+02</pdfrwt>
<totfact> 0.50180667E+03</totfact>
</mgrwt>
</event>
<event>
 5    1  0.9399923E-003  0.1162466E+03  0.7546771E-02  0.1394461E+00
         -2   -1    0    0    0  501 -0.00000000000E+00  0.00000000000E+00  0.18142308686E+03  0.18142308686E+03  0.00000000000E+00 0.  1.
          2   -1    0    0  502    0  0.00000000000E+00 -0.00000000000E+00 -0.15505544583E+04  0.15505544583E+04  0.00000000000E+00 0. -1.
         25    1    1    2    0    0  0.10294658534E+02 -0.14304743618E+03 -0.28182813410E+03  0.34003036065E+03  0.12500000000E+03 0.  0.
          1    1    1    2  502    0 -0.18559097585E+02  0.11232857404E+03 -0.12353176018E+04  0.12405529920E+04  0.00000000000E+00 0. -1.
         -1    1    1    2    0  501  0.82644390510E+01  0.30718862139E+02  0.14801436445E+03  0.15139419252E+03  0.00000000000E+00 0.  1.
<mgrwt>
<rscale>  0 0.60810673E+02</rscale>
<asrwt>0</asrwt>
<pdfrwt beam="2">  1        2 0.23854684E+00 0.11624659E+03</pdfrwt>
<pdfrwt beam="1">  1       -2 0.27911245E-01 0.31811153E+02</pdfrwt>
<totfact> 0.15263746E+02</totfact>
</mgrwt>
</event>
<event>
 5    1  0.9399923E-003  0.5154020E+02  0.7546771E-02  0.1453294E+00
          1   -1    0    0  501    0 -0.00000000000E+00  0.00000000000E+00  0.11317033971E+04  0.11317033971E+04  0.00000000000E+00 0. -1.
          2   -1    0    0  502    0  0.00000000000E+00 -0.00000000000E+00 -0.10061912501E+04  0.10061912501E+04  0.00000000000E+00 0. -1.
         25    1    1    2    0    0  0.75202915532E+02  0.10880002952E+01 -0.25092503120E+03  0.29024995010E+03  0.12500000000E+03 0.  0.
          2    1    1    2  501    0 -0.40892200224E+02 -0.31340180860E+02  0.11107321186E+04  0.11119263547E+04  0.00000000000E+00 0. -1.
          1    1    1    2  502    0 -0.34310715308E+02  0.30252180565E+02 -0.73429494044E+03  0.73571834228E+03  0.00000000000E+00 0. -1.
<mgrwt>
<rscale>  0 0.48555145E+02</rscale>
<asrwt>0</asrwt>
<pdfrwt beam="2">  1        2 0.15479865E+00 0.45742973E+02</pdfrwt>
<pdfrwt beam="1">  1        1 0.17410822E+00 0.51540203E+02</pdfrwt>
<totfact> 0.56636464E+01</totfact>
</mgrwt>
</event>
<event>
 5    1  0.9399923E-003  0.2214083E+03  0.7546771E-02  0.1210221E+00
          2   -1    0    0  502    0  0.00000000000E+00  0.00000000000E+00  0.26308552381E+04  0.26308552381E+04  0.00000000000E+00 0. -1.
          1   -1    0    0  501    0 -0.00000000000E+00 -0.00000000000E+00 -0.11154551869E+04  0.11154551869E+04  0.00000000000E+00 0. -1.
         25    1    1    2    0    0  0.76340260905E+02  0.26416992068E+03  0.32522207790E+02  0.30380302242E+03  0.12500000000E+03 0.  0.
          2    1    1    2  501    0 -0.80056000709E+02 -0.44312307573E+02 -0.97275511002E+03  0.97704915327E+03  0.00000000000E+00 0. -1.
          1    1    1    2  502    0  0.37157398041E+01 -0.21985761311E+03  0.24556329535E+04  0.24654582493E+04  0.00000000000E+00 0. -1.
<mgrwt>
<rscale>  0 0.14233488E+03</rscale>
<asrwt>0</asrwt>
<pdfrwt beam="1">  1        2 0.40474696E+00 0.22140833E+03</pdfrwt>
<pdfrwt beam="2">  1        1 0.17160849E+00 0.91501606E+02</pdfrwt>
<totfact> 0.68221041E+00</totfact>
</mgrwt>
</event>
<event>
 5    1  0.9399923E-003  0.3790146E+02  0.7546771E-02  0.1530089E+00
          1   -1    0    0  501    0 -0.00000000000E+00  0.00000000000E+00  0.99477473856E+03  0.99477473856E+03  0.00000000000E+00 0. -1.
          2   -1    0    0  502    0  0.00000000000E+00 -0.00000000000E+00 -0.40622886673E+03  0.40622886673E+03  0.00000000000E+00 0. -1.
         25    1    1    2    0    0 -0.88715254650E+01 -0.62801400153E+02 -0.15782049151E+03  0.21108061817E+03  0.12500000000E+03 0.  0.
          2    1    1    2  501    0 -0.13828519661E+02  0.33739379966E+02  0.96626547710E+03  0.96695322842E+03  0.00000000000E+00 0. -1.
          1    1    1    2  502    0  0.22700045126E+02  0.29062020187E+02 -0.21989911375E+03  0.22296975870E+03  0.00000000000E+00 0. -1.
<mgrwt>
<rscale>  0 0.37175437E+02</rscale>
<asrwt>0</asrwt>
<pdfrwt beam="2">  1        2 0.62496749E-01 0.37901461E+02</pdfrwt>
<pdfrwt beam="1">  1        1 0.15304227E+00 0.36463320E+02</pdfrwt>
<totfact> 0.19906846E+02</totfact>
</mgrwt>
</event>
<event>
 5    1  0.9399923E-003  0.5683704E+02  0.7546771E-02  0.1463847E+00
         -1   -1    0    0    0  502 -0.00000000000E+00  0.00000000000E+00  0.33365160344E+04  0.33365160344E+04  0.00000000000E+00 0.  1.
         -2   -1    0    0    0  501  0.00000000000E+00 -0.00000000000E+00 -0.15809537049E+02  0.15809537049E+02  0.00000000000E+00 0.  1.
         25    1    1    2    0    0  0.49584744533E+02  0.75897583029E+02  0.12848657381E+04  0.12941112993E+04  0.12500000000E+03 0.  0.
         -2    1    1    2    0  502 -0.21304730651E+02 -0.49901273128E+02  0.20125718855E+04  0.20133031622E+04  0.00000000000E+00 0.  1.
         -1    1    1    2    0  501 -0.28280013883E+02 -0.25996309901E+02  0.23268873774E+02  0.44911109988E+02  0.00000000000E+00 0.  1.
<mgrwt>
<rscale>  0 0.46725665E+02</rscale>
<asrwt>0</asrwt>
<pdfrwt beam="2">  1       -2 0.24322391E-02 0.38413114E+02</pdfrwt>
<pdfrwt beam="1">  1       -1 0.51330960E+00 0.56837042E+02</pdfrwt>
<totfact> 0.66067124E+00</totfact>
</mgrwt>
</event>
<event>
 5    1  0.9399923E-003  0.2357049E+03  0.7546771E-02  0.1219696E+00
          2   -1    0    0  502    0  0.00000000000E+00  0.00000000000E+00  0.65970519402E+03  0.65970519402E+03  0.00000000000E+00 0. -1.
          1   -1    0    0  501    0 -0.00000000000E+00 -0.00000000000E+00 -0.74655008965E+03  0.74655008965E+03  0.00000000000E+00 0. -1.
         25    1    1    2    0    0  0.24656572669E+03  0.13127764029E+03  0.22949862438E+03  0.38252201899E+03  0.12500000000E+03 0.  0.
          2    1    1    2  501    0 -0.17302695052E+03 -0.15651038944E+03 -0.64505537327E+03  0.68595208447E+03  0.00000000000E+00 0. -1.
          1    1    1    2  502    0 -0.73538776163E+02  0.25232749149E+02  0.32871185327E+03  0.33778118021E+03  0.00000000000E+00 0. -1.
<mgrwt>
<rscale>  0 0.13537143E+03</rscale>
<asrwt>0</asrwt>
<pdfrwt beam="1">  1        2 0.10149311E+00 0.77747304E+02</pdfrwt>
<pdfrwt beam="2">  1        1 0.11485386E+00 0.23570494E+03</pdfrwt>
<totfact> 0.16483231E+02</totfact>
</mgrwt>
</event>
<event>
 5    1  0.9399923E-003  0.4142394E+02  0.7546771E-02  0.1506185E+00
          2   -1    0    0  502    0  0.00000000000E+00  0.00000000000E+00  0.19537317126E+03  0.19537317126E+03  0.00000000000E+00 0. -1.
         -2   -1    0    0    0  501 -0.00000000000E+00 -0.00000000000E+00 -0.15700050562E+03  0.15700050562E+03  0.00000000000E+00 0.  1.
         25    1    1    2    0    0  0.28261207876E+01  0.12839499651E+02 -0.44510631546E+01  0.12576824589E+03  0.12500000000E+03 0.  0.
          1    1    1    2  502    0  0.39091369944E+02  0.23382543316E+01  0.12615778938E+03  0.13209614097E+03  0.00000000000E+00 0. -1.
         -1    1    1    2    0  501 -0.41917490731E+02 -0.15177753983E+02 -0.83334060590E+02  0.94509290017E+02  0.00000000000E+00 0.  1.
<mgrwt>
<rscale>  0 0.40276702E+02</rscale>
<asrwt>0</asrwt>
<pdfrwt beam="1">  1        2 0.30057411E-01 0.39161239E+02</pdfrwt>
<pdfrwt beam="2">  1       -2 0.24153924E-01 0.41423937E+02</pdfrwt>
<totfact> 0.23826410E+03</totfact>
</mgrwt>
</event>
<event>
 5    1  0.9399923E-003  0.5551698E+02  0.7546771E-02  0.1459937E+00
          1   -1    0    0  501    0 -0.00000000000E+00  0.00000000000E+00  0.91998480909E+03  0.91998480909E+03  0.00000000000E+00 0. -1.
          2   -1    0    0  502    0  0.00000000000E+00 -0.00000000000E+00 -0.28839738503E+03  0.28839738503E+03  0.00000000000E+00 0. -1.
         25    1    1    2    0    0  0.58733221917E+02  0.11295755603E+02 -0.14588450026E+03  0.20120753681E+03  0.12500000000E+03 0.  0.
          2    1    1    2  501    0 -0.87728316459E+01 -0.39493967105E+02  0.88466805409E+03  0.88559262753E+03  0.00000000000E+00 0. -1.
          1    1    1    2  502    0 -0.49960390271E+02  0.28198211502E+02 -0.10719612977E+03  0.12158202978E+03  0.00000000000E+00 0. -1.
<mgrwt>
<rscale>  0 0.47392277E+02</rscale>
<asrwt>0</asrwt>
<pdfrwt beam="2">  1        2 0.44368829E-01 0.55516981E+02</pdfrwt>
<pdfrwt beam="1">  1        1 0.14153612E+00 0.40456594E+02</pdfrwt>
<totfact> 0.31722200E+02</totfact>
</mgrwt>
</event>
<event>
 5    1  0.9399923E-003  0.6648579E+02  0.7546771E-02  0.1404817E+00
          1   -1    0    0  501    0 -0.00000000000E+00  0.00000000000E+00  0.14623485374E+03  0.14623485374E+03  0.00000000000E+00 0. -1.
          2   -1    0    0  502    0  0.00000000000E+00 -0.00000000000E+00 -0.18020338105E+03  0.18020338105E+03  0.00000000000E+00 0. -1.
         25    1    1    2    0    0 -0.73640347249E+02  0.71645476794E+02 -0.48551526585E+02  0.16893260734E+03  0.12500000000E+03 0.  0.
          2    1    1    2  501    0  0.47765740779E+02 -0.18543043662E+02  0.62944544923E+02  0.81162960739E+02  0.00000000000E+00 0. -1.
          1    1    1    2  502    0  0.25874606470E+02 -0.53102433132E+02 -0.48361545648E+02  0.76342666720E+02  0.00000000000E+00 0. -1.
<mgrwt>
<rscale>  0 0.58366509E+02</rscale>
<asrwt>0</asrwt>
<pdfrwt beam="2">  1        2 0.27723597E-01 0.66485790E+02</pdfrwt>
<pdfrwt beam="1">  1        1 0.22497670E-01 0.51238759E+02</pdfrwt>
<totfact> 0.52188258E+03</totfact>
</mgrwt>
</event>
<event>
 5    1  0.9399923E-003  0.4323185E+02  0.7546771E-02  0.1489822E+00
          1   -1    0    0  501    0 -0.00000000000E+00  0.00000000000E+00  0.23034853426E+02  0.23034853426E+02  0.00000000000E+00 0. -1.
          2   -1    0    0  502    0  0.00000000000E+00 -0.00000000000E+00 -0.15258181821E+04  0.15258181821E+04  0.00000000000E+00 0. -1.
         25    1    1    2    0    0  0.19493966016E+01 -0.33454223860E+02 -0.96125917650E+03  0.96993153864E+03  0.12500000000E+03 0.  0.
          2    1    1    2  501    0 -0.41771557221E+02  0.43915704235E+01 -0.75482678382E+01  0.42674643887E+02  0.00000000000E+00 0. -1.
          1    1    1    2  502    0  0.39822160620E+02  0.29062653437E+02 -0.53397588434E+03  0.53624685301E+03  0.00000000000E+00 0. -1.
<mgrwt>
<rscale>  0 0.42612374E+02</rscale>
<asrwt>0</asrwt>
<pdfrwt beam="2">  1        2 0.23474125E+00 0.43231852E+02</pdfrwt>
<pdfrwt beam="1">  1        1 0.35438238E-02 0.42001772E+02</pdfrwt>
<totfact> 0.46136246E+03</totfact>
</mgrwt>
</event>
<event>
 5    1  0.9399923E-003  0.9526316E+02  0.7546771E-02  0.1317603E+00
          2   -1    0    0  502    0  0.00000000000E+00  0.00000000000E+00  0.59954795673E+03  0.59954795673E+03  0.00000000000E+00 0. -1.
          1   -1    0    0  501    0 -0.00000000000E+00 -0.00000000000E+00 -0.11898576338E+04  0.11898576338E+04  0.00000000000E+00 0. -1.
         25    1    1    2    0    0 -0.12424488657E+03  0.99242281277E+01  0.74717827739E+02  0.19168473055E+03  0.12500000000E+03 0.  0.
          2    1    1    2  501    0  0.52885724906E+02  0.52299493757E+02 -0.11253284372E+04  0.11277837685E+04  0.00000000000E+00 0. -1.
          1    1    1    2  502    0  0.71359161667E+02 -0.62223721885E+02  0.46030093243E+03  0.46993709144E+03  0.00000000000E+00 0. -1.
<mgrwt>
<rscale>  0 0.84175502E+02</rscale>
<asrwt>0</asrwt>
<pdfrwt beam="1">  1        2 0.92238148E-01 0.95263156E+02</pdfrwt>
<pdfrwt beam="2">  1        1 0.18305502E+00 0.74378337E+02</pdfrwt>
<totfact> 0.91060941E+01</totfact>
</mgrwt>
</event>
<event>
 5    1  0.9399923E-003  0.6945659E+02  0.7546771E-02  0.1364976E+00
          1   -1    0    0  501    0 -0.00000000000E+00  0.00000000000E+00  0.23248085225E+03  0.23248085225E+03  0.00000000000E+00 0. -1.
          2   -1    0    0  502    0  0.00000000000E+00 -0.00000000000E+00 -0.22275265868E+04  0.22275265868E+04  0.00000000000E+00 0. -1.
         25    1    1    2    0    0 -0.40590742826E+02  0.29341982295E+02 -0.37269110161E+03  0.39627290792E+03  0.12500000000E+03 0.  0.
          2    1    1    2  501    0  0.57407073902E+02  0.39097906541E+02  0.21453250393E+03  0.22549592828E+03  0.00000000000E+00 0. -1.
          1    1    1    2  502    0 -0.16816331076E+02 -0.68439888836E+02 -0.18368871369E+04  0.18382386029E+04  0.00000000000E+00 0. -1.
<mgrwt>
<rscale>  0 0.68583731E+02</rscale>
<asrwt>0</asrwt>
<pdfrwt beam="2">  1        2 0.34269638E+00 0.67721837E+02</pdfrwt>
<pdfrwt beam="1">  1        1 0.35766287E-01 0.69456594E+02</pdfrwt>
<totfact> 0.10826916E+02</totfact>
</mgrwt>
</event>
<event>
 5    1  0.9399923E-003  0.7511574E+02  0.7546771E-02  0.1367126E+00
          2   -1    0    0  502    0  0.00000000000E+00  0.00000000000E+00  0.15070265439E+04  0.15070265439E+04  0.00000000000E+00 0. -1.
          1   -1    0    0  501    0 -0.00000000000E+00 -0.00000000000E+00 -0.14758152829E+04  0.14758152829E+04  0.00000000000E+00 0. -1.
         25    1    1    2    0    0 -0.13142928867E+03  0.12479542693E+02  0.34895513573E+03  0.39347691630E+03  0.12500000000E+03 0.  0.
          2    1    1    2  501    0  0.61311474322E+02  0.49268065840E+01 -0.14517536616E+04  0.14530561119E+04  0.00000000000E+00 0. -1.
          1    1    1    2  502    0  0.70117814345E+02 -0.17406349277E+02  0.11340097869E+04  0.11363087985E+04  0.00000000000E+00 0. -1.
<mgrwt>
<rscale>  0 0.67972802E+02</rscale>
<asrwt>0</asrwt>
<pdfrwt beam="1">  1        2 0.23185024E+00 0.75115735E+02</pdfrwt>
<pdfrwt beam="2">  1        1 0.22704850E+00 0.61509108E+02</pdfrwt>
<totfact> 0.17596952E+01</totfact>
</mgrwt>
</event>
<event>
 5    1  0.9399923E-003  0.4989480E+02  0.7546771E-02  0.1575963E+00
          2   -1    0    0  502    0  0.00000000000E+00  0.00000000000E+00  0.10609339405E+04  0.10609339405E+04  0.00000000000E+00 0. -1.
          1   -1    0    0  501    0 -0.00000000000E+00 -0.00000000000E+00 -0.29368753632E+03  0.29368753632E+03  0.00000000000E+00 0. -1.
         25    1    1    2    0    0  0.37356140434E+02 -0.20633012758E+02  0.34806510240E+03  0.37228418977E+03  0.12500000000E+03 0.  0.
          2    1    1    2  501    0 -0.49790115548E+02  0.41424812875E+01 -0.27920786242E+03  0.28364281446E+03  0.00000000000E+00 0. -1.
          1    1    1    2  502    0  0.12433975114E+02  0.16490531470E+02  0.69838916417E+03  0.69869447257E+03  0.00000000000E+00 0. -1.
<mgrwt>
<rscale>  0 0.32100954E+02</rscale>
<asrwt>0</asrwt>
<pdfrwt beam="1">  1        2 0.16322060E+00 0.20652878E+02</pdfrwt>
<pdfrwt beam="2">  1        1 0.45182699E-01 0.49894803E+02</pdfrwt>
<totfact> 0.34212732E+02</totfact>
</mgrwt>
</event>
<event>
 5    1  0.9399923E-003  0.1323659E+03  0.7546771E-02  0.1340732E+00
          2   -1    0    0  502    0  0.00000000000E+00  0.00000000000E+00  0.67987757454E+03  0.67987757454E+03  0.00000000000E+00 0. -1.
         -2   -1    0    0    0  501 -0.00000000000E+00 -0.00000000000E+00 -0.21036295081E+03  0.21036295081E+03  0.00000000000E+00 0.  1.
         25    1    1    2    0    0  0.15886656085E+02  0.90334835326E+02  0.36864339548E+03  0.39991964361E+03  0.12500000000E+03 0.  0.
          1    1    1    2  502    0 -0.55881821676E+00  0.43659454702E+02  0.27027925540E+03  0.27378337451E+03  0.00000000000E+00 0. -1.
         -1    1    1    2    0  501 -0.15327837869E+02 -0.13399429003E+03 -0.16940802714E+03  0.21653750722E+03  0.00000000000E+00 0.  1.
<mgrwt>
<rscale>  0 0.76023013E+02</rscale>
<asrwt>0</asrwt>
<pdfrwt beam="1">  1        2 0.10459655E+00 0.43663031E+02</pdfrwt>
<pdfrwt beam="2">  1       -2 0.32363531E-01 0.13236595E+03</pdfrwt>
<totfact> 0.40630120E+02</totfact>
</mgrwt>
</event>
<event>
 5    1  0.9399923E-003  0.8170035E+02  0.7546771E-02  0.1500554E+00
         -2   -1    0    0    0  501 -0.00000000000E+00  0.00000000000E+00  0.31242179608E+02  0.31242179608E+02  0.00000000000E+00 0.  1.
          2   -1    0    0  502    0  0.00000000000E+00 -0.00000000000E+00 -0.68918840065E+03  0.68918840065E+03  0.00000000000E+00 0. -1.
         25    1    1    2    0    0  0.76132210410E+02 -0.50851075512E+02 -0.44505149792E+03  0.47125129299E+03  0.12500000000E+03 0.  0.
          1    1    1    2  502    0 -0.70616047228E+02  0.30966786869E+02 -0.21502698853E+03  0.22843417829E+03  0.00000000000E+00 0. -1.
         -1    1    1    2    0  501 -0.55161631819E+01  0.19884288644E+02  0.21322654007E+01  0.20745108986E+02  0.00000000000E+00 0.  1.
<mgrwt>
<rscale>  0 0.41059787E+02</rscale>
<asrwt>0</asrwt>
<pdfrwt beam="2">  1        2 0.10602898E+00 0.81700353E+02</pdfrwt>
<pdfrwt beam="1">  1       -2 0.48064893E-02 0.20635237E+02</pdfrwt>
<totfact> 0.69610367E+03</totfact>
</mgrwt>
</event>
<event>
 5    1  0.9399923E-003  0.5692029E+02  0.7546771E-02  0.1419231E+00
          1   -1    0    0  502    0  0.00000000000E+00  0.00000000000E+00  0.22255310190E+03  0.22255310190E+03  0.00000000000E+00 0. -1.
         -1   -1    0    0    0  501 -0.00000000000E+00 -0.00000000000E+00 -0.19816017544E+03  0.19816017544E+03  0.00000000000E+00 0.  1.
         25    1    1    2    0    0  0.11002277883E+02 -0.30084760014E+02  0.65602150107E+02  0.14475767683E+03  0.12500000000E+03 0.  0.
          2    1    1    2  502    0  0.36388468644E+02  0.54912334771E+02  0.10293151646E+03  0.12220631015E+03  0.00000000000E+00 0. -1.
         -2    1    1    2    0  501 -0.47390746527E+02 -0.24827574757E+02 -0.14414074011E+03  0.15374929035E+03  0.00000000000E+00 0.  1.
<mgrwt>
<rscale>  0 0.55183854E+02</rscale>
<asrwt>0</asrwt>
<pdfrwt beam="1">  1        1 0.34238939E-01 0.56920294E+02</pdfrwt>
<pdfrwt beam="2">  1       -1 0.30486181E-01 0.53500386E+02</pdfrwt>
<totfact> 0.12190061E+03</totfact>
</mgrwt>
</event>
<event>
 5    1  0.9399923E-003  0.8982226E+02  0.7546771E-02  0.1338017E+00
          2   -1    0    0  502    0  0.00000000000E+00  0.00000000000E+00  0.93209432988E+03  0.93209432988E+03  0.00000000000E+00 0. -1.
          1   -1    0    0  501    0 -0.00000000000E+00 -0.00000000000E+00 -0.91855495479E+03  0.91855495479E+03  0.00000000000E+00 0. -1.
         25    1    1    2    0    0 -0.27681879683E+02 -0.13021538316E+03  0.22633535285E+03  0.29081785437E+03  0.12500000000E+03 0.  0.
          2    1    1    2  501    0  0.55332726056E+02  0.70423079429E+02 -0.88243080698E+03  0.88696406342E+03  0.00000000000E+00 0. -1.
          1    1    1    2  502    0 -0.27650846373E+02  0.59792303731E+02  0.66963482923E+03  0.67286736688E+03  0.00000000000E+00 0. -1.
<mgrwt>
<rscale>  0 0.76923074E+02</rscale>
<asrwt>0</asrwt>
<pdfrwt beam="1">  1        2 0.14339913E+00 0.65876315E+02</pdfrwt>
<pdfrwt beam="2">  1        1 0.14131615E+00 0.89822258E+02</pdfrwt>
<totfact> 0.83558352E+01</totfact>
</mgrwt>
</event>
<event>
 5    1  0.9399923E-003  0.4723684E+02  0.7546771E-02  0.1533887E+00
          2   -1    0    0  502    0  0.00000000000E+00  0.00000000000E+00  0.68028979573E+03  0.68028979573E+03  0.00000000000E+00 0. -1.
          1   -1    0    0  501    0 -0.00000000000E+00 -0.00000000000E+00 -0.64254518102E+03  0.64254518102E+03  0.00000000000E+00 0. -1.
         25    1    1    2    0    0  0.37629187428E+02  0.65377437795E+02 -0.73757271909E+02  0.16357047496E+03  0.12500000000E+03 0.  0.
          2    1    1    2  501    0 -0.12314257553E+02 -0.25741312793E+02 -0.52262126916E+03  0.52339970109E+03  0.00000000000E+00 0. -1.
          1    1    1    2  502    0 -0.25314929875E+02 -0.39636125002E+02  0.63412315578E+03  0.63586480071E+03  0.00000000000E+00 0. -1.
<mgrwt>
<rscale>  0 0.36713913E+02</rscale>
<asrwt>0</asrwt>
<pdfrwt beam="1">  1        2 0.10465997E+00 0.47236841E+02</pdfrwt>
<pdfrwt beam="2">  1        1 0.98853105E-01 0.28535173E+02</pdfrwt>
<totfact> 0.21682381E+02</totfact>
</mgrwt>
</event>
<event>
 5    1  0.9399923E-003  0.1206767E+03  0.7546771E-02  0.1307973E+00
          2   -1    0    0  502    0  0.00000000000E+00  0.00000000000E+00  0.26322079102E+04  0.26322079102E+04  0.00000000000E+00 0. -1.
          1   -1    0    0  501    0 -0.00000000000E+00 -0.00000000000E+00 -0.23774736584E+02  0.23774736584E+02  0.00000000000E+00 0. -1.
         25    1    1    2    0    0 -0.18032131201E+01 -0.81237504873E+02  0.14005354446E+04  0.14084485491E+04  0.12500000000E+03 0.  0.
          2    1    1    2  501    0  0.56400710751E+02  0.11473078290E+03  0.19850432585E+03  0.23611048282E+03  0.00000000000E+00 0. -1.
          1    1    1    2  502    0 -0.54597497631E+02 -0.33493278025E+02  0.10093934032E+04  0.10114236149E+04  0.00000000000E+00 0. -1.
<mgrwt>
<rscale>  0 0.87918192E+02</rscale>
<asrwt>0</asrwt>
<pdfrwt beam="1">  1        2 0.40495483E+00 0.64052216E+02</pdfrwt>
<pdfrwt beam="2">  1        1 0.36576539E-02 0.12067667E+03</pdfrwt>
<totfact> 0.13411029E+03</totfact>
</mgrwt>
</event>
<event>
 5    1  0.9399923E-003  0.4833803E+02  0.7546771E-02  0.1489368E+00
          2   -1    0    0  502    0  0.00000000000E+00  0.00000000000E+00  0.31505378725E+03  0.31505378725E+03  0.00000000000E+00 0. -1.
          1   -1    0    0  501    0 -0.00000000000E+00 -0.00000000000E+00 -0.17496031887E+04  0.17496031887E+04  0.00000000000E+00 0. -1.
         25    1    1    2    0    0  0.20849446025E+02  0.48983810986E+02 -0.41964429684E+03  0.44109006904E+03  0.12500000000E+03 0.  0.
          2    1    1    2  501    0 -0.37515101589E+02 -0.35644546555E+01 -0.13170420029E+04  0.13175810129E+04  0.00000000000E+00 0. -1.
          1    1    1    2  502    0  0.16665655564E+02 -0.45419356331E+02  0.30213689830E+03  0.30598589399E+03  0.00000000000E+00 0. -1.
<mgrwt>
<rscale>  0 0.42679890E+02</rscale>
<asrwt>0</asrwt>
<pdfrwt beam="1">  1        2 0.48469814E-01 0.48338027E+02</pdfrwt>
<pdfrwt beam="2">  1        1 0.26916972E+00 0.37684057E+02</pdfrwt>
<totfact> 0.85878706E+01</totfact>
</mgrwt>
</event>
<event>
 5    1  0.9399923E-003  0.7632498E+02  0.7546771E-02  0.1403186E+00
          2   -1    0    0  502    0  0.00000000000E+00  0.00000000000E+00  0.17723219976E+04  0.17723219976E+04  0.00000000000E+00 0. -1.
         -2   -1    0    0    0  501 -0.00000000000E+00 -0.00000000000E+00 -0.19612037314E+02  0.19612037314E+02  0.00000000000E+00 0.  1.
         25    1    1    2    0    0  0.29897081734E+02 -0.52299337908E+02  0.35506930916E+03  0.38121945196E+03  0.12500000000E+03 0.  0.
          1    1    1    2  502    0 -0.71112410217E+02  0.33717963264E+02  0.13075492832E+04  0.13099156477E+04  0.00000000000E+00 0. -1.
         -1    1    1    2    0  501  0.41215328483E+02  0.18581374644E+02  0.90091367865E+02  0.10079893526E+03  0.00000000000E+00 0.  1.
<mgrwt>
<rscale>  0 0.58742446E+02</rscale>
<asrwt>0</asrwt>
<pdfrwt beam="1">  1        2 0.27266480E+00 0.76324982E+02</pdfrwt>
<pdfrwt beam="2">  1       -2 0.30172379E-02 0.45210295E+02</pdfrwt>
<totfact> 0.37705990E+03</totfact>
</mgrwt>
</event>
<event>
 5    1  0.9399923E-003  0.1527802E+03  0.7546771E-02  0.1240078E+00
          2   -1    0    0  502    0  0.00000000000E+00  0.00000000000E+00  0.17408412402E+04  0.17408412402E+04  0.00000000000E+00 0. -1.
          1   -1    0    0  501    0 -0.00000000000E+00 -0.00000000000E+00 -0.40942294314E+03  0.40942294314E+03  0.00000000000E+00 0. -1.
         25    1    1    2    0    0 -0.67995249516E+02  0.17360313114E+03  0.38337682768E+03  0.44425689989E+03  0.12500000000E+03 0.  0.
          2    1    1    2  501    0 -0.26326422800E+02 -0.15020816235E+03 -0.36176885709E+03  0.39259683969E+03  0.00000000000E+00 0. -1.
          1    1    1    2  502    0  0.94321672316E+02 -0.23394968783E+02  0.13098103265E+04  0.13134104438E+04  0.00000000000E+00 0. -1.
<mgrwt>
<rscale>  0 0.12184885E+03</rscale>
<asrwt>0</asrwt>
<pdfrwt beam="1">  1        2 0.26782172E+00 0.97179743E+02</pdfrwt>
<pdfrwt beam="2">  1        1 0.62988146E-01 0.15278022E+03</pdfrwt>
<totfact> 0.90738516E+01</totfact>
</mgrwt>
</event>
<event>
 5    1  0.9399923E-003  0.4573682E+02  0.7546771E-02  0.1488054E+00
          1   -1    0    0  501    0 -0.00000000000E+00  0.00000000000E+00  0.91469771785E+03  0.91469771785E+03  0.00000000000E+00 0. -1.
          2   -1    0    0  502    0  0.00000000000E+00 -0.00000000000E+00 -0.10572615360E+03  0.10572615360E+03  0.00000000000E+00 0. -1.
         25    1    1    2    0    0  0.21205031169E+02 -0.34352134338E+01  0.54270854951E+03  0.55733205879E+03  0.12500000000E+03 0.  0.
          2    1    1    2  501    0 -0.45452630461E+02 -0.28621357520E+02  0.35848740248E+03  0.36248909150E+03  0.00000000000E+00 0. -1.
          1    1    1    2  502    0  0.24247599292E+02  0.32056570954E+02 -0.92224387731E+02  0.10060272116E+03  0.00000000000E+00 0. -1.
<mgrwt>
<rscale>  0 0.42876016E+02</rscale>
<asrwt>0</asrwt>
<pdfrwt beam="2">  1        2 0.16265563E-01 0.40194151E+02</pdfrwt>
<pdfrwt beam="1">  1        1 0.14072272E+00 0.45736823E+02</pdfrwt>
<totfact> 0.90997218E+02</totfact>
</mgrwt>
</event>
<event>
 5    1  0.9399923E-003  0.6654783E+02  0.7546771E-02  0.1480191E+00
          2   -1    0    0  502    0  0.00000000000E+00  0.00000000000E+00  0.18533625036E+03  0.18533625036E+03  0.00000000000E+00 0. -1.
          1   -1    0    0  501    0 -0.00000000000E+00 -0.00000000000E+00 -0.25487810143E+03  0.25487810143E+03  0.00000000000E+00 0. -1.
         25    1    1    2    0    0 -0.10360769976E+02 -0.38933187974E+02 -0.86956086590E+02  0.15751031609E+03  0.12500000000E+03 0.  0.
          2    1    1    2  501    0  0.34766099808E+01 -0.28985326264E+02 -0.12308409210E+03  0.12649873392E+03  0.00000000000E+00 0. -1.
          1    1    1    2  502    0  0.68841599956E+01  0.67918514239E+02  0.14049832763E+03  0.15620530177E+03  0.00000000000E+00 0. -1.
<mgrwt>
<rscale>  0 0.44076481E+02</rscale>
<asrwt>0</asrwt>
<pdfrwt beam="1">  1        2 0.28513269E-01 0.66547831E+02</pdfrwt>
<pdfrwt beam="2">  1        1 0.39212016E-01 0.29193081E+02</pdfrwt>
<totfact> 0.25705527E+03</totfact>
</mgrwt>
</event>
<event>
 5    1  0.9399923E-003  0.3830896E+02  0.7546771E-02  0.1570332E+00
          2   -1    0    0  502    0  0.00000000000E+00  0.00000000000E+00  0.25470496815E+04  0.25470496815E+04  0.00000000000E+00 0. -1.
         -2   -1    0    0    0  501 -0.00000000000E+00 -0.00000000000E+00 -0.39361041157E+02  0.39361041157E+02  0.00000000000E+00 0.  1.
         25    1    1    2    0    0 -0.34719510334E+02  0.33122277082E+01  0.16389707835E+04  0.16441005578E+04  0.12500000000E+03 0.  0.
          1    1    1    2  502    0  0.48527524317E+01 -0.27433342710E+02  0.89522437610E+03  0.89565775889E+03  0.00000000000E+00 0. -1.
         -1    1    1    2    0  501  0.29866757902E+02  0.24121115002E+02 -0.26506519225E+02  0.46652405918E+02  0.00000000000E+00 0.  1.
<mgrwt>
<rscale>  0 0.32668927E+02</rscale>
<asrwt>0</asrwt>
<pdfrwt beam="1">  1        2 0.39185367E+00 0.27859244E+02</pdfrwt>
<pdfrwt beam="2">  1       -2 0.60555468E-02 0.38308963E+02</pdfrwt>
<totfact> 0.64052036E+02</totfact>
</mgrwt>
</event>
<event>
 5    1  0.9399923E-003  0.8446523E+02  0.7546771E-02  0.1361613E+00
          2   -1    0    0  502    0  0.00000000000E+00  0.00000000000E+00  0.47959289051E+03  0.47959289051E+03  0.00000000000E+00 0. -1.
          1   -1    0    0  501    0 -0.00000000000E+00 -0.00000000000E+00 -0.10644499160E+04  0.10644499160E+04  0.00000000000E+00 0. -1.
         25    1    1    2    0    0  0.14072971655E+03  0.52060126192E+01  0.38528189428E+02  0.19220139716E+03  0.12500000000E+03 0.  0.
          2    1    1    2  501    0 -0.83453793093E+02 -0.49328974164E+01 -0.98357735020E+03  0.98712373737E+03  0.00000000000E+00 0. -1.
          3    1    1    2  502    0 -0.57275923460E+02 -0.27311520279E+00  0.36019213523E+03  0.36471767202E+03  0.00000000000E+00 0. -1.
<mgrwt>
<rscale>  0 0.69554862E+02</rscale>
<asrwt>0</asrwt>
<pdfrwt beam="1">  1        2 0.73783522E-01 0.57276575E+02</pdfrwt>
<pdfrwt beam="2">  1        1 0.16376153E+00 0.84465225E+02</pdfrwt>
<totfact> 0.14117362E+02</totfact>
</mgrwt>
</event>
<event>
 5    1  0.9399923E-003  0.6733672E+02  0.7546771E-02  0.1385545E+00
          2   -1    0    0  502    0  0.00000000000E+00  0.00000000000E+00  0.13510548730E+04  0.13510548730E+04  0.00000000000E+00 0. -1.
         -2   -1    0    0    0  501 -0.00000000000E+00 -0.00000000000E+00 -0.17106934863E+03  0.17106934863E+03  0.00000000000E+00 0.  1.
         25    1    1    2    0    0  0.74150249708E+02 -0.81004430727E+01  0.23758324101E+03  0.27862999321E+03  0.12500000000E+03 0.  0.
          1    1    1    2  502    0 -0.50440510597E+02 -0.45921435068E+02  0.10860570325E+04  0.10881970875E+04  0.00000000000E+00 0. -1.
         -3    1    1    2    0  501 -0.23709739110E+02  0.54021878141E+02 -0.14365474913E+03  0.15529714097E+03  0.00000000000E+00 0.  1.
<mgrwt>
<rscale>  0 0.63028485E+02</rscale>
<asrwt>0</asrwt>
<pdfrwt beam="1">  1        2 0.20785459E+00 0.67336723E+02</pdfrwt>
<pdfrwt beam="2">  1       -2 0.26318362E-01 0.58995890E+02</pdfrwt>
<totfact> 0.22859570E+02</totfact>
</mgrwt>
</event>
<event>
 5    1  0.9399923E-003  0.1270445E+03  0.7546771E-02  0.1288194E+00
          1   -1    0    0  501    0 -0.00000000000E+00  0.00000000000E+00  0.10074409244E+04  0.10074409244E+04  0.00000000000E+00 0. -1.
          2   -1    0    0  502    0  0.00000000000E+00 -0.00000000000E+00 -0.40852116709E+03  0.40852116709E+03  0.00000000000E+00 0. -1.
         25    1    1    2    0    0 -0.52150994821E+01 -0.10846198401E+03 -0.31205650273E+03  0.35326400911E+03  0.12500000000E+03 0.  0.
          2    1    1    2  501    0  0.77881693268E+02  0.10097609213E+03  0.96402149705E+03  0.97241923886E+03  0.00000000000E+00 0. -1.
          1    1    1    2  502    0 -0.72666593785E+02  0.74858918829E+01 -0.53045236965E+02  0.90278843559E+02  0.00000000000E+00 0. -1.
<mgrwt>
<rscale>  0 0.96336659E+02</rscale>
<asrwt>0</asrwt>
<pdfrwt beam="2">  1        2 0.62849410E-01 0.73051163E+02</pdfrwt>
<pdfrwt beam="1">  1        1 0.15499091E+00 0.12704455E+03</pdfrwt>
<totfact> 0.17823262E+02</totfact>
</mgrwt>
</event>
<event>
 5    1  0.9399923E-003  0.8026041E+02  0.7546771E-02  0.1329500E+00
          2   -1    0    0  502    0  0.00000000000E+00  0.00000000000E+00  0.89457951765E+03  0.89457951765E+03  0.00000000000E+00 0. -1.
          1   -1    0    0  501    0 -0.00000000000E+00 -0.00000000000E+00 -0.78266671409E+02  0.78266671409E+02  0.00000000000E+00 0. -1.
         25    1    1    2    0    0  0.93696167316E+02  0.56886737713E+01  0.51261140332E+03  0.53591676928E+03  0.12500000000E+03 0.  0.
          2    1    1    2  501    0 -0.37271721538E+02 -0.70138202397E+02 -0.35558419821E+02  0.87022697511E+02  0.00000000000E+00 0. -1.
          1    1    1    2  502    0 -0.56424445777E+02  0.64449528626E+02  0.33925986274E+03  0.34990672227E+03  0.00000000000E+00 0. -1.
<mgrwt>
<rscale>  0 0.79842304E+02</rscale>
<asrwt>0</asrwt>
<pdfrwt beam="1">  1        2 0.13762761E+00 0.80260413E+02</pdfrwt>
<pdfrwt beam="2">  1        1 0.12041027E-01 0.79426373E+02</pdfrwt>
<totfact> 0.20538277E+03</totfact>
</mgrwt>
</event>
<event>
 5    1  0.9399923E-003  0.3258310E+02  0.7546771E-02  0.1621676E+00
          2   -1    0    0  502    0  0.00000000000E+00  0.00000000000E+00  0.17682461722E+04  0.17682461722E+04  0.00000000000E+00 0. -1.
          1   -1    0    0  501    0 -0.00000000000E+00 -0.00000000000E+00 -0.51727319112E+03  0.51727319112E+03  0.00000000000E+00 0. -1.
         25    1    1    2    0    0 -0.26583869819E+01  0.54889562867E+02  0.50809256294E+02  0.14569321075E+03  0.12500000000E+03 0.  0.
          2    1    1    2  501    0 -0.54061723908E+01 -0.23393450049E+02 -0.46936609254E+03  0.46997979641E+03  0.00000000000E+00 0. -1.
          1    1    1    2  502    0  0.80645593727E+01 -0.31496112818E+02  0.16695298173E+04  0.16698463562E+04  0.00000000000E+00 0. -1.
<mgrwt>
<rscale>  0 0.27969989E+02</rscale>
<asrwt>0</asrwt>
<pdfrwt beam="1">  1        2 0.27203787E+00 0.32583100E+02</pdfrwt>
<pdfrwt beam="2">  1        1 0.79580492E-01 0.24010002E+02</pdfrwt>
<totfact> 0.76016556E+01</totfact>
</mgrwt>
</event>
<event>
 5    1  0.9399923E-003  0.1210329E+03  0.7546771E-02  0.1444624E+00
          1   -1    0    0  502    0  0.00000000000E+00  0.00000000000E+00  0.15985621644E+03  0.15985621644E+03  0.00000000000E+00 0. -1.
         -1   -1    0    0    0  501 -0.00000000000E+00 -0.00000000000E+00 -0.41803734946E+03  0.41803734946E+03  0.00000000000E+00 0.  1.
         25    1    1    2    0    0 -0.92008930036E+02 -0.68394526035E+02 -0.11653860494E+03  0.20579042942E+03  0.12500000000E+03 0.  0.
          2    1    1    2  502    0  0.56868435805E+01 -0.19971895425E+02  0.99241433754E+02  0.10139072428E+03  0.00000000000E+00 0. -1.
         -2    1    1    2    0  501  0.86322086455E+02  0.88366421460E+02 -0.24088396184E+03  0.27071241220E+03  0.00000000000E+00 0.  1.
<mgrwt>
<rscale>  0 0.50133224E+02</rscale>
<asrwt>0</asrwt>
<pdfrwt beam="1">  1        1 0.24593264E-01 0.20765760E+02</pdfrwt>
<pdfrwt beam="2">  1       -1 0.64313437E-01 0.12103290E+03</pdfrwt>
<totfact> 0.46797892E+02</totfact>
</mgrwt>
</event>
<event>
 5    1  0.9399923E-003  0.1388384E+03  0.7546771E-02  0.1376748E+00
          2   -1    0    0  502    0  0.00000000000E+00  0.00000000000E+00  0.20480913497E+04  0.20480913497E+04  0.00000000000E+00 0. -1.
          1   -1    0    0  501    0 -0.00000000000E+00 -0.00000000000E+00 -0.69546580167E+02  0.69546580167E+02  0.00000000000E+00 0. -1.
         25    1    1    2    0    0 -0.30582946258E+02 -0.14989009836E+03  0.52170451595E+03  0.55785568040E+03  0.12500000000E+03 0.  0.
          2    1    1    2  501    0  0.51022939523E+02  0.12693373682E+03  0.39894199452E+02  0.14250284576E+03  0.00000000000E+00 0. -1.
          1    1    1    2  502    0 -0.20439993265E+02  0.22956361548E+02  0.14169460541E+04  0.14172794037E+04  0.00000000000E+00 0. -1.
<mgrwt>
<rscale>  0 0.65326354E+02</rscale>
<asrwt>0</asrwt>
<pdfrwt beam="1">  1        2 0.31509093E+00 0.30737402E+02</pdfrwt>
<pdfrwt beam="2">  1        1 0.10699475E-01 0.13883843E+03</pdfrwt>
<totfact> 0.68869903E+02</totfact>
</mgrwt>
</event>
<event>
 5    1  0.9399923E-003  0.1274880E+03  0.7546771E-02  0.1297007E+00
          2   -1    0    0  502    0  0.00000000000E+00  0.00000000000E+00  0.20301209200E+04  0.20301209200E+04  0.00000000000E+00 0. -1.
         -2   -1    0    0    0  501 -0.00000000000E+00 -0.00000000000E+00 -0.32377852462E+02  0.32377852462E+02  0.00000000000E+00 0.  1.
         25    1    1    2    0    0 -0.39772645778E+02  0.14342653811E+03  0.86104090328E+03  0.88270576769E+03  0.12500000000E+03 0.  0.
          1    1    1    2  502    0 -0.23750609846E+02 -0.12195927863E+03  0.10923622976E+04  0.10994059971E+04  0.00000000000E+00 0. -1.
         -1    1    1    2    0  501  0.63523255624E+02 -0.21467259479E+02  0.44339866625E+02  0.80387007700E+02  0.00000000000E+00 0.  1.
<mgrwt>
<rscale>  0 0.92457565E+02</rscale>
<asrwt>0</asrwt>
<pdfrwt beam="1">  1        2 0.31232620E+00 0.12748805E+03</pdfrwt>
<pdfrwt beam="2">  1       -2 0.49812096E-02 0.67052571E+02</pdfrwt>
<totfact> 0.13474639E+03</totfact>
</mgrwt>
</event>
<event>
 5    1  0.9399923E-003  0.6738073E+02  0.7546771E-02  0.1489833E+00
          2   -1    0    0  502    0  0.00000000000E+00  0.00000000000E+00  0.20362030439E+03  0.20362030439E+03  0.00000000000E+00 0. -1.
         -2   -1    0    0    0  501 -0.00000000000E+00 -0.00000000000E+00 -0.81820938718E+03  0.81820938718E+03  0.00000000000E+00 0.  1.
         25    1    1    2    0    0  0.44409810286E+02  0.69003885187E+01 -0.31390518037E+03  0.34085379399E+03  0.12500000000E+03 0.  0.
          1    1    1    2  502    0  0.25932194840E+02  0.73239683640E+01  0.18654946858E+03  0.18848560547E+03  0.00000000000E+00 0. -1.
         -1    1    1    2    0  501 -0.70342005125E+02 -0.14224356883E+02 -0.48723337100E+03  0.49249029212E+03  0.00000000000E+00 0.  1.
<mgrwt>
<rscale>  0 0.42610814E+02</rscale>
<asrwt>0</asrwt>
<pdfrwt beam="1">  1        2 0.31326200E-01 0.26946600E+02</pdfrwt>
<pdfrwt beam="2">  1       -2 0.12587837E+00 0.67380726E+02</pdfrwt>
<totfact> 0.83183805E+01</totfact>
</mgrwt>
</event>
<event>
 5    1  0.9399923E-003  0.7929717E+02  0.7546771E-02  0.1408817E+00
         -2   -1    0    0    0  501 -0.00000000000E+00  0.00000000000E+00  0.56990552187E+02  0.56990552187E+02  0.00000000000E+00 0.  1.
          2   -1    0    0  502    0  0.00000000000E+00 -0.00000000000E+00 -0.17044707057E+04  0.17044707057E+04  0.00000000000E+00 0. -1.
         25    1    1    2    0    0  0.39481714908E+02  0.61615528858E+02 -0.44437753000E+03  0.46738813461E+03  0.12500000000E+03 0.  0.
          1    1    1    2  502    0  0.32671280191E+02 -0.25807533136E+02 -0.12122867217E+04  0.12130014579E+04  0.00000000000E+00 0. -1.
         -1    1    1    2    0  501 -0.72152995100E+02 -0.35807995722E+02  0.91840982068E+01  0.81071665330E+02  0.00000000000E+00 0.  1.
<mgrwt>
<rscale>  0 0.57458743E+02</rscale>
<asrwt>0</asrwt>
<pdfrwt beam="2">  1        2 0.26222622E+00 0.41634617E+02</pdfrwt>
<pdfrwt beam="1">  1       -2 0.87677786E-02 0.79297166E+02</pdfrwt>
<totfact> 0.95551194E+02</totfact>
</mgrwt>
</event>
<event>
 5    1  0.9399923E-003  0.5355487E+02  0.7546771E-02  0.1444696E+00
          2   -1    0    0  502    0  0.00000000000E+00  0.00000000000E+00  0.34238793578E+03  0.34238793578E+03  0.00000000000E+00 0. -1.
          1   -1    0    0  501    0 -0.00000000000E+00 -0.00000000000E+00 -0.12092545069E+04  0.12092545069E+04  0.00000000000E+00 0. -1.
         25    1    1    2    0    0  0.41721721234E+01  0.15453739364E+02 -0.35770172609E+03  0.37925156549E+03  0.12500000000E+03 0.  0.
          2    1    1    2  501    0  0.26730091042E+02 -0.50740235817E+02 -0.83813439736E+03  0.84009424313E+03  0.00000000000E+00 0. -1.
          1    1    1    2  502    0 -0.30902263165E+02  0.35286496453E+02  0.32896955229E+03  0.33229663410E+03  0.00000000000E+00 0. -1.
<mgrwt>
<rscale>  0 0.50119812E+02</rscale>
<asrwt>0</asrwt>
<pdfrwt beam="1">  1        2 0.52675068E-01 0.46905082E+02</pdfrwt>
<pdfrwt beam="2">  1        1 0.18603915E+00 0.53554870E+02</pdfrwt>
<totfact> 0.16519808E+02</totfact>
</mgrwt>
</event>
<event>
 5    1  0.9399923E-003  0.1515631E+03  0.7546771E-02  0.1239665E+00
          2   -1    0    0  502    0  0.00000000000E+00  0.00000000000E+00  0.82031393383E+03  0.82031393383E+03  0.00000000000E+00 0. -1.
          1   -1    0    0  501    0 -0.00000000000E+00 -0.00000000000E+00 -0.37116622614E+03  0.37116622614E+03  0.00000000000E+00 0. -1.
         25    1    1    2    0    0  0.13233083591E+03  0.36375618001E+02  0.11394282817E+03  0.21781323148E+03  0.12500000000E+03 0.  0.
          2    1    1    2  501    0  0.14543762170E+02 -0.97290879854E+02 -0.30163822556E+03  0.31727378625E+03  0.00000000000E+00 0. -1.
          1    1    1    2  502    0 -0.14687459808E+03  0.60915261853E+02  0.63684310508E+03  0.65639314224E+03  0.00000000000E+00 0. -1.
<mgrwt>
<rscale>  0 0.12210467E+03</rscale>
<asrwt>0</asrwt>
<pdfrwt beam="1">  1        2 0.12620214E+00 0.15156305E+03</pdfrwt>
<pdfrwt beam="2">  1        1 0.57102497E-01 0.98371929E+02</pdfrwt>
<totfact> 0.32370954E+02</totfact>
</mgrwt>
</event>
<event>
 5    1  0.9399923E-003  0.8747057E+02  0.7546771E-02  0.1356915E+00
         -2   -1    0    0    0  501 -0.00000000000E+00  0.00000000000E+00  0.51670535422E+03  0.51670535422E+03  0.00000000000E+00 0.  1.
          2   -1    0    0  502    0  0.00000000000E+00 -0.00000000000E+00 -0.64116522427E+03  0.64116522427E+03  0.00000000000E+00 0. -1.
         25    1    1    2    0    0 -0.34026839059E+02  0.34152296178E+02  0.30054120949E+02  0.13730424355E+03  0.12500000000E+03 0.  0.
          1    1    1    2  502    0  0.14971717962E+02  0.55556507177E+02 -0.58124789302E+03  0.58408885537E+03  0.00000000000E+00 0. -1.
         -1    1    1    2    0  501  0.19055121097E+02 -0.89708803355E+02  0.42673390202E+03  0.43647747957E+03  0.00000000000E+00 0.  1.
<mgrwt>
<rscale>  0 0.70943107E+02</rscale>
<asrwt>0</asrwt>
<pdfrwt beam="2">  1        2 0.98640804E-01 0.57538490E+02</pdfrwt>
<pdfrwt beam="1">  1       -2 0.79493131E-01 0.87470569E+02</pdfrwt>
<totfact> 0.72621725E+01</totfact>
</mgrwt>
</event>
<event>
 5    1  0.9399923E-003  0.4656531E+02  0.7546771E-02  0.1566810E+00
          2   -1    0    0  502    0  0.00000000000E+00  0.00000000000E+00  0.38100406328E+02  0.38100406328E+02  0.00000000000E+00 0. -1.
         -2   -1    0    0    0  501 -0.00000000000E+00 -0.00000000000E+00 -0.40123672675E+03  0.40123672675E+03  0.00000000000E+00 0.  1.
         25    1    1    2    0    0 -0.18775672339E+02 -0.37958220245E+02 -0.12704176269E+03  0.18318832338E+03  0.12500000000E+03 0.  0.
          1    1    1    2  502    0 -0.13489376445E+01  0.49959072839E+02 -0.58181822782E+02  0.76699759413E+02  0.00000000000E+00 0. -1.
         -1    1    1    2    0  501  0.20124609983E+02 -0.12000852594E+02 -0.17791273496E+03  0.17944905029E+03  0.00000000000E+00 0.  1.
<mgrwt>
<rscale>  0 0.33031505E+02</rscale>
<asrwt>0</asrwt>
<pdfrwt beam="1">  1        2 0.58616006E-02 0.46565310E+02</pdfrwt>
<pdfrwt beam="2">  1       -2 0.61728731E-01 0.23431184E+02</pdfrwt>
<totfact> 0.27728521E+03</totfact>
</mgrwt>
</event>
<event>
 5    1  0.9399923E-003  0.8306566E+02  0.7546771E-02  0.1326354E+00
         -2   -1    0    0    0  501 -0.00000000000E+00  0.00000000000E+00  0.40753763122E+03  0.40753763122E+03  0.00000000000E+00 0.  1.
          2   -1    0    0  502    0  0.00000000000E+00 -0.00000000000E+00 -0.22262049309E+03  0.22262049309E+03  0.00000000000E+00 0. -1.
         25    1    1    2    0    0 -0.15159991327E+02  0.23554035147E+02 -0.68358033771E+01  0.12828229074E+03  0.12500000000E+03 0.  0.
          1    1    1    2  502    0 -0.73802705354E+02 -0.27911523408E+02 -0.13873077120E+03  0.15959987260E+03  0.00000000000E+00 0. -1.
         -1    1    1    2    0  501  0.88962696682E+02  0.43574882610E+01  0.33048371270E+03  0.34227596098E+03  0.00000000000E+00 0.  1.
<mgrwt>
<rscale>  0 0.80958260E+02</rscale>
<asrwt>0</asrwt>
<pdfrwt beam="2">  1        2 0.34249307E-01 0.78904325E+02</pdfrwt>
<pdfrwt beam="1">  1       -2 0.62698097E-01 0.83065660E+02</pdfrwt>
<totfact> 0.36492336E+02</totfact>
</mgrwt>
</event>
<event>
 5    1  0.9399923E-003  0.3233584E+02  0.7546771E-02  0.1608019E+00
          1   -1    0    0  501    0 -0.00000000000E+00  0.00000000000E+00  0.14741426510E+03  0.14741426510E+03  0.00000000000E+00 0. -1.
          2   -1    0    0  502    0  0.00000000000E+00 -0.00000000000E+00 -0.77499754064E+03  0.77499754064E+03  0.00000000000E+00 0. -1.
         25    1    1    2    0    0  0.14374648843E+02 -0.29682792556E+01  0.82184417149E+02  0.15031540052E+03  0.12500000000E+03 0.  0.
          2    1    1    2  501    0 -0.32217170687E+02  0.22187734169E+02  0.18559121234E+02  0.43297605195E+02  0.00000000000E+00 0. -1.
          1    1    1    2  502    0  0.17842521844E+02 -0.19219454913E+02 -0.72832681393E+03  0.72879880002E+03  0.00000000000E+00 0. -1.
<mgrwt>
<rscale>  0 0.29120487E+02</rscale>
<asrwt>0</asrwt>
<pdfrwt beam="2">  1        2 0.11923039E+00 0.26224855E+02</pdfrwt>
<pdfrwt beam="1">  1        1 0.22679118E-01 0.32335842E+02</pdfrwt>
<totfact> 0.11074239E+03</totfact>
</mgrwt>
</event>
<event>
 5    1  0.9399923E-003  0.1544362E+03  0.7546771E-02  0.1391310E+00
          1   -1    0    0  501    0 -0.00000000000E+00  0.00000000000E+00  0.87306272049E+03  0.87306272049E+03  0.00000000000E+00 0. -1.
          2   -1    0    0  502    0  0.00000000000E+00 -0.00000000000E+00 -0.75774447173E+03  0.75774447173E+03  0.00000000000E+00 0. -1.
         25    1    1    2    0    0  0.15761907964E+03  0.77085777886E+02 -0.11222873129E+03  0.24291208193E+03  0.12500000000E+03 0.  0.
          2    1    1    2  501    0 -0.14223810347E+03 -0.57943398988E+02  0.80015438191E+03  0.81476140707E+03  0.00000000000E+00 0. -1.
          3    1    1    2  502    0 -0.15380976169E+02 -0.19142378898E+02 -0.57260740187E+03  0.57313370322E+03  0.00000000000E+00 0. -1.
<mgrwt>
<rscale>  0 0.61582150E+02</rscale>
<asrwt>0</asrwt>
<pdfrwt beam="2">  1        2 0.11657607E+00 0.24556162E+02</pdfrwt>
<pdfrwt beam="1">  1        1 0.13431734E+00 0.15443623E+03</pdfrwt>
<totfact> 0.11720120E+02</totfact>
</mgrwt>
</event>
<event>
 5    1  0.9399923E-003  0.8339903E+02  0.7546771E-02  0.1384466E+00
          1   -1    0    0  501    0 -0.00000000000E+00  0.00000000000E+00  0.67371660746E+03  0.67371660746E+03  0.00000000000E+00 0. -1.
          2   -1    0    0  502    0  0.00000000000E+00 -0.00000000000E+00 -0.32419156574E+03  0.32419156574E+03  0.00000000000E+00 0. -1.
         25    1    1    2    0    0  0.50603360334E+02 -0.13785847155E+02 -0.45975072546E+02  0.14314138799E+03  0.12500000000E+03 0.  0.
          2    1    1    2  501    0 -0.81332484945E+02 -0.23155191482E+02  0.61971637917E+03  0.62545945241E+03  0.00000000000E+00 0. -1.
          1    1    1    2  502    0  0.30729124611E+02  0.36941038637E+02 -0.22421626490E+03  0.22930733281E+03  0.00000000000E+00 0. -1.
<mgrwt>
<rscale>  0 0.63304227E+02</rscale>
<asrwt>0</asrwt>
<pdfrwt beam="2">  1        2 0.49875625E-01 0.48051217E+02</pdfrwt>
<pdfrwt beam="1">  1        1 0.10364871E+00 0.83399035E+02</pdfrwt>
<totfact> 0.42534379E+02</totfact>
</mgrwt>
</event>
<event>
 5    1  0.9399923E-003  0.7311385E+02  0.7546771E-02  0.1389876E+00
          2   -1    0    0  502    0  0.00000000000E+00  0.00000000000E+00  0.12887635683E+04  0.12887635683E+04  0.00000000000E+00 0. -1.
          1   -1    0    0  501    0 -0.00000000000E+00 -0.00000000000E+00 -0.31557267435E+02  0.31557267435E+02  0.00000000000E+00 0. -1.
         25    1    1    2    0    0 -0.14968242258E+02 -0.56342780105E+02  0.63546382293E+03  0.65025981530E+03  0.12500000000E+03 0.  0.
          2    1    1    2  501    0 -0.36464661269E+02  0.66722122247E+02  0.39922049406E+02  0.85879468719E+02  0.00000000000E+00 0. -1.
          3    1    1    2  502    0  0.51432903527E+02 -0.10379342143E+02  0.58182042849E+03  0.58418155167E+03  0.00000000000E+00 0. -1.
<mgrwt>
<rscale>  0 0.61937591E+02</rscale>
<asrwt>0</asrwt>
<pdfrwt beam="1">  1        2 0.19827128E+00 0.52469747E+02</pdfrwt>
<pdfrwt beam="2">  1        1 0.48549652E-02 0.73113850E+02</pdfrwt>
<totfact> 0.41772490E+03</totfact>
</mgrwt>
</event>
<event>
 5    1  0.9399923E-003  0.1068635E+03  0.7546771E-02  0.1289739E+00
          1   -1    0    0  501    0 -0.00000000000E+00  0.00000000000E+00  0.58604266598E+02  0.58604266598E+02  0.00000000000E+00 0. -1.
          2   -1    0    0  502    0  0.00000000000E+00 -0.00000000000E+00 -0.24631358503E+04  0.24631358503E+04  0.00000000000E+00 0. -1.
         25    1    1    2    0    0  0.46575150101E+02 -0.30840748332E+02 -0.73290450945E+03  0.74558327257E+03  0.12500000000E+03 0.  0.
          2    1    1    2  501    0 -0.17305511677E+02  0.11127784157E+03 -0.10807392299E+02  0.11313283558E+03  0.00000000000E+00 0. -1.
          1    1    1    2  502    0 -0.29269638424E+02 -0.80437093235E+02 -0.16608196819E+04  0.16630240087E+04  0.00000000000E+00 0. -1.
<mgrwt>
<rscale>  0 0.95640947E+02</rscale>
<asrwt>0</asrwt>
<pdfrwt beam="2">  1        2 0.37894385E+00 0.85596949E+02</pdfrwt>
<pdfrwt beam="1">  1        1 0.90160440E-02 0.10686351E+03</pdfrwt>
<totfact> 0.46140719E+02</totfact>
</mgrwt>
</event>
<event>
 5    1  0.9399923E-003  0.1695377E+03  0.7546771E-02  0.1238655E+00
          1   -1    0    0  502    0  0.00000000000E+00  0.00000000000E+00  0.11231699745E+04  0.11231699745E+04  0.00000000000E+00 0. -1.
         -1   -1    0    0    0  501 -0.00000000000E+00 -0.00000000000E+00 -0.16724927521E+03  0.16724927521E+03  0.00000000000E+00 0.  1.
         25    1    1    2    0    0  0.11698179378E+03 -0.11600141363E+03  0.53469838130E+02  0.21360030813E+03  0.12500000000E+03 0.  0.
          2    1    1    2  502    0 -0.16670667524E+03  0.42368882070E+02  0.95714926264E+03  0.97248185007E+03  0.00000000000E+00 0. -1.
         -2    1    1    2    0  501  0.49724881462E+02  0.73632531564E+02 -0.54698401482E+02  0.10433709151E+03  0.00000000000E+00 0.  1.
<mgrwt>
<rscale>  0 0.12273309E+03</rscale>
<asrwt>0</asrwt>
<pdfrwt beam="1">  1        1 0.17279538E+00 0.16953766E+03</pdfrwt>
<pdfrwt beam="2">  1       -1 0.25730658E-01 0.88849950E+02</pdfrwt>
<totfact> 0.17549261E+02</totfact>
</mgrwt>
</event>
<event>
 5    1  0.9399923E-003  0.1958953E+03  0.7546771E-02  0.1277411E+00
          2   -1    0    0  502    0  0.00000000000E+00  0.00000000000E+00  0.18667185226E+04  0.18667185226E+04  0.00000000000E+00 0. -1.
         -2   -1    0    0    0  501 -0.00000000000E+00 -0.00000000000E+00 -0.70379645583E+02  0.70379645583E+02  0.00000000000E+00 0.  1.
         25    1    1    2    0    0 -0.15785824020E+03 -0.11086715196E+03  0.42022151420E+03  0.47898003130E+03  0.12500000000E+03 0.  0.
          1    1    1    2  502    0 -0.30218359432E+02  0.42896122306E+02  0.11691218387E+04  0.11702987227E+04  0.00000000000E+00 0. -1.
         -1    1    1    2    0  501  0.18807659964E+03  0.67971029655E+02  0.20699552416E+03  0.28781941426E+03  0.00000000000E+00 0.  1.
<mgrwt>
<rscale>  0 0.10138471E+03</rscale>
<asrwt>0</asrwt>
<pdfrwt beam="1">  1        2 0.28718743E+00 0.52471197E+02</pdfrwt>
<pdfrwt beam="2">  1       -2 0.10827639E-01 0.19589526E+03</pdfrwt>
<totfact> 0.59237458E+02</totfact>
</mgrwt>
</event>
<event>
 5    1  0.9399923E-003  0.1626691E+03  0.7546771E-02  0.1301723E+00
          2   -1    0    0  502    0  0.00000000000E+00  0.00000000000E+00  0.11601660356E+04  0.11601660356E+04  0.00000000000E+00 0. -1.
          1   -1    0    0  501    0 -0.00000000000E+00 -0.00000000000E+00 -0.23546760100E+03  0.23546760100E+03  0.00000000000E+00 0. -1.
         25    1    1    2    0    0  0.17145159281E+03  0.11044213987E+03  0.10373146611E+03  0.26072654640E+03  0.12500000000E+03 0.  0.
          2    1    1    2  501    0 -0.13264360183E+03 -0.78420643281E+02 -0.11831755020E+03  0.19427600233E+03  0.00000000000E+00 0. -1.
          1    1    1    2  502    0 -0.38807990976E+02 -0.32021496590E+02  0.93928451874E+03  0.94063108791E+03  0.00000000000E+00 0. -1.
<mgrwt>
<rscale>  0 0.90467853E+02</rscale>
<asrwt>0</asrwt>
<pdfrwt beam="1">  1        2 0.17848708E+00 0.50313382E+02</pdfrwt>
<pdfrwt beam="2">  1        1 0.36225786E-01 0.16266910E+03</pdfrwt>
<totfact> 0.37805410E+02</totfact>
</mgrwt>
</event>
<event>
 5    1  0.9399923E-003  0.7705166E+02  0.7546771E-02  0.1414832E+00
          1   -1    0    0  501    0 -0.00000000000E+00  0.00000000000E+00  0.23862784661E+03  0.23862784661E+03  0.00000000000E+00 0. -1.
          2   -1    0    0  502    0  0.00000000000E+00 -0.00000000000E+00 -0.11518137377E+04  0.11518137377E+04  0.00000000000E+00 0. -1.
         25    1    1    2    0    0 -0.30174931366E+02 -0.11172791910E+03  0.80278125471E+02  0.18831683891E+03  0.12500000000E+03 0.  0.
          2    1    1    2  501    0  0.19836889023E+02  0.35754005327E+02  0.98928177083E+02  0.10704501522E+03  0.00000000000E+00 0. -1.
          1    1    1    2  502    0  0.10338042343E+02  0.75973913772E+02 -0.10923921937E+04  0.10950797302E+04  0.00000000000E+00 0. -1.
<mgrwt>
<rscale>  0 0.56129401E+02</rscale>
<asrwt>0</asrwt>
<pdfrwt beam="2">  1        2 0.17720211E+00 0.77051665E+02</pdfrwt>
<pdfrwt beam="1">  1        1 0.36711977E-01 0.40888275E+02</pdfrwt>
<totfact> 0.36007355E+02</totfact>
</mgrwt>
</event>
<event>
 5    1  0.9399923E-003  0.9374621E+02  0.7546771E-02  0.1384784E+00
          1   -1    0    0  501    0 -0.00000000000E+00  0.00000000000E+00  0.35575853283E+03  0.35575853283E+03  0.00000000000E+00 0. -1.
          2   -1    0    0  502    0  0.00000000000E+00 -0.00000000000E+00 -0.14617614073E+03  0.14617614073E+03  0.00000000000E+00 0. -1.
         25    1    1    2    0    0  0.48677380687E+01 -0.11091942894E+03  0.77950077134E+02  0.18446687810E+03  0.12500000000E+03 0.  0.
          2    1    1    2  501    0  0.30214356698E+02  0.86686740793E+02  0.20947773452E+03  0.22871034004E+03  0.00000000000E+00 0. -1.
          1    1    1    2  502    0 -0.35082094766E+02  0.24232688150E+02 -0.77845419558E+02  0.88757455429E+02  0.00000000000E+00 0. -1.
<mgrwt>
<rscale>  0 0.63222830E+02</rscale>
<asrwt>0</asrwt>
<pdfrwt beam="2">  1        2 0.22488637E-01 0.42637736E+02</pdfrwt>
<pdfrwt beam="1">  1        1 0.54732082E-01 0.93746213E+02</pdfrwt>
<totfact> 0.21986558E+03</totfact>
</mgrwt>
</event>
<event>
 5    1  0.9399923E-003  0.6048484E+02  0.7546771E-02  0.1426198E+00
          2   -1    0    0  502    0  0.00000000000E+00  0.00000000000E+00  0.18813172502E+03  0.18813172502E+03  0.00000000000E+00 0. -1.
          1   -1    0    0  501    0 -0.00000000000E+00 -0.00000000000E+00 -0.15202666276E+04  0.15202666276E+04  0.00000000000E+00 0. -1.
         25    1    1    2    0    0 -0.84988352432E+02 -0.48006939155E+02  0.69452823037E+02  0.17313688482E+03  0.12500000000E+03 0.  0.
          2    1    1    2  501    0  0.59873916346E+02  0.74172694265E+01 -0.14591993209E+04  0.14604460141E+04  0.00000000000E+00 0. -1.
          1    1    1    2  502    0  0.25114436086E+02  0.40589669728E+02  0.57611595384E+02  0.74815453693E+02  0.00000000000E+00 0. -1.
<mgrwt>
<rscale>  0 0.53730876E+02</rscale>
<asrwt>0</asrwt>
<pdfrwt beam="1">  1        2 0.28943344E-01 0.47731082E+02</pdfrwt>
<pdfrwt beam="2">  1        1 0.23388716E+00 0.60484843E+02</pdfrwt>
<totfact> 0.19137760E+02</totfact>
</mgrwt>
</event>
<event>
 5    1  0.9399923E-003  0.2506221E+03  0.7546771E-02  0.1281810E+00
          2   -1    0    0  502    0  0.00000000000E+00  0.00000000000E+00  0.21043658828E+04  0.21043658828E+04  0.00000000000E+00 0. -1.
         -2   -1    0    0    0  501 -0.00000000000E+00 -0.00000000000E+00 -0.83197875666E+03  0.83197875666E+03  0.00000000000E+00 0.  1.
         25    1    1    2    0    0  0.16950619812E+03  0.18245497241E+03  0.17142040391E+02  0.27917918566E+03  0.12500000000E+03 0.  0.
          1    1    1    2  502    0 -0.13985888756E+03 -0.20830005616E+03  0.19476000093E+04  0.19636942781E+04  0.00000000000E+00 0. -1.
         -1    1    1    2    0  501 -0.29647310563E+02  0.25845083751E+02 -0.69235492352E+03  0.69347117568E+03  0.00000000000E+00 0.  1.
<mgrwt>
<rscale>  0 0.99283581E+02</rscale>
<asrwt>0</asrwt>
<pdfrwt beam="1">  1        2 0.32374860E+00 0.25062209E+03</pdfrwt>
<pdfrwt beam="2">  1       -2 0.12799673E+00 0.39331049E+02</pdfrwt>
<totfact> 0.34317718E+00</totfact>
</mgrwt>
</event>
<event>
 5    1  0.9399923E-003  0.2807731E+02  0.7546771E-02  0.1671618E+00
         -1   -1    0    0    0  501 -0.00000000000E+00  0.00000000000E+00  0.31413985818E+03  0.31413985818E+03  0.00000000000E+00 0.  1.
          1   -1    0    0  502    0  0.00000000000E+00 -0.00000000000E+00 -0.17509930919E+03  0.17509930919E+03  0.00000000000E+00 0. -1.
         25    1    1    2    0    0  0.27414581502E+02 -0.27704551617E+02  0.14162439703E+03  0.19287708856E+03  0.12500000000E+03 0.  0.
          2    1    1    2  502    0 -0.27219832651E+02  0.67153690303E+01 -0.14739496546E+03  0.15003763299E+03  0.00000000000E+00 0. -1.
         -2    1    1    2    0  501 -0.19474885130E+00  0.20989182586E+02  0.14481111742E+03  0.14632444581E+03  0.00000000000E+00 0.  1.
<mgrwt>
<rscale>  0 0.24276432E+02</rscale>
<asrwt>0</asrwt>
<pdfrwt beam="2">  1        1 0.26938355E-01 0.28077309E+02</pdfrwt>
<pdfrwt beam="1">  1       -1 0.48329209E-01 0.20990086E+02</pdfrwt>
<totfact> 0.72374280E+02</totfact>
</mgrwt>
</event>
<event>
 5    1  0.9399923E-003  0.5583871E+02  0.7546771E-02  0.1522271E+00
          2   -1    0    0  502    0  0.00000000000E+00  0.00000000000E+00  0.14377032572E+04  0.14377032572E+04  0.00000000000E+00 0. -1.
         -2   -1    0    0    0  501 -0.00000000000E+00 -0.00000000000E+00 -0.10092110051E+04  0.10092110051E+04  0.00000000000E+00 0.  1.
         25    1    1    2    0    0  0.31743580222E+02 -0.88219259309E+01 -0.15305636908E+02  0.13017197772E+03  0.12500000000E+03 0.  0.
          1    1    1    2  502    0 -0.47648646398E+02  0.29474190623E+02  0.13795199362E+04  0.13806572260E+04  0.00000000000E+00 0. -1.
         -1    1    1    2    0  501  0.15905066176E+02 -0.20652264692E+02 -0.93572204718E+03  0.93608505849E+03  0.00000000000E+00 0.  1.
<mgrwt>
<rscale>  0 0.38151621E+02</rscale>
<asrwt>0</asrwt>
<pdfrwt beam="1">  1        2 0.22118512E+00 0.55838709E+02</pdfrwt>
<pdfrwt beam="2">  1       -2 0.15526323E+00 0.26066975E+02</pdfrwt>
<totfact> 0.54992105E+00</totfact>
</mgrwt>
</event>
<event>
 5    1  0.9399923E-003  0.9621180E+02  0.7546771E-02  0.1393347E+00
          1   -1    0    0  501    0 -0.00000000000E+00  0.00000000000E+00  0.11735154883E+04  0.11735154883E+04  0.00000000000E+00 0. -1.
          2   -1    0    0  502    0  0.00000000000E+00 -0.00000000000E+00 -0.12523474784E+03  0.12523474784E+03  0.00000000000E+00 0. -1.
         25    1    1    2    0    0  0.52314081684E+02  0.12294756151E+03  0.77886303223E+02  0.19885709003E+03  0.12500000000E+03 0.  0.
          2    1    1    2  501    0 -0.36064957109E+02 -0.87737200582E+02  0.10269487369E+04  0.10313206125E+04  0.00000000000E+00 0. -1.
          1    1    1    2  502    0 -0.16249124576E+02 -0.35210360932E+02 -0.56554299634E+02  0.68572533667E+02  0.00000000000E+00 0. -1.
<mgrwt>
<rscale>  0 0.61081817E+02</rscale>
<asrwt>0</asrwt>
<pdfrwt beam="2">  1        2 0.19266885E-01 0.38778906E+02</pdfrwt>
<pdfrwt beam="1">  1        1 0.18054084E+00 0.96211799E+02</pdfrwt>
<totfact> 0.47193948E+02</totfact>
</mgrwt>
</event>
<event>
 5    1  0.9399923E-003  0.4253757E+02  0.7546771E-02  0.1578083E+00
          1   -1    0    0  501    0 -0.00000000000E+00  0.00000000000E+00  0.28743907251E+02  0.28743907251E+02  0.00000000000E+00 0. -1.
          2   -1    0    0  502    0  0.00000000000E+00 -0.00000000000E+00 -0.49011679703E+03  0.49011679703E+03  0.00000000000E+00 0. -1.
         25    1    1    2    0    0 -0.54301813504E+02 -0.23569076674E+02 -0.26298612708E+03  0.29713783226E+03  0.12500000000E+03 0.  0.
          2    1    1    2  501    0  0.40381664372E+02  0.41306900039E+01 -0.27173025993E+02  0.48847873639E+02  0.00000000000E+00 0. -1.
          1    1    1    2  502    0  0.13920149132E+02  0.19438386671E+02 -0.17121373670E+03  0.17287499838E+03  0.00000000000E+00 0. -1.
<mgrwt>
<rscale>  0 0.31890655E+02</rscale>
<asrwt>0</asrwt>
<pdfrwt beam="2">  1        2 0.75402578E-01 0.23908606E+02</pdfrwt>
<pdfrwt beam="1">  1        1 0.44221399E-02 0.42537566E+02</pdfrwt>
<totfact> 0.14604088E+04</totfact>
</mgrwt>
</event>
<event>
 5    1  0.9399923E-003  0.7358621E+02  0.7546771E-02  0.1396353E+00
         -1   -1    0    0    0  501 -0.00000000000E+00  0.00000000000E+00  0.11102425915E+04  0.11102425915E+04  0.00000000000E+00 0.  1.
          1   -1    0    0  502    0  0.00000000000E+00 -0.00000000000E+00 -0.30426812889E+03  0.30426812889E+03  0.00000000000E+00 0. -1.
         25    1    1    2    0    0 -0.70865067222E+01  0.39932506898E+02  0.10952751627E+03  0.17107337754E+03  0.12500000000E+03 0.  0.
          2    1    1    2  502    0  0.41162735274E+02  0.27494770025E+02 -0.26976867558E+03  0.27427262255E+03  0.00000000000E+00 0. -1.
         -2    1    1    2    0  501 -0.34076228552E+02 -0.67427276924E+02  0.96621562189E+03  0.96916472026E+03  0.00000000000E+00 0.  1.
<mgrwt>
<rscale>  0 0.60353784E+02</rscale>
<asrwt>0</asrwt>
<pdfrwt beam="2">  1        1 0.46810482E-01 0.49500840E+02</pdfrwt>
<pdfrwt beam="1">  1       -1 0.17080655E+00 0.73586211E+02</pdfrwt>
<totfact> 0.25488884E+01</totfact>
</mgrwt>
</event>
<event>
 5    1  0.9399923E-003  0.1866362E+03  0.7546771E-02  0.1337240E+00
          1   -1    0    0  501    0 -0.00000000000E+00  0.00000000000E+00  0.36320789441E+03  0.36320789441E+03  0.00000000000E+00 0. -1.
          2   -1    0    0  502    0  0.00000000000E+00 -0.00000000000E+00 -0.11378054521E+04  0.11378054521E+04  0.00000000000E+00 0. -1.
         25    1    1    2    0    0  0.75655105704E+02  0.14266761448E+03 -0.14895221023E+03  0.25276373191E+03  0.12500000000E+03 0.  0.
          2    1    1    2  501    0  0.24478867059E+02  0.20484690094E+02  0.30067065325E+03  0.30236018122E+03  0.00000000000E+00 0. -1.
          1    1    1    2  502    0 -0.10013397276E+03 -0.16315230457E+03 -0.92631600075E+03  0.94588943341E+03  0.00000000000E+00 0. -1.
<mgrwt>
<rscale>  0 0.77183443E+02</rscale>
<asrwt>0</asrwt>
<pdfrwt beam="2">  1        2 0.17504699E+00 0.18663618E+03</pdfrwt>
<pdfrwt beam="1">  1        1 0.55878139E-01 0.31919233E+02</pdfrwt>
<totfact> 0.21162145E+02</totfact>
</mgrwt>
</event>
<event>
 5    1  0.9399923E-003  0.1050481E+03  0.7546771E-02  0.1432459E+00
          2   -1    0    0  502    0  0.00000000000E+00  0.00000000000E+00  0.57010565181E+02  0.57010565181E+02  0.00000000000E+00 0. -1.
          1   -1    0    0  501    0 -0.00000000000E+00 -0.00000000000E+00 -0.13676430943E+04  0.13676430943E+04  0.00000000000E+00 0. -1.
         25    1    1    2    0    0  0.12670679705E+03 -0.33083859809E+01 -0.88466536213E+03  0.90239867065E+03  0.12500000000E+03 0.  0.
          2    1    1    2  501    0 -0.23341022988E+02  0.11917988105E+02 -0.41735206732E+03  0.41817411432E+03  0.00000000000E+00 0. -1.
          1    1    1    2  502    0 -0.10336577406E+03 -0.86096021239E+01 -0.86150996709E+01  0.10408087451E+03  0.00000000000E+00 0. -1.
<mgrwt>
<rscale>  0 0.52469654E+02</rscale>
<asrwt>0</asrwt>
<pdfrwt beam="1">  1        2 0.87708558E-02 0.10504806E+03</pdfrwt>
<pdfrwt beam="2">  1        1 0.21040664E+00 0.26207667E+02</pdfrwt>
<totfact> 0.10505072E+03</totfact>
</mgrwt>
</event>
<event>
 5    1  0.9399923E-003  0.8057652E+02  0.7546771E-02  0.1330597E+00
          2   -1    0    0  502    0  0.00000000000E+00  0.00000000000E+00  0.11391353201E+04  0.11391353201E+04  0.00000000000E+00 0. -1.
          1   -1    0    0  501    0 -0.00000000000E+00 -0.00000000000E+00 -0.47238978187E+03  0.47238978187E+03  0.00000000000E+00 0. -1.
         25    1    1    2    0    0  0.10387749953E+03 -0.86193187889E+01  0.48856208609E+01  0.16283027009E+03  0.12500000000E+03 0.  0.
          2    1    1    2  501    0 -0.45125827373E+02  0.64055880788E+02 -0.38794906819E+03  0.39578273796E+03  0.00000000000E+00 0. -1.
          3    1    1    2  502    0 -0.58751672156E+02 -0.55436561999E+02  0.10498089856E+04  0.10529120940E+04  0.00000000000E+00 0. -1.
<mgrwt>
<rscale>  0 0.79457962E+02</rscale>
<asrwt>0</asrwt>
<pdfrwt beam="1">  1        2 0.17525159E+00 0.80576516E+02</pdfrwt>
<pdfrwt beam="2">  1        1 0.72675352E-01 0.78354937E+02</pdfrwt>
<totfact> 0.15942367E+02</totfact>
</mgrwt>
</event>
<event>
 5    1  0.9399923E-003  0.4546419E+02  0.7546771E-02  0.1504720E+00
          2   -1    0    0  502    0  0.00000000000E+00  0.00000000000E+00  0.22944494126E+04  0.22944494126E+04  0.00000000000E+00 0. -1.
          3   -1    0    0  501    0 -0.00000000000E+00 -0.00000000000E+00 -0.83414141113E+02  0.83414141113E+02  0.00000000000E+00 0. -1.
         25    1    1    2    0    0 -0.60796304699E+02 -0.34980717519E+02  0.22821771290E+03  0.26949613308E+03  0.12500000000E+03 0.  0.
          2    1    1    2  501    0  0.44813506214E+02  0.26790670614E+01 -0.54568735134E+02  0.70662398726E+02  0.00000000000E+00 0. -1.
          1    1    1    2  502    0  0.15982798485E+02  0.32301650457E+02  0.20373862937E+04  0.20377050219E+04  0.00000000000E+00 0. -1.
<mgrwt>
<rscale>  0 0.40478477E+02</rscale>
<asrwt>0</asrwt>
<pdfrwt beam="1">  1        2 0.35299217E+00 0.36039513E+02</pdfrwt>
<pdfrwt beam="2">  1        3 0.12832947E-01 0.45464186E+02</pdfrwt>
<totfact> 0.16979173E+02</totfact>
</mgrwt>
</event>
<event>
 5    1  0.9399923E-003  0.9072158E+02  0.7546771E-02  0.1391411E+00
          2   -1    0    0  502    0  0.00000000000E+00  0.00000000000E+00  0.82205638853E+03  0.82205638853E+03  0.00000000000E+00 0. -1.
          1   -1    0    0  501    0 -0.00000000000E+00 -0.00000000000E+00 -0.18844970124E+03  0.18844970124E+03  0.00000000000E+00 0. -1.
         25    1    1    2    0    0 -0.74232994987E+01 -0.76980588626E+02  0.56954166917E+02  0.15763849000E+03  0.12500000000E+03 0.  0.
          2    1    1    2  501    0 -0.32920484606E+02  0.87795326566E+02 -0.12149639909E+03  0.15347036413E+03  0.00000000000E+00 0. -1.
          1    1    1    2  502    0  0.40343784105E+02 -0.10814737941E+02  0.69814891947E+03  0.69939723564E+03  0.00000000000E+00 0. -1.
<mgrwt>
<rscale>  0 0.61557079E+02</rscale>
<asrwt>0</asrwt>
<pdfrwt beam="1">  1        2 0.12647021E+00 0.41768163E+02</pdfrwt>
<pdfrwt beam="2">  1        1 0.28992262E-01 0.90721583E+02</pdfrwt>
<totfact> 0.77892865E+02</totfact>
</mgrwt>
</event>
<event>
 5    1  0.9399923E-003  0.4323867E+02  0.7546771E-02  0.1542395E+00
          1   -1    0    0  502    0  0.00000000000E+00  0.00000000000E+00  0.18094530709E+03  0.18094530709E+03  0.00000000000E+00 0. -1.
         -1   -1    0    0    0  501 -0.00000000000E+00 -0.00000000000E+00 -0.12940255518E+03  0.12940255518E+03  0.00000000000E+00 0.  1.
         25    1    1    2    0    0  0.28958056142E+02 -0.43185941116E+02 -0.10972314988E+02  0.13582704525E+03  0.12500000000E+03 0.  0.
          2    1    1    2  502    0  0.11139127869E+02  0.27305543473E+02  0.10793277668E+03  0.11188903948E+03  0.00000000000E+00 0. -1.
         -2    1    1    2    0  501 -0.40097184011E+02  0.15880397643E+02 -0.45417709780E+02  0.62631777530E+02  0.00000000000E+00 0.  1.
<mgrwt>
<rscale>  0 0.35708792E+02</rscale>
<asrwt>0</asrwt>
<pdfrwt beam="1">  1        1 0.27837739E-01 0.29490217E+02</pdfrwt>
<pdfrwt beam="2">  1       -1 0.19908085E-01 0.43238674E+02</pdfrwt>
<totfact> 0.30000422E+03</totfact>
</mgrwt>
</event>
<event>
 5    1  0.9399923E-003  0.1007271E+03  0.7546771E-02  0.1292758E+00
         -2   -1    0    0    0  501 -0.00000000000E+00  0.00000000000E+00  0.28496319322E+02  0.28496319322E+02  0.00000000000E+00 0.  1.
          2   -1    0    0  502    0  0.00000000000E+00 -0.00000000000E+00 -0.21243287687E+04  0.21243287687E+04  0.00000000000E+00 0. -1.
         25    1    1    2    0    0 -0.22372947041E+02  0.25113775982E+02 -0.74673914468E+03  0.75787571587E+03  0.12500000000E+03 0.  0.
          1    1    1    2  502    0 -0.64963265275E+02 -0.76978734599E+02 -0.12465533104E+04  0.12506162909E+04  0.00000000000E+00 0. -1.
         -1    1    1    2    0  501  0.87336212315E+02  0.51864958617E+02 -0.10253999432E+03  0.14433308127E+03  0.00000000000E+00 0.  1.
<mgrwt>
<rscale>  0 0.94301142E+02</rscale>
<asrwt>0</asrwt>
<pdfrwt beam="2">  1        2 0.32681992E+00 0.10072711E+03</pdfrwt>
<pdfrwt beam="1">  1       -2 0.43840477E-02 0.88285120E+02</pdfrwt>
<totfact> 0.15384893E+03</totfact>
</mgrwt>
</event>
<event>
 5    1  0.9399923E-003  0.5751044E+02  0.7546771E-02  0.1552607E+00
          2   -1    0    0  502    0  0.00000000000E+00  0.00000000000E+00  0.53743585929E+03  0.53743585929E+03  0.00000000000E+00 0. -1.
          1   -1    0    0  501    0 -0.00000000000E+00 -0.00000000000E+00 -0.13954296245E+03  0.13954296245E+03  0.00000000000E+00 0. -1.
         25    1    1    2    0    0 -0.40327505780E+02 -0.39284004576E+02  0.28164320776E+03  0.31323703040E+03  0.12500000000E+03 0.  0.
          2    1    1    2  501    0  0.24162623455E+02  0.52309459558E+02 -0.11655152214E+03  0.13001680370E+03  0.00000000000E+00 0. -1.
          1    1    1    2  502    0  0.16164882325E+02 -0.13025454983E+02  0.23280121123E+03  0.23372498764E+03  0.00000000000E+00 0. -1.
<mgrwt>
<rscale>  0 0.34552867E+02</rscale>
<asrwt>0</asrwt>
<pdfrwt beam="1">  1        2 0.82682439E-01 0.20759718E+02</pdfrwt>
<pdfrwt beam="2">  1        1 0.21468148E-01 0.57510444E+02</pdfrwt>
<totfact> 0.18001209E+03</totfact>
</mgrwt>
</event>
<event>
 5    1  0.9399923E-003  0.1117410E+03  0.7546771E-02  0.1440285E+00
          1   -1    0    0  501    0 -0.00000000000E+00  0.00000000000E+00  0.30338009492E+02  0.30338009492E+02  0.00000000000E+00 0. -1.
          2   -1    0    0  502    0  0.00000000000E+00 -0.00000000000E+00 -0.23945382089E+04  0.23945382089E+04  0.00000000000E+00 0. -1.
         25    1    1    2    0    0  0.11420239160E+03  0.37089509507E+02 -0.28078869480E+03  0.32997743725E+03  0.12500000000E+03 0.  0.
          2    1    1    2  501    0 -0.91291022981E+02 -0.40931035396E+02 -0.43631472426E+03  0.44763817883E+03  0.00000000000E+00 0. -1.
          3    1    1    2  502    0 -0.22911368619E+02  0.38415258896E+01 -0.16470967804E+04  0.16472606024E+04  0.00000000000E+00 0. -1.
<mgrwt>
<rscale>  0 0.50949744E+02</rscale>
<asrwt>0</asrwt>
<pdfrwt beam="2">  1        2 0.36839045E+00 0.23231189E+02</pdfrwt>
<pdfrwt beam="1">  1        1 0.46673866E-02 0.11174101E+03</pdfrwt>
<totfact> 0.14703691E+03</totfact>
</mgrwt>
</event>
<event>
 5    1  0.9399923E-003  0.8699789E+02  0.7546771E-02  0.1363299E+00
          1   -1    0    0  501    0 -0.00000000000E+00  0.00000000000E+00  0.55582428299E+03  0.55582428299E+03  0.00000000000E+00 0. -1.
          2   -1    0    0  502    0  0.00000000000E+00 -0.00000000000E+00 -0.62289850065E+02  0.62289850065E+02  0.00000000000E+00 0. -1.
         25    1    1    2    0    0 -0.22471271062E+02  0.46390755902E+02  0.82058066134E+02  0.15816316409E+03  0.12500000000E+03 0.  0.
          2    1    1    2  501    0 -0.67766486502E+01 -0.92768096878E+02  0.39020753978E+03  0.40114058242E+03  0.00000000000E+00 0. -1.
          1    1    1    2  502    0  0.29247919712E+02  0.46377340976E+02  0.21268827016E+02  0.58810386550E+02  0.00000000000E+00 0. -1.
<mgrwt>
<rscale>  0 0.69065695E+02</rscale>
<asrwt>0</asrwt>
<pdfrwt beam="2">  1        2 0.95830542E-02 0.54829723E+02</pdfrwt>
<pdfrwt beam="1">  1        1 0.85511425E-01 0.86997889E+02</pdfrwt>
<totfact> 0.33466970E+03</totfact>
</mgrwt>
</event>
<event>
 5    1  0.9399923E-003  0.9290379E+02  0.7546771E-02  0.1382305E+00
          1   -1    0    0  501    0 -0.00000000000E+00  0.00000000000E+00  0.14254768999E+04  0.14254768999E+04  0.00000000000E+00 0. -1.
          2   -1    0    0  502    0  0.00000000000E+00 -0.00000000000E+00 -0.79816178828E+02  0.79816178828E+02  0.00000000000E+00 0. -1.
         25    1    1    2    0    0 -0.10939938138E+03  0.74157156236E+02  0.28559872415E+03  0.33861355511E+03  0.12500000000E+03 0.  0.
          2    1    1    2  501    0  0.36545931089E+02 -0.24320120341E+02  0.10760750892E+04  0.10769701346E+04  0.00000000000E+00 0. -1.
          1    1    1    2  502    0  0.72853450287E+02 -0.49837035895E+02 -0.16013092181E+02  0.89709389067E+02  0.00000000000E+00 0. -1.
<mgrwt>
<rscale>  0 0.63861818E+02</rscale>
<asrwt>0</asrwt>
<pdfrwt beam="2">  1        2 0.12279413E-01 0.92903791E+02</pdfrwt>
<pdfrwt beam="1">  1        1 0.21930412E+00 0.43898443E+02</pdfrwt>
<totfact> 0.60649788E+02</totfact>
</mgrwt>
</event>
<event>
 5    1  0.9399923E-003  0.3973877E+02  0.7546771E-02  0.1590167E+00
          1   -1    0    0  501    0 -0.00000000000E+00  0.00000000000E+00  0.14405620667E+03  0.14405620667E+03  0.00000000000E+00 0. -1.
          2   -1    0    0  502    0  0.00000000000E+00 -0.00000000000E+00 -0.73128857639E+03  0.73128857639E+03  0.00000000000E+00 0. -1.
         25    1    1    2    0    0  0.35371830605E+02  0.64945794351E+01 -0.38757015053E+03  0.40881409900E+03  0.12500000000E+03 0.  0.
          2    1    1    2  501    0 -0.35882141126E+02  0.17261964220E+02  0.13002650920E+03  0.13598675140E+03  0.00000000000E+00 0. -1.
          1    1    1    2  502    0  0.51031052148E+00 -0.23756543655E+02 -0.32968872840E+03  0.33054393266E+03  0.00000000000E+00 0. -1.
<mgrwt>
<rscale>  0 0.30729036E+02</rscale>
<asrwt>0</asrwt>
<pdfrwt beam="2">  1        2 0.11250594E+00 0.23762024E+02</pdfrwt>
<pdfrwt beam="1">  1        1 0.22162493E-01 0.39738771E+02</pdfrwt>
<totfact> 0.12298299E+03</totfact>
</mgrwt>
</event>
<event>
 5    1  0.9399923E-003  0.8826123E+02  0.7546771E-02  0.1382953E+00
          2   -1    0    0  502    0  0.00000000000E+00  0.00000000000E+00  0.64911561872E+03  0.64911561872E+03  0.00000000000E+00 0. -1.
          1   -1    0    0  501    0 -0.00000000000E+00 -0.00000000000E+00 -0.46458769174E+03  0.46458769174E+03  0.00000000000E+00 0. -1.
         25    1    1    2    0    0  0.10730729786E+03 -0.75107682354E+01  0.57274257172E+03  0.59601201437E+03  0.12500000000E+03 0.  0.
          2    1    1    2  501    0 -0.45704779557E+02 -0.48837289038E+01 -0.43620771773E+03  0.43862278861E+03  0.00000000000E+00 0. -1.
          1    1    1    2  502    0 -0.61602518298E+02  0.12394497139E+02  0.47993072988E+02  0.79068507478E+02  0.00000000000E+00 0. -1.
<mgrwt>
<rscale>  0 0.63693986E+02</rscale>
<asrwt>0</asrwt>
<pdfrwt beam="1">  1        2 0.99863942E-01 0.88261227E+02</pdfrwt>
<pdfrwt beam="2">  1        1 0.71475029E-01 0.45964961E+02</pdfrwt>
<totfact> 0.33378765E+02</totfact>
</mgrwt>
</event>
<event>
 5    1  0.9399923E-003  0.3750732E+02  0.7546771E-02  0.1595791E+00
         -1   -1    0    0    0  501 -0.00000000000E+00  0.00000000000E+00  0.69683544898E+02  0.69683544898E+02  0.00000000000E+00 0.  1.
          1   -1    0    0  502    0  0.00000000000E+00 -0.00000000000E+00 -0.28260733868E+03  0.28260733868E+03  0.00000000000E+00 0. -1.
         25    1    1    2    0    0 -0.24528464154E+01 -0.17503092792E+02 -0.85042019679E+02  0.15221537315E+03  0.12500000000E+03 0.  0.
          2    1    1    2  502    0 -0.18172014577E+02 -0.16179019415E+02 -0.15190950235E+03  0.15384563591E+03  0.00000000000E+00 0. -1.
         -2    1    1    2    0  501  0.20624860992E+02  0.33682112206E+02  0.24027728246E+02  0.46229874522E+02  0.00000000000E+00 0.  1.
<mgrwt>
<rscale>  0 0.30208925E+02</rscale>
<asrwt>0</asrwt>
<pdfrwt beam="2">  1        1 0.43478053E-01 0.24330696E+02</pdfrwt>
<pdfrwt beam="1">  1       -1 0.10720545E-01 0.37507317E+02</pdfrwt>
<totfact> 0.44781576E+03</totfact>
</mgrwt>
</event>
<event>
 5    1  0.9399923E-003  0.9309581E+02  0.7546771E-02  0.1297885E+00
          1   -1    0    0  502    0  0.00000000000E+00  0.00000000000E+00  0.28343988221E+04  0.28343988221E+04  0.00000000000E+00 0. -1.
         -1   -1    0    0    0  501 -0.00000000000E+00 -0.00000000000E+00 -0.81836573238E+02  0.81836573238E+02  0.00000000000E+00 0.  1.
         25    1    1    2    0    0  0.53504759795E+02 -0.33527711846E+02  0.11530453356E+03  0.18140287275E+03  0.12500000000E+03 0.  0.
          2    1    1    2  502    0  0.56731347381E+02  0.71254390875E+02  0.26145392257E+04  0.26161251875E+04  0.00000000000E+00 0. -1.
         -2    1    1    2    0  501 -0.11023610718E+03 -0.37726679029E+02  0.22718489625E+02  0.11870733510E+03  0.00000000000E+00 0.  1.
<mgrwt>
<rscale>  0 0.92082578E+02</rscale>
<asrwt>0</asrwt>
<pdfrwt beam="1">  1        1 0.43606128E+00 0.91080371E+02</pdfrwt>
<pdfrwt beam="2">  1       -1 0.12590244E-01 0.93095813E+02</pdfrwt>
<totfact> 0.45179759E+01</totfact>
</mgrwt>
</event>
<event>
 5    1  0.9399923E-003  0.8223170E+02  0.7546771E-02  0.1357549E+00
          2   -1    0    0  502    0  0.00000000000E+00  0.00000000000E+00  0.43050780535E+03  0.43050780535E+03  0.00000000000E+00 0. -1.
          1   -1    0    0  501    0 -0.00000000000E+00 -0.00000000000E+00 -0.38241136055E+03  0.38241136055E+03  0.00000000000E+00 0. -1.
         25    1    1    2    0    0  0.50598946621E+02  0.23860047682E+02 -0.68448570963E+02  0.15310049687E+03  0.12500000000E+03 0.  0.
          2    1    1    2  501    0 -0.24138301858E+02  0.55887759855E+02 -0.26357956929E+03  0.27051855512E+03  0.00000000000E+00 0. -1.
          1    1    1    2  502    0 -0.26460644763E+02 -0.79747807537E+02  0.38012458505E+03  0.38930011391E+03  0.00000000000E+00 0. -1.
<mgrwt>
<rscale>  0 0.70753657E+02</rscale>
<asrwt>0</asrwt>
<pdfrwt beam="1">  1        2 0.66231970E-01 0.82231698E+02</pdfrwt>
<pdfrwt beam="2">  1        1 0.58832517E-01 0.60877741E+02</pdfrwt>
<totfact> 0.66131658E+02</totfact>
</mgrwt>
</event>
<event>
 5    1  0.9399923E-003  0.5458145E+02  0.7546771E-02  0.1437740E+00
          2   -1    0    0  502    0  0.00000000000E+00  0.00000000000E+00  0.98501142724E+02  0.98501142724E+02  0.00000000000E+00 0. -1.
          1   -1    0    0  501    0 -0.00000000000E+00 -0.00000000000E+00 -0.62924223357E+03  0.62924223357E+03  0.00000000000E+00 0. -1.
         25    1    1    2    0    0 -0.12913396873E+02  0.14792998551E+02 -0.78956103246E+02  0.14914642089E+03  0.12500000000E+03 0.  0.
          2    1    1    2  501    0  0.18914928326E+02  0.44631569846E+02 -0.49968773329E+03  0.50203344743E+03  0.00000000000E+00 0. -1.
          1    1    1    2  502    0 -0.60015314522E+01 -0.59424568397E+02  0.47902745686E+02  0.76563507973E+02  0.00000000000E+00 0. -1.
<mgrwt>
<rscale>  0 0.51437285E+02</rscale>
<asrwt>0</asrwt>
<pdfrwt beam="1">  1        2 0.15154022E-01 0.54581455E+02</pdfrwt>
<pdfrwt beam="2">  1        1 0.96806498E-01 0.48474236E+02</pdfrwt>
<totfact> 0.16966122E+03</totfact>
</mgrwt>
</event>
<event>
 5    1  0.9399923E-003  0.2435026E+02  0.7546771E-02  0.1694870E+00
          1   -1    0    0  501    0 -0.00000000000E+00  0.00000000000E+00  0.88369608934E+03  0.88369608934E+03  0.00000000000E+00 0. -1.
          2   -1    0    0  502    0  0.00000000000E+00 -0.00000000000E+00 -0.99095124733E+02  0.99095124733E+02  0.00000000000E+00 0. -1.
         25    1    1    2    0    0 -0.21793726135E+02 -0.12979709066E+02  0.21941657067E+03  0.25379533256E+03  0.12500000000E+03 0.  0.
          2    1    1    2  501    0 -0.11562104973E+01  0.21306036853E+02  0.64509056999E+03  0.64544335733E+03  0.00000000000E+00 0. -1.
          1    1    1    2  502    0  0.22949936633E+02 -0.83263277864E+01 -0.79906176052E+02  0.83552524181E+02  0.00000000000E+00 0. -1.
<mgrwt>
<rscale>  0 0.22794097E+02</rscale>
<asrwt>0</asrwt>
<pdfrwt beam="2">  1        2 0.15245404E-01 0.24350259E+02</pdfrwt>
<pdfrwt beam="1">  1        1 0.13595324E+00 0.21337386E+02</pdfrwt>
<totfact> 0.10440865E+03</totfact>
</mgrwt>
</event>
<event>
 5    1  0.9399923E-003  0.2231818E+02  0.7546771E-02  0.1711225E+00
          2   -1    0    0  502    0  0.00000000000E+00  0.00000000000E+00  0.17157476171E+04  0.17157476171E+04  0.00000000000E+00 0. -1.
          1   -1    0    0  501    0 -0.00000000000E+00 -0.00000000000E+00 -0.16995142573E+03  0.16995142573E+03  0.00000000000E+00 0. -1.
         25    1    1    2    0    0  0.34768140197E+02 -0.17625915903E+02  0.36436963052E+03  0.38718177143E+03  0.12500000000E+03 0.  0.
          2    1    1    2  501    0 -0.12556071829E+02  0.17268334399E+02 -0.15773401326E+03  0.15917245130E+03  0.00000000000E+00 0. -1.
          1    1    1    2  502    0 -0.22212068368E+02  0.35758150405E+00  0.13391605741E+04  0.13393448201E+04  0.00000000000E+00 0. -1.
<mgrwt>
<rscale>  0 0.21829055E+02</rscale>
<asrwt>0</asrwt>
<pdfrwt beam="1">  1        2 0.26396116E+00 0.22318178E+02</pdfrwt>
<pdfrwt beam="2">  1        1 0.26146374E-01 0.21350651E+02</pdfrwt>
<totfact> 0.30623239E+02</totfact>
</mgrwt>
</event>
<event>
 5    1  0.9399923E-003  0.1706705E+03  0.7546771E-02  0.1386702E+00
          1   -1    0    0  501    0 -0.00000000000E+00  0.00000000000E+00  0.12827873620E+03  0.12827873620E+03  0.00000000000E+00 0. -1.
          2   -1    0    0  502    0  0.00000000000E+00 -0.00000000000E+00 -0.17569182727E+04  0.17569182727E+04  0.00000000000E+00 0. -1.
         25    1    1    2    0    0 -0.10088106691E+03  0.14925470050E+03 -0.11308335961E+03  0.24671198087E+03  0.12500000000E+03 0.  0.
          2    1    1    2  501    0 -0.10381998488E+02 -0.20590306405E+02  0.54533283257E+02  0.59208323682E+02  0.00000000000E+00 0. -1.
          3    1    1    2  502    0  0.11126306540E+03 -0.12866439410E+03 -0.15700894602E+04  0.15792767044E+04  0.00000000000E+00 0. -1.
<mgrwt>
<rscale>  0 0.62734355E+02</rscale>
<asrwt>0</asrwt>
<pdfrwt beam="2">  1        2 0.27029512E+00 0.17067052E+03</pdfrwt>
<pdfrwt beam="1">  1        1 0.19735190E-01 0.23059632E+02</pdfrwt>
<totfact> 0.33372579E+02</totfact>
</mgrwt>
</event>
<event>
 5    1  0.9399923E-003  0.8241769E+02  0.7546771E-02  0.1396863E+00
          1   -1    0    0  501    0 -0.00000000000E+00  0.00000000000E+00  0.49937773841E+03  0.49937773841E+03  0.00000000000E+00 0. -1.
          2   -1    0    0  502    0  0.00000000000E+00 -0.00000000000E+00 -0.59166474329E+03  0.59166474329E+03  0.00000000000E+00 0. -1.
         25    1    1    2    0    0  0.72975870241E+02  0.94234278895E+02  0.39533323451E+02  0.17718199858E+03  0.12500000000E+03 0.  0.
          2    1    1    2  501    0 -0.34716654910E+02 -0.72468016539E+02  0.38594814091E+03  0.39422433591E+03  0.00000000000E+00 0. -1.
          1    1    1    2  502    0 -0.38259215330E+02 -0.21766262356E+02 -0.51776846926E+03  0.51963614721E+03  0.00000000000E+00 0. -1.
<mgrwt>
<rscale>  0 0.60231373E+02</rscale>
<asrwt>0</asrwt>
<pdfrwt beam="2">  1        2 0.91025345E-01 0.44017471E+02</pdfrwt>
<pdfrwt beam="1">  1        1 0.76827344E-01 0.82417690E+02</pdfrwt>
<totfact> 0.33928811E+02</totfact>
</mgrwt>
</event>
<event>
 5    1  0.9399923E-003  0.1562118E+03  0.7546771E-02  0.1337162E+00
          1   -1    0    0  501    0 -0.00000000000E+00  0.00000000000E+00  0.19875138351E+02  0.19875138351E+02  0.00000000000E+00 0. -1.
          2   -1    0    0  502    0  0.00000000000E+00 -0.00000000000E+00 -0.30331176466E+04  0.30331176466E+04  0.00000000000E+00 0. -1.
         25    1    1    2    0    0 -0.67358909844E+02  0.15531201177E+03 -0.14748105028E+04  0.14897483220E+04  0.12500000000E+03 0.  0.
          2    1    1    2  501    0  0.37415890952E+02 -0.75080485071E+01 -0.33512851637E+02  0.50788098143E+02  0.00000000000E+00 0. -1.
          3    1    1    2  502    0  0.29943018892E+02 -0.14780396326E+03 -0.15049191539E+04  0.15124563648E+04  0.00000000000E+00 0. -1.
<mgrwt>
<rscale>  0 0.77209565E+02</rscale>
<asrwt>0</asrwt>
<pdfrwt beam="2">  1        2 0.46663337E+00 0.15621180E+03</pdfrwt>
<pdfrwt beam="1">  1        1 0.30577143E-02 0.38161757E+02</pdfrwt>
<totfact> 0.77972506E+02</totfact>
</mgrwt>
</event>
<event>
 5    1  0.9399923E-003  0.7204947E+02  0.7546771E-02  0.1494648E+00
          1   -1    0    0  501    0 -0.00000000000E+00  0.00000000000E+00  0.41585606755E+03  0.41585606755E+03  0.00000000000E+00 0. -1.
          2   -1    0    0  502    0  0.00000000000E+00 -0.00000000000E+00 -0.64775908641E+03  0.64775908641E+03  0.00000000000E+00 0. -1.
         25    1    1    2    0    0  0.20293546671E+02 -0.65955057427E+02  0.22695269015E+02  0.14457514611E+03  0.12500000000E+03 0.  0.
          2    1    1    2  501    0 -0.43362687304E+02  0.58093901901E+02  0.32800843848E+03  0.33592374105E+03  0.00000000000E+00 0. -1.
          1    1    1    2  502    0  0.23069140633E+02  0.78611555260E+01 -0.58260672635E+03  0.58311626680E+03  0.00000000000E+00 0. -1.
<mgrwt>
<rscale>  0 0.41904329E+02</rscale>
<asrwt>0</asrwt>
<pdfrwt beam="2">  1        2 0.99655243E-01 0.24371767E+02</pdfrwt>
<pdfrwt beam="1">  1        1 0.63977857E-01 0.72049467E+02</pdfrwt>
<totfact> 0.39350084E+02</totfact>
</mgrwt>
</event>
<event>
 5    1  0.9399923E-003  0.1728024E+03  0.7546771E-02  0.1229602E+00
          1   -1    0    0  501    0 -0.00000000000E+00  0.00000000000E+00  0.34350512686E+03  0.34350512686E+03  0.00000000000E+00 0. -1.
          2   -1    0    0  502    0  0.00000000000E+00 -0.00000000000E+00 -0.15816375211E+04  0.15816375211E+04  0.00000000000E+00 0. -1.
         25    1    1    2    0    0 -0.13372640161E+03  0.85124010794E+02  0.86999098940E+02  0.21982422732E+03  0.12500000000E+03 0.  0.
          2    1    1    2  501    0  0.90625775705E+02 -0.17051445684E+03  0.13908779351E+03  0.23797820387E+03  0.00000000000E+00 0. -1.
          1    1    1    2  502    0  0.43100625906E+02  0.85390446044E+02 -0.14642192867E+04  0.14673402168E+04  0.00000000000E+00 0. -1.
<mgrwt>
<rscale>  0 0.12856434E+03</rscale>
<asrwt>0</asrwt>
<pdfrwt beam="2">  1        2 0.24332885E+00 0.95651410E+02</pdfrwt>
<pdfrwt beam="1">  1        1 0.52846943E-01 0.17280236E+03</pdfrwt>
<totfact> 0.13627797E+02</totfact>
</mgrwt>
</event>
<event>
 5    1  0.9399923E-003  0.7410621E+02  0.7546771E-02  0.1392373E+00
          2   -1    0    0  502    0  0.00000000000E+00  0.00000000000E+00  0.50520145991E+03  0.50520145991E+03  0.00000000000E+00 0. -1.
          1   -1    0    0  501    0 -0.00000000000E+00 -0.00000000000E+00 -0.25366637771E+03  0.25366637771E+03  0.00000000000E+00 0. -1.
         25    1    1    2    0    0  0.35095211770E+02  0.20447514838E+02 -0.28262243021E+02  0.13443782627E+03  0.12500000000E+03 0.  0.
          2    1    1    2  501    0 -0.81139685423E+02  0.87126088452E+00 -0.16122759047E+03  0.18049582702E+03  0.00000000000E+00 0. -1.
          1    1    1    2  502    0  0.46044473653E+02 -0.21318775723E+02  0.44102491569E+03  0.44393418432E+03  0.00000000000E+00 0. -1.
<mgrwt>
<rscale>  0 0.61320270E+02</rscale>
<asrwt>0</asrwt>
<pdfrwt beam="1">  1        2 0.77723301E-01 0.50740356E+02</pdfrwt>
<pdfrwt beam="2">  1        1 0.39025597E-01 0.74106211E+02</pdfrwt>
<totfact> 0.92264620E+02</totfact>
</mgrwt>
</event>
<event>
 5    1  0.9399923E-003  0.2942389E+02  0.7546771E-02  0.1625582E+00
          2   -1    0    0  502    0  0.00000000000E+00  0.00000000000E+00  0.16185028208E+02  0.16185028208E+02  0.00000000000E+00 0. -1.
          1   -1    0    0  501    0 -0.00000000000E+00 -0.00000000000E+00 -0.96695592745E+03  0.96695592745E+03  0.00000000000E+00 0. -1.
         25    1    1    2    0    0  0.34354366525E+01 -0.50904325606E+01 -0.39524062415E+03  0.41458155495E+03  0.12500000000E+03 0.  0.
          2    1    1    2  501    0  0.58573524573E+01 -0.25319895198E+02 -0.52088705450E+03  0.52153497410E+03  0.00000000000E+00 0. -1.
          1    1    1    2  502    0 -0.92927891098E+01  0.30410327758E+02 -0.34643220590E+02  0.47024426596E+02  0.00000000000E+00 0. -1.
<mgrwt>
<rscale>  0 0.27652935E+02</rscale>
<asrwt>0</asrwt>
<pdfrwt beam="1">  1        2 0.24900027E-02 0.29423892E+02</pdfrwt>
<pdfrwt beam="2">  1        1 0.14876255E+00 0.25988568E+02</pdfrwt>
<totfact> 0.81822393E+03</totfact>
</mgrwt>
</event>
<event>
 5    1  0.9399923E-003  0.8663208E+02  0.7546771E-02  0.1438844E+00
          2   -1    0    0  502    0  0.00000000000E+00  0.00000000000E+00  0.74419165279E+03  0.74419165279E+03  0.00000000000E+00 0. -1.
          1   -1    0    0  501    0 -0.00000000000E+00 -0.00000000000E+00 -0.26381960638E+03  0.26381960638E+03  0.00000000000E+00 0. -1.
         25    1    1    2    0    0  0.31169776135E+02 -0.74930018763E+02 -0.84206067226E+02  0.17117746468E+03  0.12500000000E+03 0.  0.
          2    1    1    2  501    0 -0.46754129953E+01  0.89608979816E+02 -0.12097014379E+03  0.15061674687E+03  0.00000000000E+00 0. -1.
          1    1    1    2  502    0 -0.26494363140E+02 -0.14678961052E+02  0.68554825743E+03  0.68621704762E+03  0.00000000000E+00 0. -1.
<mgrwt>
<rscale>  0 0.51224979E+02</rscale>
<asrwt>0</asrwt>
<pdfrwt beam="1">  1        2 0.11449102E+00 0.30288994E+02</pdfrwt>
<pdfrwt beam="2">  1        1 0.40587632E-01 0.86632076E+02</pdfrwt>
<totfact> 0.58559688E+02</totfact>
</mgrwt>
</event>
<event>
 5    1  0.9399923E-003  0.1216918E+03  0.7546771E-02  0.1321774E+00
          2   -1    0    0  502    0  0.00000000000E+00  0.00000000000E+00  0.25644801371E+04  0.25644801371E+04  0.00000000000E+00 0. -1.
          1   -1    0    0  501    0 -0.00000000000E+00 -0.00000000000E+00 -0.37794429589E+04  0.37794429589E+04  0.00000000000E+00 0. -1.
         25    1    1    2    0    0  0.15160350917E+03  0.10646678870E+02  0.11020310746E+03  0.22553647301E+03  0.12500000000E+03 0.  0.
          2    1    1    2  501    0 -0.40867916586E+02  0.38423889724E+02 -0.37200343745E+04  0.37204572742E+04  0.00000000000E+00 0. -1.
          1    1    1    2  502    0 -0.11073559259E+03 -0.49070568594E+02  0.23948684452E+04  0.23979293489E+04  0.00000000000E+00 0. -1.
<mgrwt>
<rscale>  0 0.82621009E+02</rscale>
<asrwt>0</asrwt>
<pdfrwt beam="1">  1        2 0.39453541E+00 0.12169184E+03</pdfrwt>
<pdfrwt beam="2">  1        1 0.58145276E+00 0.56094402E+02</pdfrwt>
<totfact> 0.14877586E-01</totfact>
</mgrwt>
</event>
<event>
 5    1  0.9399923E-003  0.7032796E+02  0.7546771E-02  0.1486189E+00
          1   -1    0    0  502    0  0.00000000000E+00  0.00000000000E+00  0.59685299830E+03  0.59685299830E+03  0.00000000000E+00 0. -1.
         -1   -1    0    0    0  501 -0.00000000000E+00 -0.00000000000E+00 -0.24752943705E+02  0.24752943705E+02  0.00000000000E+00 0.  1.
         25    1    1    2    0    0  0.51608120413E+02 -0.16252860630E+02  0.32096827199E+03  0.34867346500E+03  0.12500000000E+03 0.  0.
          2    1    1    2  502    0  0.19953265502E+02 -0.17412920314E+02  0.83146381949E+02  0.87262038879E+02  0.00000000000E+00 0. -1.
         -2    1    1    2    0  501 -0.71561385915E+02  0.33665780943E+02  0.16798540066E+03  0.18567043813E+03  0.00000000000E+00 0.  1.
<mgrwt>
<rscale>  0 0.43156535E+02</rscale>
<asrwt>0</asrwt>
<pdfrwt beam="1">  1        1 0.91823527E-01 0.26482874E+02</pdfrwt>
<pdfrwt beam="2">  1       -1 0.38081456E-02 0.70327962E+02</pdfrwt>
<totfact> 0.88252240E+03</totfact>
</mgrwt>
</event>
<event>
 5    1  0.9399923E-003  0.1169660E+03  0.7546771E-02  0.1354877E+00
          1   -1    0    0  502    0  0.00000000000E+00  0.00000000000E+00  0.17072690689E+04  0.17072690689E+04  0.00000000000E+00 0. -1.
         -1   -1    0    0    0  501 -0.00000000000E+00 -0.00000000000E+00 -0.95278189215E+03  0.95278189215E+03  0.00000000000E+00 0.  1.
         25    1    1    2    0    0 -0.81822839411E+00  0.87909247495E+02  0.11171760963E+03  0.18930010458E+03  0.12500000000E+03 0.  0.
          2    1    1    2  502    0  0.36336118070E+02  0.24415530448E+02  0.15526543242E+04  0.15532713485E+04  0.00000000000E+00 0. -1.
         -2    1    1    2    0  501 -0.35517889676E+02 -0.11232477794E+03 -0.90988475712E+03  0.91747950793E+03  0.00000000000E+00 0.  1.
<mgrwt>
<rscale>  0 0.71557156E+02</rscale>
<asrwt>0</asrwt>
<pdfrwt beam="1">  1        1 0.26265678E+00 0.43777067E+02</pdfrwt>
<pdfrwt beam="2">  1       -1 0.14658183E+00 0.11696596E+03</pdfrwt>
<totfact> 0.27452579E+00</totfact>
</mgrwt>
</event>
<event>
 5    1  0.9399923E-003  0.9076304E+02  0.7546771E-02  0.1314061E+00
          2   -1    0    0  502    0  0.00000000000E+00  0.00000000000E+00  0.17812176752E+04  0.17812176752E+04  0.00000000000E+00 0. -1.
          3   -1    0    0  501    0 -0.00000000000E+00 -0.00000000000E+00 -0.19622393528E+03  0.19622393528E+03  0.00000000000E+00 0. -1.
         25    1    1    2    0    0 -0.11945662284E+02 -0.20014871579E+02  0.24235688144E+03  0.27368805585E+03  0.12500000000E+03 0.  0.
          2    1    1    2  501    0  0.22027172649E+02 -0.77523719781E+02 -0.16989784114E+03  0.18804361167E+03  0.00000000000E+00 0. -1.
          1    1    1    2  502    0 -0.10081510365E+02  0.97538591360E+02  0.15125346996E+04  0.15157099429E+04  0.00000000000E+00 0. -1.
<mgrwt>
<rscale>  0 0.85526634E+02</rscale>
<asrwt>0</asrwt>
<pdfrwt beam="1">  1        2 0.27403348E+00 0.90763044E+02</pdfrwt>
<pdfrwt beam="2">  1        3 0.30188299E-01 0.80592329E+02</pdfrwt>
<totfact> 0.66297464E+01</totfact>
</mgrwt>
</event>
<event>
 5    1  0.9399923E-003  0.3796779E+02  0.7546771E-02  0.1600240E+00
          1   -1    0    0  502    0  0.00000000000E+00  0.00000000000E+00  0.15180753344E+04  0.15180753344E+04  0.00000000000E+00 0. -1.
         -1   -1    0    0    0  501 -0.00000000000E+00 -0.00000000000E+00 -0.30253807310E+03  0.30253807310E+03  0.00000000000E+00 0.  1.
         25    1    1    2    0    0  0.50944457360E+02 -0.25357835427E+02 -0.83383213403E+02  0.16067394882E+03  0.12500000000E+03 0.  0.
          2    1    1    2  502    0 -0.37413607437E+02  0.62675436210E+01  0.14784273378E+04  0.14789139438E+04  0.00000000000E+00 0. -1.
         -2    1    1    2    0  501 -0.13530849923E+02  0.19090291806E+02 -0.17950686308E+03  0.18102551486E+03  0.00000000000E+00 0.  1.
<mgrwt>
<rscale>  0 0.29806315E+02</rscale>
<asrwt>0</asrwt>
<pdfrwt beam="1">  1        1 0.23355005E+00 0.37967791E+02</pdfrwt>
<pdfrwt beam="2">  1       -1 0.46544320E-01 0.23399212E+02</pdfrwt>
<totfact> 0.40106582E+01</totfact>
</mgrwt>
</event>
<event>
 5    1  0.9399923E-003  0.1573013E+03  0.7546771E-02  0.1300390E+00
          1   -1    0    0  501    0 -0.00000000000E+00  0.00000000000E+00  0.22595946102E+03  0.22595946102E+03  0.00000000000E+00 0. -1.
          2   -1    0    0  502    0  0.00000000000E+00 -0.00000000000E+00 -0.68818442598E+03  0.68818442598E+03  0.00000000000E+00 0. -1.
         25    1    1    2    0    0  0.10196733495E+03 -0.67648356692E+02 -0.17302803696E+03  0.24604336840E+03  0.12500000000E+03 0.  0.
          2    1    1    2  501    0 -0.11211705980E+03  0.11933346848E+03  0.15221186729E+03  0.22356020294E+03  0.00000000000E+00 0. -1.
          1    1    1    2  502    0  0.10149724851E+02 -0.51685111792E+02 -0.44140879528E+03  0.44454031566E+03  0.00000000000E+00 0. -1.
<mgrwt>
<rscale>  0 0.91024261E+02</rscale>
<asrwt>0</asrwt>
<pdfrwt beam="2">  1        2 0.10587453E+00 0.52672267E+02</pdfrwt>
<pdfrwt beam="1">  1        1 0.34762994E-01 0.15730130E+03</pdfrwt>
<totfact> 0.76419245E+02</totfact>
</mgrwt>
</event>
<event>
 5    1  0.9399923E-003  0.9045456E+02  0.7546771E-02  0.1385406E+00
         -2   -1    0    0    0  501 -0.00000000000E+00  0.00000000000E+00  0.10789448544E+03  0.10789448544E+03  0.00000000000E+00 0.  1.
          2   -1    0    0  502    0  0.00000000000E+00 -0.00000000000E+00 -0.63742889928E+03  0.63742889928E+03  0.00000000000E+00 0. -1.
         25    1    1    2    0    0 -0.81780470665E+02 -0.46002099944E+02 -0.27998508217E+03  0.32065695816E+03  0.12500000000E+03 0.  0.
          1    1    1    2  502    0  0.50440086742E+02  0.76838908774E+02 -0.32477670162E+03  0.33753270385E+03  0.00000000000E+00 0. -1.
         -1    1    1    2    0  501  0.31340383923E+02 -0.30836808830E+02  0.75227369949E+02  0.87133722707E+02  0.00000000000E+00 0.  1.
<mgrwt>
<rscale>  0 0.63063840E+02</rscale>
<asrwt>0</asrwt>
<pdfrwt beam="2">  1        2 0.98065984E-01 0.90454561E+02</pdfrwt>
<pdfrwt beam="1">  1       -2 0.16599152E-01 0.43967357E+02</pdfrwt>
<totfact> 0.12859162E+03</totfact>
</mgrwt>
</event>
<event>
 5    1  0.9399923E-003  0.3744592E+02  0.7546771E-02  0.1557660E+00
          1   -1    0    0  501    0 -0.00000000000E+00  0.00000000000E+00  0.10869694254E+04  0.10869694254E+04  0.00000000000E+00 0. -1.
          2   -1    0    0  502    0  0.00000000000E+00 -0.00000000000E+00 -0.68295381741E+03  0.68295381741E+03  0.00000000000E+00 0. -1.
         25    1    1    2    0    0  0.37701851931E+02 -0.56107863117E+02 -0.15129018976E+03  0.20756503429E+03  0.12500000000E+03 0.  0.
          2    1    1    2  501    0 -0.17420477773E+02  0.25487508664E+02  0.10579367818E+04  0.10583871317E+04  0.00000000000E+00 0. -1.
          1    1    1    2  502    0 -0.20281374158E+02  0.30620354454E+02 -0.50263098403E+03  0.50397107690E+03  0.00000000000E+00 0. -1.
<mgrwt>
<rscale>  0 0.34000497E+02</rscale>
<asrwt>0</asrwt>
<pdfrwt beam="2">  1        2 0.10506982E+00 0.37445916E+02</pdfrwt>
<pdfrwt beam="1">  1        1 0.16722606E+00 0.30872093E+02</pdfrwt>
<totfact> 0.10115219E+02</totfact>
</mgrwt>
</event>
<event>
 5    1  0.9399923E-003  0.7279975E+02  0.7546771E-02  0.1394855E+00
          2   -1    0    0  502    0  0.00000000000E+00  0.00000000000E+00  0.17693483654E+03  0.17693483654E+03  0.00000000000E+00 0. -1.
          1   -1    0    0  501    0 -0.00000000000E+00 -0.00000000000E+00 -0.63177107960E+03  0.63177107960E+03  0.00000000000E+00 0. -1.
         25    1    1    2    0    0 -0.74175874563E+02 -0.45616163040E+02  0.98738296726E+02  0.18154103100E+03  0.12500000000E+03 0.  0.
          2    1    1    2  501    0  0.62532113136E+01  0.50248906650E+02 -0.55671396332E+03  0.55901206805E+03  0.00000000000E+00 0. -1.
          1    1    1    2  502    0  0.67922663249E+02 -0.46327436097E+01  0.31394235294E+01  0.68152817083E+02  0.00000000000E+00 0. -1.
<mgrwt>
<rscale>  0 0.60715111E+02</rscale>
<asrwt>0</asrwt>
<pdfrwt beam="1">  1        2 0.27220744E-01 0.72799751E+02</pdfrwt>
<pdfrwt beam="2">  1        1 0.97195551E-01 0.50636501E+02</pdfrwt>
<totfact> 0.89441281E+02</totfact>
</mgrwt>
</event>
<event>
 5    1  0.9399923E-003  0.4052784E+02  0.7546771E-02  0.1565607E+00
          1   -1    0    0  501    0 -0.00000000000E+00  0.00000000000E+00  0.89367877582E+02  0.89367877582E+02  0.00000000000E+00 0. -1.
          2   -1    0    0  502    0  0.00000000000E+00 -0.00000000000E+00 -0.16009190548E+04  0.16009190548E+04  0.00000000000E+00 0. -1.
         25    1    1    2    0    0 -0.29332465405E+02 -0.57585073482E+01 -0.38638945600E+03  0.40720432911E+03  0.12500000000E+03 0.  0.
          2    1    1    2  501    0 -0.62479788394E+01  0.26396712687E+02  0.76268330266E+02  0.80948637306E+02  0.00000000000E+00 0. -1.
          1    1    1    2  502    0  0.35580444244E+02 -0.20638205339E+02 -0.12014300515E+04  0.12021339660E+04  0.00000000000E+00 0. -1.
<mgrwt>
<rscale>  0 0.33156613E+02</rscale>
<asrwt>0</asrwt>
<pdfrwt beam="2">  1        2 0.24629523E+00 0.40527837E+02</pdfrwt>
<pdfrwt beam="1">  1        1 0.13748905E-01 0.27126070E+02</pdfrwt>
<totfact> 0.71499750E+02</totfact>
</mgrwt>
</event>
<event>
 5    1  0.9399923E-003  0.9394808E+02  0.7546771E-02  0.1342985E+00
          2   -1    0    0  502    0  0.00000000000E+00  0.00000000000E+00  0.25093678254E+04  0.25093678254E+04  0.00000000000E+00 0. -1.
         -2   -1    0    0    0  501 -0.00000000000E+00 -0.00000000000E+00 -0.75380036445E+02  0.75380036445E+02  0.00000000000E+00 0.  1.
         25    1    1    2    0    0  0.10168216524E+03  0.75331703361E+02  0.29074381110E+03  0.34083880641E+03  0.12500000000E+03 0.  0.
          1    1    1    2  502    0 -0.60059624353E+02  0.57283996559E+01  0.21515626406E+04  0.21524083649E+04  0.00000000000E+00 0. -1.
         -1    1    1    2    0  501 -0.41622540891E+02 -0.81060103017E+02 -0.83186627463E+01  0.91500690496E+02  0.00000000000E+00 0.  1.
<mgrwt>
<rscale>  0 0.75286741E+02</rscale>
<asrwt>0</asrwt>
<pdfrwt beam="1">  1        2 0.38605652E+00 0.60332189E+02</pdfrwt>
<pdfrwt beam="2">  1       -2 0.11596931E-01 0.93948081E+02</pdfrwt>
<totfact> 0.23955005E+02</totfact>
</mgrwt>
</event>
<event>
 5    1  0.9399923E-003  0.4228026E+02  0.7546771E-02  0.1589776E+00
          2   -1    0    0  502    0  0.00000000000E+00  0.00000000000E+00  0.26480780031E+03  0.26480780031E+03  0.00000000000E+00 0. -1.
          1   -1    0    0  501    0 -0.00000000000E+00 -0.00000000000E+00 -0.15817694067E+04  0.15817694067E+04  0.00000000000E+00 0. -1.
         25    1    1    2    0    0 -0.13837811980E+02  0.62142375465E+02 -0.15139735803E+04  0.15204585367E+04  0.12500000000E+03 0.  0.
          2    1    1    2  501    0  0.99235176664E+01 -0.20067459854E+02 -0.60839495655E+02  0.64827643636E+02  0.00000000000E+00 0. -1.
          1    1    1    2  502    0  0.39142943131E+01 -0.42074915612E+02  0.25785146963E+03  0.26129102666E+03  0.00000000000E+00 0. -1.
<mgrwt>
<rscale>  0 0.30765721E+02</rscale>
<asrwt>0</asrwt>
<pdfrwt beam="1">  1        2 0.40739662E-01 0.42280265E+02</pdfrwt>
<pdfrwt beam="2">  1        1 0.24334914E+00 0.22387031E+02</pdfrwt>
<totfact> 0.13745360E+02</totfact>
</mgrwt>
</event>
<event>
 5    1  0.9399923E-003  0.1091080E+03  0.7546771E-02  0.1306526E+00
          2   -1    0    0  502    0  0.00000000000E+00  0.00000000000E+00  0.11380408463E+04  0.11380408463E+04  0.00000000000E+00 0. -1.
          1   -1    0    0  501    0 -0.00000000000E+00 -0.00000000000E+00 -0.13630859301E+03  0.13630859301E+03  0.00000000000E+00 0. -1.
         25    1    1    2    0    0 -0.51767446984E+01  0.35181021993E+01  0.47666897802E+03  0.49282602441E+03  0.12500000000E+03 0.  0.
          2    1    1    2  501    0 -0.47302947893E+02  0.98320853402E+02 -0.98820697251E+02  0.14720764008E+03  0.00000000000E+00 0. -1.
          1    1    1    2  502    0  0.52479692591E+02 -0.10183895560E+03  0.62388397253E+03  0.63431577482E+03  0.00000000000E+00 0. -1.
<mgrwt>
<rscale>  0 0.88499872E+02</rscale>
<asrwt>0</asrwt>
<pdfrwt beam="1">  1        2 0.17508320E+00 0.71784162E+02</pdfrwt>
<pdfrwt beam="2">  1        1 0.20970553E-01 0.10910802E+03</pdfrwt>
<totfact> 0.74677934E+02</totfact>
</mgrwt>
</event>
<event>
 5    1  0.9399923E-003  0.6942826E+02  0.7546771E-02  0.1371434E+00
          2   -1    0    0  502    0  0.00000000000E+00  0.00000000000E+00  0.33875960784E+04  0.33875960784E+04  0.00000000000E+00 0. -1.
         -2   -1    0    0    0  501 -0.00000000000E+00 -0.00000000000E+00 -0.34538952089E+03  0.34538952089E+03  0.00000000000E+00 0.  1.
         25    1    1    2    0    0  0.53384810615E+02  0.31393192713E+02  0.60657797856E+03  0.62241249556E+03  0.12500000000E+03 0.  0.
          1    1    1    2  502    0 -0.63900468773E+02  0.31953837767E+02  0.27695813541E+04  0.27705026971E+04  0.00000000000E+00 0. -1.
         -1    1    1    2    0  501  0.10515658158E+02 -0.63347030480E+02 -0.33395277523E+03  0.34007040656E+03  0.00000000000E+00 0.  1.
<mgrwt>
<rscale>  0 0.66770201E+02</rscale>
<asrwt>0</asrwt>
<pdfrwt beam="1">  1        2 0.52116860E+00 0.69428262E+02</pdfrwt>
<pdfrwt beam="2">  1       -2 0.53136852E-01 0.64213903E+02</pdfrwt>
<totfact> 0.52867589E+00</totfact>
</mgrwt>
</event>
<event>
 5    1  0.9399923E-003  0.4201342E+02  0.7546771E-02  0.1520069E+00
          1   -1    0    0  501    0 -0.00000000000E+00  0.00000000000E+00  0.19549353250E+04  0.19549353250E+04  0.00000000000E+00 0. -1.
          2   -1    0    0  502    0  0.00000000000E+00 -0.00000000000E+00 -0.92981433398E+03  0.92981433398E+03  0.00000000000E+00 0. -1.
         25    1    1    2    0    0  0.15372995917E+01 -0.39106214128E+02  0.45930110932E+02  0.13880286151E+03  0.12500000000E+03 0.  0.
          2    1    1    2  501    0 -0.33254885275E+02  0.11410173738E+02  0.18619010006E+04  0.18622329112E+04  0.00000000000E+00 0. -1.
          1    1    1    2  502    0  0.31717585683E+02  0.27696040390E+02 -0.88271012053E+03  0.88371388626E+03  0.00000000000E+00 0. -1.
<mgrwt>
<rscale>  0 0.38433117E+02</rscale>
<asrwt>0</asrwt>
<pdfrwt beam="2">  1        2 0.14304836E+00 0.42013418E+02</pdfrwt>
<pdfrwt beam="1">  1        1 0.30075928E+00 0.35157922E+02</pdfrwt>
<totfact> 0.20193540E+01</totfact>
</mgrwt>
</event>
<event>
 5    1  0.9399923E-003  0.9544101E+02  0.7546771E-02  0.1331615E+00
          2   -1    0    0  502    0  0.00000000000E+00  0.00000000000E+00  0.70535627583E+02  0.70535627583E+02  0.00000000000E+00 0. -1.
          1   -1    0    0  501    0 -0.00000000000E+00 -0.00000000000E+00 -0.14235600675E+04  0.14235600675E+04  0.00000000000E+00 0. -1.
         25    1    1    2    0    0 -0.20657866563E+02  0.28276688611E+02 -0.62100744449E+03  0.63443011017E+03  0.12500000000E+03 0.  0.
          2    1    1    2  501    0 -0.53979314755E+02  0.37211927960E+02 -0.75492160332E+03  0.75776323556E+03  0.00000000000E+00 0. -1.
          1    1    1    2  502    0  0.74637181318E+02 -0.65488616571E+02  0.22904607922E+02  0.10190234933E+03  0.00000000000E+00 0. -1.
<mgrwt>
<rscale>  0 0.79103664E+02</rscale>
<asrwt>0</asrwt>
<pdfrwt beam="1">  1        2 0.10851636E-01 0.95441012E+02</pdfrwt>
<pdfrwt beam="2">  1        1 0.21900923E+00 0.65562901E+02</pdfrwt>
<totfact> 0.67882622E+02</totfact>
</mgrwt>
</event>
<event>
 5    1  0.9399923E-003  0.8229932E+02  0.7546771E-02  0.1462466E+00
          2   -1    0    0  502    0  0.00000000000E+00  0.00000000000E+00  0.14555215264E+04  0.14555215264E+04  0.00000000000E+00 0. -1.
         -2   -1    0    0    0  501 -0.00000000000E+00 -0.00000000000E+00 -0.35612493127E+02  0.35612493127E+02  0.00000000000E+00 0.  1.
         25    1    1    2    0    0 -0.59522683522E+02 -0.39251851986E+02  0.43677721145E+03  0.45987279783E+03  0.12500000000E+03 0.  0.
          1    1    1    2  502    0  0.58457727363E+01 -0.26149528991E+02  0.93203640458E+03  0.93242148752E+03  0.00000000000E+00 0. -1.
         -1    1    1    2    0  501  0.53676910786E+02  0.65401380977E+02  0.51095417193E+02  0.98839734132E+02  0.00000000000E+00 0.  1.
<mgrwt>
<rscale>  0 0.46959647E+02</rscale>
<asrwt>0</asrwt>
<pdfrwt beam="1">  1        2 0.22392634E+00 0.26794979E+02</pdfrwt>
<pdfrwt beam="2">  1       -2 0.54788462E-02 0.82299316E+02</pdfrwt>
<totfact> 0.26778264E+03</totfact>
</mgrwt>
</event>
<event>
 5    1  0.9399923E-003  0.8542240E+02  0.7546771E-02  0.1450638E+00
          2   -1    0    0  502    0  0.00000000000E+00  0.00000000000E+00  0.29949860719E+03  0.29949860719E+03  0.00000000000E+00 0. -1.
          1   -1    0    0  501    0 -0.00000000000E+00 -0.00000000000E+00 -0.21795242574E+04  0.21795242574E+04  0.00000000000E+00 0. -1.
         25    1    1    2    0    0 -0.82267642899E+02 -0.36451266718E+02 -0.77812475886E+03  0.79322115470E+03  0.12500000000E+03 0.  0.
          2    1    1    2  501    0  0.63264948921E+02  0.57210239987E+02 -0.13918644652E+04  0.13944755842E+04  0.00000000000E+00 0. -1.
          1    1    1    2  502    0  0.19002693978E+02 -0.20758973269E+02  0.28996357387E+03  0.29132612571E+03  0.00000000000E+00 0. -1.
<mgrwt>
<rscale>  0 0.49031176E+02</rscale>
<asrwt>0</asrwt>
<pdfrwt beam="1">  1        2 0.46076708E-01 0.28143158E+02</pdfrwt>
<pdfrwt beam="2">  1        1 0.33531143E+00 0.85422402E+02</pdfrwt>
<totfact> 0.43844571E+01</totfact>
</mgrwt>
</event>
<event>
 5    1  0.9399923E-003  0.1381346E+03  0.7546771E-02  0.1216356E+00
          1   -1    0    0  501    0 -0.00000000000E+00  0.00000000000E+00  0.34837565845E+03  0.34837565845E+03  0.00000000000E+00 0. -1.
          2   -1    0    0  502    0  0.00000000000E+00 -0.00000000000E+00 -0.81167434190E+03  0.81167434190E+03  0.00000000000E+00 0. -1.
         25    1    1    2    0    0  0.62976928375E+02  0.73505818808E+02  0.19551845861E+02  0.15929994847E+03  0.12500000000E+03 0.  0.
          2    1    1    2  501    0  0.43036817553E+02 -0.16206231241E+03  0.22440451564E+03  0.28013166085E+03  0.00000000000E+00 0. -1.
          1    1    1    2  502    0 -0.10601374593E+03  0.88556493607E+02 -0.70725504495E+03  0.72061839103E+03  0.00000000000E+00 0. -1.
<mgrwt>
<rscale>  0 0.13777427E+03</rscale>
<asrwt>0</asrwt>
<pdfrwt beam="2">  1        2 0.12487297E+00 0.13813460E+03</pdfrwt>
<pdfrwt beam="1">  1        1 0.53596256E-01 0.13741489E+03</pdfrwt>
<totfact> 0.35518118E+02</totfact>
</mgrwt>
</event>
<event>
 5    1  0.9399923E-003  0.7878950E+02  0.7546771E-02  0.1346012E+00
          3   -1    0    0  501    0 -0.00000000000E+00  0.00000000000E+00  0.41910424040E+03  0.41910424040E+03  0.00000000000E+00 0. -1.
          2   -1    0    0  502    0  0.00000000000E+00 -0.00000000000E+00 -0.51012769861E+03  0.51012769861E+03  0.00000000000E+00 0. -1.
         25    1    1    2    0    0  0.14451289552E+02 -0.49325276757E+02 -0.28471419479E+03  0.31516502885E+03  0.12500000000E+03 0.  0.
          2    1    1    2  501    0  0.65114254611E+02 -0.25939245312E+02  0.38623990160E+03  0.39254805080E+03  0.00000000000E+00 0. -1.
          1    1    1    2  502    0 -0.79565544164E+02  0.75264522069E+02 -0.19254916502E+03  0.22151885935E+03  0.00000000000E+00 0. -1.
<mgrwt>
<rscale>  0 0.74312942E+02</rscale>
<asrwt>0</asrwt>
<pdfrwt beam="2">  1        2 0.78481184E-01 0.78789496E+02</pdfrwt>
<pdfrwt beam="1">  1        3 0.64477576E-01 0.70090731E+02</pdfrwt>
<totfact> 0.87283257E+01</totfact>
</mgrwt>
</event>
<event>
 5    1  0.9399923E-003  0.1295969E+03  0.7546771E-02  0.1331510E+00
          1   -1    0    0  501    0 -0.00000000000E+00  0.00000000000E+00  0.18056201105E+04  0.18056201105E+04  0.00000000000E+00 0. -1.
          2   -1    0    0  502    0  0.00000000000E+00 -0.00000000000E+00 -0.15029406677E+04  0.15029406677E+04  0.00000000000E+00 0. -1.
         25    1    1    2    0    0  0.93517931790E+02 -0.14920344784E+03  0.12803457499E+04  0.12984288628E+04  0.12500000000E+03 0.  0.
          2    1    1    2  501    0 -0.34311826361E+02  0.34033555970E+02  0.51228708262E+03  0.51456159921E+03  0.00000000000E+00 0. -1.
          1    1    1    2  502    0 -0.59206105430E+02  0.11516989187E+03 -0.14899533897E+04  0.14955703161E+04  0.00000000000E+00 0. -1.
<mgrwt>
<rscale>  0 0.79140015E+02</rscale>
<asrwt>0</asrwt>
<pdfrwt beam="2">  1        2 0.23122164E+00 0.12959686E+03</pdfrwt>
<pdfrwt beam="1">  1        1 0.27778771E+00 0.48327884E+02</pdfrwt>
<totfact> 0.10866088E+01</totfact>
</mgrwt>
</event>
<event>
 5    1  0.9399923E-003  0.1029932E+03  0.7546771E-02  0.1308140E+00
          1   -1    0    0  501    0 -0.00000000000E+00  0.00000000000E+00  0.28455189087E+03  0.28455189087E+03  0.00000000000E+00 0. -1.
          2   -1    0    0  502    0  0.00000000000E+00 -0.00000000000E+00 -0.14963352565E+04  0.14963352565E+04  0.00000000000E+00 0. -1.
         25    1    1    2    0    0  0.13385784956E+03  0.10675314887E+03 -0.54582911339E+03  0.58554980975E+03  0.12500000000E+03 0.  0.
          2    1    1    2  501    0 -0.91385614430E+02 -0.45016011924E+02  0.25330838828E+03  0.27302547762E+03  0.00000000000E+00 0. -1.
          3    1    1    2  502    0 -0.42472235127E+02 -0.61737136945E+02 -0.91926264047E+03  0.92231185995E+03  0.00000000000E+00 0. -1.
<mgrwt>
<rscale>  0 0.87851408E+02</rscale>
<asrwt>0</asrwt>
<pdfrwt beam="2">  1        2 0.23020543E+00 0.74935738E+02</pdfrwt>
<pdfrwt beam="1">  1        1 0.43777212E-01 0.10299318E+03</pdfrwt>
<totfact> 0.19438985E+02</totfact>
</mgrwt>
</event>
<event>
 5    1  0.9399923E-003  0.6063245E+02  0.7546771E-02  0.1451197E+00
          2   -1    0    0  502    0  0.00000000000E+00  0.00000000000E+00  0.13775140646E+04  0.13775140646E+04  0.00000000000E+00 0. -1.
         -2   -1    0    0    0  501 -0.00000000000E+00 -0.00000000000E+00 -0.14807566516E+02  0.14807566516E+02  0.00000000000E+00 0.  1.
         25    1    1    2    0    0  0.60493877392E+02 -0.69276388425E+02  0.70257587886E+03  0.71951135693E+03  0.12500000000E+03 0.  0.
          1    1    1    2  502    0 -0.45396328735E+02  0.32789565864E+02  0.58730087231E+03  0.58996465734E+03  0.00000000000E+00 0. -1.
         -1    1    1    2    0  501 -0.15097548657E+02  0.36486822562E+02  0.72829746948E+02  0.82845616882E+02  0.00000000000E+00 0.  1.
<mgrwt>
<rscale>  0 0.48930506E+02</rscale>
<asrwt>0</asrwt>
<pdfrwt beam="1">  1        2 0.21192514E+00 0.60632451E+02</pdfrwt>
<pdfrwt beam="2">  1       -2 0.22780882E-02 0.39487013E+02</pdfrwt>
<totfact> 0.88456593E+03</totfact>
</mgrwt>
</event>
<event>
 5    1  0.9399923E-003  0.1198314E+03  0.7546771E-02  0.1270851E+00
         -2   -1    0    0    0  501 -0.00000000000E+00  0.00000000000E+00  0.10417848948E+04  0.10417848948E+04  0.00000000000E+00 0.  1.
          2   -1    0    0  502    0  0.00000000000E+00 -0.00000000000E+00 -0.23368325370E+03  0.23368325370E+03  0.00000000000E+00 0. -1.
         25    1    1    2    0    0 -0.18200733327E+03 -0.50939741289E+02 -0.38430006219E+02  0.22983340050E+03  0.12500000000E+03 0.  0.
          1    1    1    2  502    0  0.64542789267E+02  0.64654571075E+02 -0.73981832226E+02  0.11755550479E+03  0.00000000000E+00 0. -1.
         -1    1    1    2    0  501  0.11746454400E+03 -0.13714829785E+02  0.92051347955E+03  0.92807924322E+03  0.00000000000E+00 0.  1.
<mgrwt>
<rscale>  0 0.10462963E+03</rscale>
<asrwt>0</asrwt>
<pdfrwt beam="2">  1        2 0.35951270E-01 0.91356364E+02</pdfrwt>
<pdfrwt beam="1">  1       -2 0.16027460E+00 0.11983137E+03</pdfrwt>
<totfact> 0.39721951E+01</totfact>
</mgrwt>
</event>
<event>
 5    1  0.9399923E-003  0.6735884E+02  0.7546771E-02  0.1457965E+00
          1   -1    0    0  501    0 -0.00000000000E+00  0.00000000000E+00  0.22593006650E+04  0.22593006650E+04  0.00000000000E+00 0. -1.
          2   -1    0    0  502    0  0.00000000000E+00 -0.00000000000E+00 -0.15304168495E+04  0.15304168495E+04  0.00000000000E+00 0. -1.
         25    1    1    2    0    0 -0.89872353517E+02 -0.60979216333E+01  0.50392843182E+02  0.16210694994E+03  0.12500000000E+03 0.  0.
          2    1    1    2  501    0  0.24803618851E+02  0.22999633986E+02  0.21521515298E+04  0.21524173410E+04  0.00000000000E+00 0. -1.
          1    1    1    2  502    0  0.65068734666E+02 -0.16901712352E+02 -0.14736605575E+04  0.14751932236E+04  0.00000000000E+00 0. -1.
<mgrwt>
<rscale>  0 0.47733475E+02</rscale>
<asrwt>0</asrwt>
<pdfrwt beam="2">  1        2 0.23544875E+00 0.67358845E+02</pdfrwt>
<pdfrwt beam="1">  1        1 0.34758472E+00 0.33826065E+02</pdfrwt>
<totfact> 0.61873026E+00</totfact>
</mgrwt>
</event>
<event>
 5    1  0.9399923E-003  0.1204270E+03  0.7546771E-02  0.1343795E+00
          2   -1    0    0  502    0  0.00000000000E+00  0.00000000000E+00  0.67484493864E+03  0.67484493864E+03  0.00000000000E+00 0. -1.
          1   -1    0    0  501    0 -0.00000000000E+00 -0.00000000000E+00 -0.27311853853E+03  0.27311853853E+03  0.00000000000E+00 0. -1.
         25    1    1    2    0    0  0.35811704716E+02  0.15847181240E+03  0.18266280769E+03  0.27456601180E+03  0.12500000000E+03 0.  0.
          2    1    1    2  501    0 -0.36827468571E+02 -0.11174354616E+03 -0.21057979254E+03  0.24121926037E+03  0.00000000000E+00 0. -1.
          1    1    1    2  502    0  0.10157638549E+01 -0.46728266238E+02  0.42964338495E+03  0.43217820500E+03  0.00000000000E+00 0. -1.
<mgrwt>
<rscale>  0 0.75024488E+02</rscale>
<asrwt>0</asrwt>
<pdfrwt beam="1">  1        2 0.10382230E+00 0.46739305E+02</pdfrwt>
<pdfrwt beam="2">  1        1 0.42018237E-01 0.12042699E+03</pdfrwt>
<totfact> 0.61903229E+02</totfact>
</mgrwt>
</event>
<event>
 5    1  0.9399923E-003  0.4299222E+02  0.7546771E-02  0.1553578E+00
          2   -1    0    0  502    0  0.00000000000E+00  0.00000000000E+00  0.24454614406E+04  0.24454614406E+04  0.00000000000E+00 0. -1.
          1   -1    0    0  501    0 -0.00000000000E+00 -0.00000000000E+00 -0.10100174920E+03  0.10100174920E+03  0.00000000000E+00 0. -1.
         25    1    1    2    0    0 -0.57633835644E+01  0.42894700983E+02  0.40589660038E+03  0.42690774432E+03  0.12500000000E+03 0.  0.
          2    1    1    2  501    0 -0.21295857504E+02 -0.37467209680E+02 -0.85265860821E+02  0.95538329322E+02  0.00000000000E+00 0. -1.
          1    1    1    2  502    0  0.27059241068E+02 -0.54274913032E+01  0.20238289518E+04  0.20240171161E+04  0.00000000000E+00 0. -1.
<mgrwt>
<rscale>  0 0.34445720E+02</rscale>
<asrwt>0</asrwt>
<pdfrwt beam="1">  1        2 0.37622479E+00 0.27598192E+02</pdfrwt>
<pdfrwt beam="2">  1        1 0.15538733E-01 0.42992224E+02</pdfrwt>
<totfact> 0.26123998E+02</totfact>
</mgrwt>
</event>
<event>
 5    1  0.9399923E-003  0.7498595E+02  0.7546771E-02  0.1427973E+00
          1   -1    0    0  501    0 -0.00000000000E+00  0.00000000000E+00  0.14275883787E+03  0.14275883787E+03  0.00000000000E+00 0. -1.
          2   -1    0    0  502    0  0.00000000000E+00 -0.00000000000E+00 -0.22549350677E+03  0.22549350677E+03  0.00000000000E+00 0. -1.
         25    1    1    2    0    0  0.56911871939E+02 -0.86003713309E+02 -0.84079081438E+01  0.16226919853E+03  0.12500000000E+03 0.  0.
          2    1    1    2  501    0 -0.25940169774E+02  0.64014233100E+02  0.43875539403E+02  0.81827730050E+02  0.00000000000E+00 0. -1.
          1    1    1    2  502    0 -0.30971702165E+02  0.21989480210E+02 -0.11820230017E+03  0.12415541607E+03  0.00000000000E+00 0. -1.
<mgrwt>
<rscale>  0 0.53369145E+02</rscale>
<asrwt>0</asrwt>
<pdfrwt beam="2">  1        2 0.34691309E-01 0.37983991E+02</pdfrwt>
<pdfrwt beam="1">  1        1 0.21962898E-01 0.74985951E+02</pdfrwt>
<totfact> 0.42449055E+03</totfact>
</mgrwt>
</event>
<event>
 5    1  0.9399923E-003  0.8015526E+02  0.7546771E-02  0.1369526E+00
         -2   -1    0    0    0  501 -0.00000000000E+00  0.00000000000E+00  0.99974264851E+02  0.99974264851E+02  0.00000000000E+00 0.  1.
          2   -1    0    0  502    0  0.00000000000E+00 -0.00000000000E+00 -0.22734994384E+04  0.22734994384E+04  0.00000000000E+00 0. -1.
         25    1    1    2    0    0  0.93503342907E+02  0.25180344857E+02 -0.99021942603E+02  0.18656706574E+03  0.12500000000E+03 0.  0.
          1    1    1    2  502    0 -0.18821717734E+02 -0.53277905935E+02 -0.21018113101E+04  0.21025707065E+04  0.00000000000E+00 0. -1.
         -1    1    1    2    0  501 -0.74681625173E+02  0.28097561078E+02  0.27308079178E+02  0.84335931046E+02  0.00000000000E+00 0.  1.
<mgrwt>
<rscale>  0 0.67299013E+02</rscale>
<asrwt>0</asrwt>
<pdfrwt beam="2">  1        2 0.34976914E+00 0.56504799E+02</pdfrwt>
<pdfrwt beam="1">  1       -2 0.15380656E-01 0.80155265E+02</pdfrwt>
<totfact> 0.20110736E+02</totfact>
</mgrwt>
</event>
<event>
 5    1  0.9399923E-003  0.1291388E+03  0.7546771E-02  0.1292524E+00
          1   -1    0    0  502    0  0.00000000000E+00  0.00000000000E+00  0.11505603245E+04  0.11505603245E+04  0.00000000000E+00 0. -1.
         -1   -1    0    0    0  501 -0.00000000000E+00 -0.00000000000E+00 -0.10550440394E+04  0.10550440394E+04  0.00000000000E+00 0.  1.
         25    1    1    2    0    0  0.14875408823E+03 -0.11374059677E+03  0.23108298567E+03  0.32262834405E+03  0.12500000000E+03 0.  0.
          2    1    1    2  502    0 -0.83430570938E+02  0.91480610415E+02  0.86812750575E+03  0.87691204147E+03  0.00000000000E+00 0. -1.
         -2    1    1    2    0  501 -0.65323517292E+02  0.22259986352E+02 -0.10036942063E+04  0.10060639784E+04  0.00000000000E+00 0.  1.
<mgrwt>
<rscale>  0 0.94404123E+02</rscale>
<asrwt>0</asrwt>
<pdfrwt beam="1">  1        1 0.17700928E+00 0.12913880E+03</pdfrwt>
<pdfrwt beam="2">  1       -1 0.16231447E+00 0.69012092E+02</pdfrwt>
<totfact> 0.44922350E+00</totfact>
</mgrwt>
</event>
<event>
 5    1  0.9399923E-003  0.2097947E+03  0.7546771E-02  0.1352175E+00
          2   -1    0    0  502    0  0.00000000000E+00  0.00000000000E+00  0.12306252568E+04  0.12306252568E+04  0.00000000000E+00 0. -1.
          1   -1    0    0  501    0 -0.00000000000E+00 -0.00000000000E+00 -0.97261499593E+03  0.97261499593E+03  0.00000000000E+00 0. -1.
         25    1    1    2    0    0  0.94630860260E+02 -0.19029164595E+03  0.90943694531E+03  0.94226666487E+03  0.12500000000E+03 0.  0.
          2    1    1    2  501    0  0.16946846524E+02  0.18342557348E+02 -0.92154683911E+03  0.92188514561E+03  0.00000000000E+00 0. -1.
          1    1    1    2  502    0 -0.11157770678E+03  0.17194908860E+03  0.27012015470E+03  0.33908844229E+03  0.00000000000E+00 0. -1.
<mgrwt>
<rscale>  0 0.72382179E+02</rscale>
<asrwt>0</asrwt>
<pdfrwt beam="1">  1        2 0.18932696E+00 0.20979473E+03</pdfrwt>
<pdfrwt beam="2">  1        1 0.14963308E+00 0.24972886E+02</pdfrwt>
<totfact> 0.52446062E+01</totfact>
</mgrwt>
</event>
<event>
 5    1  0.9399923E-003  0.1534329E+03  0.7546771E-02  0.1373704E+00
          1   -1    0    0  501    0 -0.00000000000E+00  0.00000000000E+00  0.10889505099E+04  0.10889505099E+04  0.00000000000E+00 0. -1.
          2   -1    0    0  502    0  0.00000000000E+00 -0.00000000000E+00 -0.16049760861E+04  0.16049760861E+04  0.00000000000E+00 0. -1.
         25    1    1    2    0    0 -0.66761364484E+02  0.14929254744E+03 -0.30630606002E+03  0.36904436984E+03  0.12500000000E+03 0.  0.
          2    1    1    2  501    0  0.28451113404E+02 -0.19479472729E+01  0.10528152410E+04  0.10532014015E+04  0.00000000000E+00 0. -1.
          1    1    1    2  502    0  0.38310251080E+02 -0.14734460016E+03 -0.12625347572E+04  0.12716808246E+04  0.00000000000E+00 0. -1.
<mgrwt>
<rscale>  0 0.66147999E+02</rscale>
<asrwt>0</asrwt>
<pdfrwt beam="2">  1        2 0.24691939E+00 0.15343295E+03</pdfrwt>
<pdfrwt beam="1">  1        1 0.16753085E+00 0.28517720E+02</pdfrwt>
<totfact> 0.27985687E+01</totfact>
</mgrwt>
</event>
<event>
 5    1  0.9399923E-003  0.1697631E+03  0.7546771E-02  0.1329616E+00
          2   -1    0    0  502    0  0.00000000000E+00  0.00000000000E+00  0.81032256301E+03  0.81032256301E+03  0.00000000000E+00 0. -1.
          1   -1    0    0  501    0 -0.00000000000E+00 -0.00000000000E+00 -0.94647226589E+02  0.94647226589E+02  0.00000000000E+00 0. -1.
         25    1    1    2    0    0 -0.69597962637E+02  0.17463293862E+03  0.23921615535E+03  0.32892234439E+03  0.12500000000E+03 0.  0.
          2    1    1    2  501    0  0.36085266426E+02 -0.15777743076E+03  0.85035367077E+02  0.18283018833E+03  0.00000000000E+00 0. -1.
          1    1    1    2  502    0  0.33512696212E+02 -0.16855507861E+02  0.39142381399E+03  0.39321725688E+03  0.00000000000E+00 0. -1.
<mgrwt>
<rscale>  0 0.79801544E+02</rscale>
<asrwt>0</asrwt>
<pdfrwt beam="1">  1        2 0.12466500E+00 0.37512784E+02</pdfrwt>
<pdfrwt beam="2">  1        1 0.14561112E-01 0.16976310E+03</pdfrwt>
<totfact> 0.19391358E+03</totfact>
</mgrwt>
</event>
<event>
 5    1  0.9399923E-003  0.5803739E+02  0.7546771E-02  0.1420505E+00
         -1   -1    0    0    0  501 -0.00000000000E+00  0.00000000000E+00  0.13195063834E+03  0.13195063834E+03  0.00000000000E+00 0.  1.
          1   -1    0    0  502    0  0.00000000000E+00 -0.00000000000E+00 -0.47823341341E+03  0.47823341341E+03  0.00000000000E+00 0. -1.
         25    1    1    2    0    0  0.25793209398E+02  0.17834459462E+02 -0.15346779257E+03  0.20040139958E+03  0.12500000000E+03 0.  0.
          2    1    1    2  502    0 -0.14430853768E+01 -0.63734706964E+02 -0.29142743209E+03  0.29831886219E+03  0.00000000000E+00 0. -1.
         -2    1    1    2    0  501 -0.24350124021E+02  0.45900247502E+02  0.98612449596E+02  0.11146378998E+03  0.00000000000E+00 0.  1.
<mgrwt>
<rscale>  0 0.54914279E+02</rscale>
<asrwt>0</asrwt>
<pdfrwt beam="2">  1        1 0.73574373E-01 0.58037393E+02</pdfrwt>
<pdfrwt beam="1">  1       -1 0.20300098E-01 0.51959227E+02</pdfrwt>
<totfact> 0.92406572E+02</totfact>
</mgrwt>
</event>
<event>
 5    1  0.9399923E-003  0.3181778E+02  0.7546771E-02  0.1603352E+00
          2   -1    0    0  502    0  0.00000000000E+00  0.00000000000E+00  0.99018294529E+03  0.99018294529E+03  0.00000000000E+00 0. -1.
         -2   -1    0    0    0  501 -0.00000000000E+00 -0.00000000000E+00 -0.96507204959E+01  0.96507204959E+01  0.00000000000E+00 0.  1.
         25    1    1    2    0    0 -0.59626740292E+01 -0.52151432832E+02  0.69188738600E+03  0.70504502008E+03  0.12500000000E+03 0.  0.
          1    1    1    2  502    0 -0.76476732118E+01  0.26316427235E+02  0.18821583161E+03  0.19020052712E+03  0.00000000000E+00 0. -1.
         -1    1    1    2    0  501  0.13610347241E+02  0.25835005597E+02  0.10042900718E+03  0.10458811858E+03  0.00000000000E+00 0.  1.
<mgrwt>
<rscale>  0 0.29529146E+02</rscale>
<asrwt>0</asrwt>
<pdfrwt beam="1">  1        2 0.15233576E+00 0.27405132E+02</pdfrwt>
<pdfrwt beam="2">  1       -2 0.14847270E-02 0.31817780E+02</pdfrwt>
<totfact> 0.26026328E+04</totfact>
</mgrwt>
</event>
<event>
 5    1  0.9399923E-003  0.5900313E+02  0.7546771E-02  0.1409843E+00
          2   -1    0    0  502    0  0.00000000000E+00  0.00000000000E+00  0.71621808587E+03  0.71621808587E+03  0.00000000000E+00 0. -1.
         -2   -1    0    0    0  501 -0.00000000000E+00 -0.00000000000E+00 -0.32579131397E+03  0.32579131397E+03  0.00000000000E+00 0.  1.
         25    1    1    2    0    0 -0.43380615102E+01 -0.85332073175E+02 -0.31278047303E+02  0.15460820720E+03  0.12500000000E+03 0.  0.
          1    1    1    2  502    0 -0.35630470902E+02  0.42563105521E+02  0.64967163088E+03  0.65203863104E+03  0.00000000000E+00 0. -1.
         -1    1    1    2    0  501  0.39968532412E+02  0.42768967654E+02 -0.22796681168E+03  0.23536256160E+03  0.00000000000E+00 0.  1.
<mgrwt>
<rscale>  0 0.57228935E+02</rscale>
<asrwt>0</asrwt>
<pdfrwt beam="1">  1        2 0.11018740E+00 0.55508093E+02</pdfrwt>
<pdfrwt beam="2">  1       -2 0.50121741E-01 0.59003126E+02</pdfrwt>
<totfact> 0.16570452E+02</totfact>
</mgrwt>
</event>
<event>
 5    1  0.9399923E-003  0.1063803E+03  0.7546771E-02  0.1309160E+00
         -1   -1    0    0    0  501 -0.00000000000E+00  0.00000000000E+00  0.14906492622E+03  0.14906492622E+03  0.00000000000E+00 0.  1.
          1   -1    0    0  502    0  0.00000000000E+00 -0.00000000000E+00 -0.19887078012E+04  0.19887078012E+04  0.00000000000E+00 0. -1.
         25    1    1    2    0    0  0.13962845111E+03  0.10406171626E+03 -0.34051157399E+03  0.40236560137E+03  0.12500000000E+03 0.  0.
          2    1    1    2  502    0 -0.58867476297E+02 -0.41247119118E+02 -0.15941543700E+04  0.15957740629E+04  0.00000000000E+00 0. -1.
         -2    1    1    2    0  501 -0.80760974809E+02 -0.62814597144E+02  0.95023069003E+02  0.13963306309E+03  0.00000000000E+00 0.  1.
<mgrwt>
<rscale>  0 0.87444806E+02</rscale>
<asrwt>0</asrwt>
<pdfrwt beam="2">  1        1 0.30595503E+00 0.71879793E+02</pdfrwt>
<pdfrwt beam="1">  1       -1 0.22933066E-01 0.10638030E+03</pdfrwt>
<totfact> 0.63658400E+01</totfact>
</mgrwt>
</event>
<event>
 5    1  0.9399923E-003  0.7112778E+02  0.7546771E-02  0.1461934E+00
         -2   -1    0    0    0  501 -0.00000000000E+00  0.00000000000E+00  0.77145447762E+03  0.77145447762E+03  0.00000000000E+00 0.  1.
          2   -1    0    0  502    0  0.00000000000E+00 -0.00000000000E+00 -0.16350286780E+03  0.16350286780E+03  0.00000000000E+00 0. -1.
         25    1    1    2    0    0  0.11386097228E+02  0.56493877137E+02 -0.42906077146E-01  0.13764520771E+03  0.12500000000E+03 0.  0.
          1    1    1    2  502    0  0.31101056890E+02  0.11721334527E+01 -0.90217835426E+02  0.95435357522E+02  0.00000000000E+00 0. -1.
         -1    1    1    2    0  501 -0.42487154118E+02 -0.57666010589E+02  0.69821235132E+03  0.70187678020E+03  0.00000000000E+00 0.  1.
<mgrwt>
<rscale>  0 0.47050183E+02</rscale>
<asrwt>0</asrwt>
<pdfrwt beam="2">  1        2 0.25154288E-01 0.31123137E+02</pdfrwt>
<pdfrwt beam="1">  1       -2 0.11868530E+00 0.71127784E+02</pdfrwt>
<totfact> 0.12046458E+02</totfact>
</mgrwt>
</event>
<event>
 5    1  0.9399923E-003  0.1406478E+03  0.7546771E-02  0.1404988E+00
          2   -1    0    0  502    0  0.00000000000E+00  0.00000000000E+00  0.10888770565E+03  0.10888770565E+03  0.00000000000E+00 0. -1.
          1   -1    0    0  501    0 -0.00000000000E+00 -0.00000000000E+00 -0.99252080081E+03  0.99252080081E+03  0.00000000000E+00 0. -1.
         25    1    1    2    0    0 -0.11914092260E+03 -0.41849703868E+02 -0.26784722910E+03  0.32142354501E+03  0.12500000000E+03 0.  0.
          2    1    1    2  501    0 -0.21454998017E+02  0.11170164972E+02 -0.63441845688E+03  0.63487941214E+03  0.00000000000E+00 0. -1.
          1    1    1    2  502    0  0.14059592062E+03  0.30679538896E+02  0.18632590812E+02  0.14510554931E+03  0.00000000000E+00 0. -1.
<mgrwt>
<rscale>  0 0.58327314E+02</rscale>
<asrwt>0</asrwt>
<pdfrwt beam="1">  1        2 0.16751955E-01 0.14064775E+03</pdfrwt>
<pdfrwt beam="2">  1        1 0.15269550E+00 0.24188624E+02</pdfrwt>
<totfact> 0.85950364E+02</totfact>
</mgrwt>
</event>
<event>
 5    1  0.9399923E-003  0.6472334E+02  0.7546771E-02  0.1445057E+00
          1   -1    0    0  501    0 -0.00000000000E+00  0.00000000000E+00  0.11148040431E+04  0.11148040431E+04  0.00000000000E+00 0. -1.
          2   -1    0    0  502    0  0.00000000000E+00 -0.00000000000E+00 -0.14385313943E+03  0.14385313943E+03  0.00000000000E+00 0. -1.
         25    1    1    2    0    0 -0.73012098242E+02 -0.60553337972E+02  0.64804639299E+03  0.66677327533E+03  0.12500000000E+03 0.  0.
          2    1    1    2  501    0  0.37360838933E+02  0.45477988418E+02  0.45266392647E+03  0.45647421619E+03  0.00000000000E+00 0. -1.
          1    1    1    2  502    0  0.35651259309E+02  0.15075349554E+02 -0.12975941575E+03  0.13540969105E+03  0.00000000000E+00 0. -1.
<mgrwt>
<rscale>  0 0.50052824E+02</rscale>
<asrwt>0</asrwt>
<pdfrwt beam="2">  1        2 0.22131253E-01 0.38707602E+02</pdfrwt>
<pdfrwt beam="1">  1        1 0.17150831E+00 0.64723337E+02</pdfrwt>
<totfact> 0.45894191E+02</totfact>
</mgrwt>
</event>
<event>
 5    1  0.9399923E-003  0.1086607E+03  0.7546771E-02  0.1299487E+00
          1   -1    0    0  501    0 -0.00000000000E+00  0.00000000000E+00  0.10550701129E+04  0.10550701129E+04  0.00000000000E+00 0. -1.
          2   -1    0    0  502    0  0.00000000000E+00 -0.00000000000E+00 -0.51197680920E+02  0.51197680920E+02  0.00000000000E+00 0. -1.
         25    1    1    2    0    0  0.68323265566E+02 -0.10962859058E+03  0.25382943213E+03  0.31103195512E+03  0.12500000000E+03 0.  0.
          2    1    1    2  501    0 -0.76810620963E+02  0.34425241164E+01  0.63028096464E+03  0.63495339739E+03  0.00000000000E+00 0. -1.
          1    1    1    2  502    0  0.84873553971E+01  0.10618606647E+03  0.11976203518E+03  0.16028244129E+03  0.00000000000E+00 0. -1.
<mgrwt>
<rscale>  0 0.91403890E+02</rscale>
<asrwt>0</asrwt>
<pdfrwt beam="2">  1        2 0.78765671E-02 0.10866066E+03</pdfrwt>
<pdfrwt beam="1">  1        1 0.16231846E+00 0.76887726E+02</pdfrwt>
<totfact> 0.17549318E+03</totfact>
</mgrwt>
</event>
<event>
 5    1  0.9399923E-003  0.9314025E+02  0.7546771E-02  0.1300530E+00
         -2   -1    0    0    0  501 -0.00000000000E+00  0.00000000000E+00  0.11169991270E+03  0.11169991270E+03  0.00000000000E+00 0.  1.
          2   -1    0    0  502    0  0.00000000000E+00 -0.00000000000E+00 -0.71894775174E+03  0.71894775174E+03  0.00000000000E+00 0. -1.
         25    1    1    2    0    0  0.50733576200E+01  0.84415172686E+02 -0.53103288005E+02  0.15998943570E+03  0.12500000000E+03 0.  0.
          1    1    1    2  502    0  0.86037757570E+02 -0.22144739007E+02 -0.55320813668E+03  0.56029646410E+03  0.00000000000E+00 0. -1.
         -1    1    1    2    0  501 -0.91111115190E+02 -0.62270433679E+02 -0.93641434850E+00  0.11036176464E+03  0.00000000000E+00 0.  1.
<mgrwt>
<rscale>  0 0.90965697E+02</rscale>
<asrwt>0</asrwt>
<pdfrwt beam="2">  1        2 0.11060734E+00 0.88841911E+02</pdfrwt>
<pdfrwt beam="1">  1       -2 0.17184603E-01 0.93140253E+02</pdfrwt>
<totfact> 0.11011751E+03</totfact>
</mgrwt>
</event>
<event>
 5    1  0.9399923E-003  0.3825464E+02  0.7546771E-02  0.1571865E+00
         -2   -1    0    0    0  501 -0.00000000000E+00  0.00000000000E+00  0.14525177822E+04  0.14525177822E+04  0.00000000000E+00 0.  1.
          2   -1    0    0  502    0  0.00000000000E+00 -0.00000000000E+00 -0.23641076317E+02  0.23641076317E+02  0.00000000000E+00 0. -1.
         25    1    1    2    0    0 -0.26680069519E+02 -0.22184840001E+02  0.94134919780E+03  0.95024591840E+03  0.12500000000E+03 0.  0.
          1    1    1    2  502    0  0.42296035115E+01  0.38295595967E+02  0.93844853561E+00  0.38539887156E+02  0.00000000000E+00 0. -1.
         -1    1    1    2    0  501  0.22450466008E+02 -0.16110755966E+02  0.48658905956E+03  0.48737305297E+03  0.00000000000E+00 0.  1.
<mgrwt>
<rscale>  0 0.32512898E+02</rscale>
<asrwt>0</asrwt>
<pdfrwt beam="2">  1        2 0.36370898E-02 0.38254640E+02</pdfrwt>
<pdfrwt beam="1">  1       -2 0.22346420E+00 0.27632949E+02</pdfrwt>
<totfact> 0.24275185E+02</totfact>
</mgrwt>
</event>
<event>
 5    1  0.9399923E-003  0.8536833E+02  0.7546771E-02  0.1496403E+00
          1   -1    0    0  501    0 -0.00000000000E+00  0.00000000000E+00  0.71771958360E+03  0.71771958360E+03  0.00000000000E+00 0. -1.
          2   -1    0    0  502    0  0.00000000000E+00 -0.00000000000E+00 -0.69808462519E+02  0.69808462519E+02  0.00000000000E+00 0. -1.
         25    1    1    2    0    0  0.55367378440E+02 -0.81906874309E+02  0.57736924419E+03  0.59896120642E+03  0.12500000000E+03 0.  0.
          2    1    1    2  501    0  0.26297186493E+01  0.20150371664E+02  0.97551219674E+02  0.99645337865E+02  0.00000000000E+00 0. -1.
          1    1    1    2  502    0 -0.57997097090E+02  0.61756502645E+02 -0.27009342791E+02  0.88921501831E+02  0.00000000000E+00 0. -1.
<mgrwt>
<rscale>  0 0.41650816E+02</rscale>
<asrwt>0</asrwt>
<pdfrwt beam="2">  1        2 0.10739764E-01 0.85368328E+02</pdfrwt>
<pdfrwt beam="1">  1        1 0.11041839E+00 0.20321243E+02</pdfrwt>
<totfact> 0.22667432E+03</totfact>
</mgrwt>
</event>
<event>
 5    1  0.9399923E-003  0.9890839E+02  0.7546771E-02  0.1418464E+00
          1   -1    0    0  501    0 -0.00000000000E+00  0.00000000000E+00  0.96242298863E+03  0.96242298863E+03  0.00000000000E+00 0. -1.
          2   -1    0    0  502    0  0.00000000000E+00 -0.00000000000E+00 -0.23717261088E+02  0.23717261088E+02  0.00000000000E+00 0. -1.
         25    1    1    2    0    0  0.46664654870E+02  0.71503242461E+02  0.38384640311E+03  0.41261769821E+03  0.12500000000E+03 0.  0.
          2    1    1    2  501    0  0.39258625949E+01  0.30721430414E+02  0.12689644365E+03  0.13062130797E+03  0.00000000000E+00 0. -1.
          1    1    1    2  502    0 -0.50590517465E+02 -0.10222467287E+03  0.42796288078E+03  0.44290124354E+03  0.00000000000E+00 0. -1.
<mgrwt>
<rscale>  0 0.55347241E+02</rscale>
<asrwt>0</asrwt>
<pdfrwt beam="2">  1        2 0.36488101E-02 0.98908391E+02</pdfrwt>
<pdfrwt beam="1">  1        1 0.14806505E+00 0.30971256E+02</pdfrwt>
<totfact> 0.57881546E+03</totfact>
</mgrwt>
</event>
<event>
 5    1  0.9399923E-003  0.2925031E+02  0.7546771E-02  0.1621329E+00
          1   -1    0    0  501    0 -0.00000000000E+00  0.00000000000E+00  0.17907402410E+03  0.17907402410E+03  0.00000000000E+00 0. -1.
          2   -1    0    0  502    0  0.00000000000E+00 -0.00000000000E+00 -0.19233026494E+04  0.19233026494E+04  0.00000000000E+00 0. -1.
         25    1    1    2    0    0 -0.14856014966E+02 -0.41480683556E+00 -0.99714487551E+02  0.16058907893E+03  0.12500000000E+03 0.  0.
          2    1    1    2  501    0  0.33747552886E+01 -0.26586839358E+02  0.14730758204E+03  0.14972565821E+03  0.00000000000E+00 0. -1.
          1    1    1    2  502    0  0.11481259677E+02  0.27001646193E+02 -0.17918217198E+04  0.17920619364E+04  0.00000000000E+00 0. -1.
<mgrwt>
<rscale>  0 0.27998449E+02</rscale>
<asrwt>0</asrwt>
<pdfrwt beam="2">  1        2 0.29589271E+00 0.29250307E+02</pdfrwt>
<pdfrwt beam="1">  1        1 0.27549851E-01 0.26800168E+02</pdfrwt>
<totfact> 0.22534372E+02</totfact>
</mgrwt>
</event>
<event>
 5    1  0.9399923E-003  0.9340264E+02  0.7546771E-02  0.1312054E+00
          2   -1    0    0  502    0  0.00000000000E+00  0.00000000000E+00  0.47233606648E+03  0.47233606648E+03  0.00000000000E+00 0. -1.
          1   -1    0    0  501    0 -0.00000000000E+00 -0.00000000000E+00 -0.26382816739E+04  0.26382816739E+04  0.00000000000E+00 0. -1.
         25    1    1    2    0    0  0.41834252874E+02 -0.16162116989E+02 -0.15355917128E+03  0.20301905778E+03  0.12500000000E+03 0.  0.
          2    1    1    2  501    0 -0.21095193592E+02 -0.76906587012E+02 -0.24542594913E+04  0.24555547807E+04  0.00000000000E+00 0. -1.
          1    1    1    2  502    0 -0.20739059282E+02  0.93068704001E+02  0.44187305524E+03  0.45204390184E+03  0.00000000000E+00 0. -1.
<mgrwt>
<rscale>  0 0.86305317E+02</rscale>
<asrwt>0</asrwt>
<pdfrwt beam="1">  1        2 0.72667088E-01 0.93402643E+02</pdfrwt>
<pdfrwt beam="2">  1        1 0.40588948E+00 0.79747290E+02</pdfrwt>
<totfact> 0.14170521E+01</totfact>
</mgrwt>
</event>
<event>
 5    1  0.9399923E-003  0.1643341E+03  0.7546771E-02  0.1359501E+00
          1   -1    0    0  501    0 -0.00000000000E+00  0.00000000000E+00  0.25580626766E+03  0.25580626766E+03  0.00000000000E+00 0. -1.
          2   -1    0    0  502    0  0.00000000000E+00 -0.00000000000E+00 -0.85432078401E+03  0.85432078401E+03  0.00000000000E+00 0. -1.
         25    1    1    2    0    0  0.78885331747E+02 -0.16302600169E+03 -0.14343912370E+03  0.26267880577E+03  0.12500000000E+03 0.  0.
          2    1    1    2  501    0 -0.50390612322E+02  0.15375185109E+03  0.16240152819E+03  0.22924463327E+03  0.00000000000E+00 0. -1.
          1    1    1    2  502    0 -0.28494719425E+02  0.92741506046E+01 -0.61747692083E+03  0.61820361263E+03  0.00000000000E+00 0. -1.
<mgrwt>
<rscale>  0 0.70174273E+02</rscale>
<asrwt>0</asrwt>
<pdfrwt beam="2">  1        2 0.13143397E+00 0.29965962E+02</pdfrwt>
<pdfrwt beam="1">  1        1 0.39354811E-01 0.16433407E+03</pdfrwt>
<totfact> 0.52072145E+02</totfact>
</mgrwt>
</event>
<event>
 5    1  0.9399923E-003  0.9525870E+02  0.7546771E-02  0.1404088E+00
         -2   -1    0    0    0  501 -0.00000000000E+00  0.00000000000E+00  0.35911243693E+03  0.35911243693E+03  0.00000000000E+00 0.  1.
          2   -1    0    0  502    0  0.00000000000E+00 -0.00000000000E+00 -0.28260386962E+04  0.28260386962E+04  0.00000000000E+00 0. -1.
         25    1    1    2    0    0  0.79518431811E+02  0.10391590178E+03 -0.70759463546E+03  0.73036762235E+03  0.12500000000E+03 0.  0.
          1    1    1    2  502    0 -0.23191200643E+02 -0.27492995212E+02 -0.21004206115E+04  0.21007285502E+04  0.00000000000E+00 0. -1.
         -1    1    1    2    0  501 -0.56327231168E+02 -0.76422906563E+02  0.34108898765E+03  0.35405496059E+03  0.00000000000E+00 0.  1.
<mgrwt>
<rscale>  0 0.58534301E+02</rscale>
<asrwt>0</asrwt>
<pdfrwt beam="2">  1        2 0.43477519E+00 0.35967994E+02</pdfrwt>
<pdfrwt beam="1">  1       -2 0.55248067E-01 0.95258701E+02</pdfrwt>
<totfact> 0.11508729E+01</totfact>
</mgrwt>
</event>
<event>
 5    1  0.9399923E-003  0.1894393E+03  0.7546771E-02  0.1342514E+00
          1   -1    0    0  501    0 -0.00000000000E+00  0.00000000000E+00  0.65313064683E+03  0.65313064683E+03  0.00000000000E+00 0. -1.
          2   -1    0    0  502    0  0.00000000000E+00 -0.00000000000E+00 -0.52138416973E+03  0.52138416973E+03  0.00000000000E+00 0. -1.
         25    1    1    2    0    0 -0.89962431001E+02 -0.14718787110E+03  0.49190559971E+03  0.53605375422E+03  0.12500000000E+03 0.  0.
          2    1    1    2  501    0  0.13490516989E+02 -0.26842839483E+02  0.11912598202E+03  0.12285573520E+03  0.00000000000E+00 0. -1.
          1    1    1    2  502    0  0.76471914012E+02  0.17403071058E+03 -0.47928510463E+03  0.51560532714E+03  0.00000000000E+00 0. -1.
<mgrwt>
<rscale>  0 0.75439838E+02</rscale>
<asrwt>0</asrwt>
<pdfrwt beam="2">  1        2 0.80212949E-01 0.18943934E+03</pdfrwt>
<pdfrwt beam="1">  1        1 0.10048164E+00 0.30042172E+02</pdfrwt>
<totfact> 0.27668150E+02</totfact>
</mgrwt>
</event>
<event>
 5    1  0.9399923E-003  0.4816215E+02  0.7546771E-02  0.1568071E+00
         -2   -1    0    0    0  501 -0.00000000000E+00  0.00000000000E+00  0.12671725198E+02  0.12671725198E+02  0.00000000000E+00 0.  1.
          2   -1    0    0  502    0  0.00000000000E+00 -0.00000000000E+00 -0.17440223277E+04  0.17440223277E+04  0.00000000000E+00 0. -1.
         25    1    1    2    0    0 -0.16348150151E+02 -0.34681008625E+02 -0.61237075103E+03  0.62617327561E+03  0.12500000000E+03 0.  0.
          1    1    1    2  502    0  0.38474230339E+02  0.30732197163E+02 -0.11000046433E+04  0.11011062390E+04  0.00000000000E+00 0. -1.
         -1    1    1    2    0  501 -0.22126080188E+02  0.39488114624E+01 -0.18975208203E+02  0.29414538290E+02  0.00000000000E+00 0.  1.
<mgrwt>
<rscale>  0 0.32901026E+02</rscale>
<asrwt>0</asrwt>
<pdfrwt beam="2">  1        2 0.26831104E+00 0.48162152E+02</pdfrwt>
<pdfrwt beam="1">  1       -2 0.19494968E-02 0.22475688E+02</pdfrwt>
<totfact> 0.66777757E+03</totfact>
</mgrwt>
</event>
<event>
 5    1  0.9399923E-003  0.2492403E+03  0.7546771E-02  0.1357177E+00
          2   -1    0    0  502    0  0.00000000000E+00  0.00000000000E+00  0.11779106201E+04  0.11779106201E+04  0.00000000000E+00 0. -1.
          1   -1    0    0  501    0 -0.00000000000E+00 -0.00000000000E+00 -0.45341492091E+03  0.45341492091E+03  0.00000000000E+00 0. -1.
         25    1    1    2    0    0 -0.49584073537E+02 -0.25577992817E+03  0.45697854573E+03  0.54068136944E+03  0.12500000000E+03 0.  0.
          2    1    1    2  501    0  0.62609595585E+02  0.24040802359E+03 -0.37390217254E+03  0.44890846940E+03  0.00000000000E+00 0. -1.
          1    1    1    2  502    0 -0.13025522049E+02  0.15371904579E+02  0.64141932602E+03  0.64173570219E+03  0.00000000000E+00 0. -1.
<mgrwt>
<rscale>  0 0.70864686E+02</rscale>
<asrwt>0</asrwt>
<pdfrwt beam="1">  1        2 0.18121702E+00 0.20148441E+02</pdfrwt>
<pdfrwt beam="2">  1        1 0.69756142E-01 0.24924031E+03</pdfrwt>
<totfact> 0.17157228E+02</totfact>
</mgrwt>
</event>
<event>
 5    1  0.9399923E-003  0.1509021E+03  0.7546771E-02  0.1296459E+00
          2   -1    0    0  502    0  0.00000000000E+00  0.00000000000E+00  0.76819339309E+03  0.76819339309E+03  0.00000000000E+00 0. -1.
         -2   -1    0    0    0  501 -0.00000000000E+00 -0.00000000000E+00 -0.82798183657E+02  0.82798183657E+02  0.00000000000E+00 0.  1.
         25    1    1    2    0    0  0.14819540483E+03  0.24699506079E+02  0.27767991503E+03  0.33956307047E+03  0.12500000000E+03 0.  0.
          1    1    1    2  502    0 -0.13244709323E+03 -0.79415174598E+02  0.42478656981E+03  0.45198742499E+03  0.00000000000E+00 0. -1.
         -3    1    1    2    0  501 -0.15748311591E+02  0.54715668519E+02 -0.17071275415E+02  0.59441081280E+02  0.00000000000E+00 0.  1.
<mgrwt>
<rscale>  0 0.92692523E+02</rscale>
<asrwt>0</asrwt>
<pdfrwt beam="1">  1        2 0.11818359E+00 0.15090213E+03</pdfrwt>
<pdfrwt beam="2">  1       -2 0.12738183E-01 0.56936927E+02</pdfrwt>
<totfact> 0.15720377E+03</totfact>
</mgrwt>
</event>
<event>
 5    1  0.9399923E-003  0.8847511E+02  0.7546771E-02  0.1389254E+00
          1   -1    0    0  501    0 -0.00000000000E+00  0.00000000000E+00  0.19145238220E+03  0.19145238220E+03  0.00000000000E+00 0. -1.
          2   -1    0    0  502    0  0.00000000000E+00 -0.00000000000E+00 -0.18778202338E+04  0.18778202338E+04  0.00000000000E+00 0. -1.
         25    1    1    2    0    0  0.62846319193E+02  0.37479486556E+01 -0.13084657250E+03  0.19159731859E+03  0.12500000000E+03 0.  0.
          2    1    1    2  501    0 -0.84313088411E+02  0.34175016592E+02  0.14793033575E+03  0.17366638382E+03  0.00000000000E+00 0. -1.
          1    1    1    2  502    0  0.21466769217E+02 -0.37922965248E+02 -0.17034516148E+04  0.17040089136E+04  0.00000000000E+00 0. -1.
<mgrwt>
<rscale>  0 0.62092663E+02</rscale>
<asrwt>0</asrwt>
<pdfrwt beam="2">  1        2 0.28889542E+00 0.43577213E+02</pdfrwt>
<pdfrwt beam="1">  1        1 0.29454213E-01 0.88475114E+02</pdfrwt>
<totfact> 0.21571932E+02</totfact>
</mgrwt>
</event>
<event>
 5    1  0.9399923E-003  0.7316510E+02  0.7546771E-02  0.1424762E+00
         -1   -1    0    0    0  502 -0.00000000000E+00  0.00000000000E+00  0.16581090086E+03  0.16581090086E+03  0.00000000000E+00 0.  1.
         -2   -1    0    0    0  501  0.00000000000E+00 -0.00000000000E+00 -0.14299241757E+03  0.14299241757E+03  0.00000000000E+00 0.  1.
         25    1    1    2    0    0  0.10093802750E+03  0.29662295072E+02  0.56146168235E+02  0.17275916576E+03  0.12500000000E+03 0.  0.
         -2    1    1    2    0  502 -0.32359243427E+02 -0.23331477210E+02  0.23896000575E+02  0.46502659144E+02  0.00000000000E+00 0.  1.
         -1    1    1    2    0  501 -0.68578784076E+02 -0.63308178620E+01 -0.57223685522E+02  0.89541493537E+02  0.00000000000E+00 0.  1.
<mgrwt>
<rscale>  0 0.54025921E+02</rscale>
<asrwt>0</asrwt>
<pdfrwt beam="2">  1       -2 0.21998833E-01 0.73165101E+02</pdfrwt>
<pdfrwt beam="1">  1       -1 0.25509369E-01 0.39893339E+02</pdfrwt>
<totfact> 0.16170762E+03</totfact>
</mgrwt>
</event>
<event>
 5    1  0.9399923E-003  0.5325331E+02  0.7546771E-02  0.1526801E+00
          1   -1    0    0  502    0  0.00000000000E+00  0.00000000000E+00  0.15721037422E+03  0.15721037422E+03  0.00000000000E+00 0. -1.
         -1   -1    0    0    0  501 -0.00000000000E+00 -0.00000000000E+00 -0.10032229249E+04  0.10032229249E+04  0.00000000000E+00 0.  1.
         25    1    1    2    0    0 -0.39115215824E+02  0.46315173198E+02 -0.11585718852E+02  0.13940704523E+03  0.12500000000E+03 0.  0.
          2    1    1    2  502    0 -0.95546386034E+01 -0.24741223501E+02  0.90633970788E+02  0.94434823662E+02  0.00000000000E+00 0. -1.
         -2    1    1    2    0  501  0.48669854427E+02 -0.21573949697E+02 -0.92506080264E+03  0.92659143025E+03  0.00000000000E+00 0.  1.
<mgrwt>
<rscale>  0 0.37581740E+02</rscale>
<asrwt>0</asrwt>
<pdfrwt beam="1">  1        1 0.24186212E-01 0.26522052E+02</pdfrwt>
<pdfrwt beam="2">  1       -1 0.15434198E+00 0.53253314E+02</pdfrwt>
<totfact> 0.73440606E+01</totfact>
</mgrwt>
</event>
<event>
 5    1  0.9399923E-003  0.6965882E+02  0.7546771E-02  0.1383957E+00
          2   -1    0    0  502    0  0.00000000000E+00  0.00000000000E+00  0.18664536777E+04  0.18664536777E+04  0.00000000000E+00 0. -1.
         -2   -1    0    0    0  501 -0.00000000000E+00 -0.00000000000E+00 -0.13659822174E+02  0.13659822174E+02  0.00000000000E+00 0.  1.
         25    1    1    2    0    0  0.49058866571E+01  0.11241836615E+02  0.56510564484E+03  0.57889535881E+03  0.12500000000E+03 0.  0.
          1    1    1    2  502    0  0.36057918670E+02  0.59600147050E+02  0.99117783845E+03  0.99362259357E+03  0.00000000000E+00 0. -1.
         -1    1    1    2    0  501 -0.40963805327E+02 -0.70841983665E+02  0.29651037225E+03  0.30759554751E+03  0.00000000000E+00 0.  1.
<mgrwt>
<rscale>  0 0.63434897E+02</rscale>
<asrwt>0</asrwt>
<pdfrwt beam="1">  1        2 0.28714652E+00 0.69658819E+02</pdfrwt>
<pdfrwt beam="2">  1       -2 0.21015126E-02 0.57767075E+02</pdfrwt>
<totfact> 0.59222975E+03</totfact>
</mgrwt>
</event>
<event>
 5    1  0.9399923E-003  0.5666693E+02  0.7546771E-02  0.1516728E+00
          1   -1    0    0  501    0 -0.00000000000E+00  0.00000000000E+00  0.13263761328E+03  0.13263761328E+03  0.00000000000E+00 0. -1.
          2   -1    0    0  502    0  0.00000000000E+00 -0.00000000000E+00 -0.45076070710E+04  0.45076070710E+04  0.00000000000E+00 0. -1.
         25    1    1    2    0    0 -0.79470687543E+02 -0.39327854775E+01 -0.78915804914E+03  0.80294861822E+03  0.12500000000E+03 0.  0.
          2    1    1    2  501    0  0.25023422863E+02 -0.91873218405E+01  0.12411582671E+03  0.12694611855E+03  0.00000000000E+00 0. -1.
          1    1    1    2  502    0  0.54447264680E+02  0.13120107318E+02 -0.37099272352E+04  0.37103499475E+04  0.00000000000E+00 0. -1.
<mgrwt>
<rscale>  0 0.38865824E+02</rscale>
<asrwt>0</asrwt>
<pdfrwt beam="2">  1        2 0.69347803E+00 0.56666933E+02</pdfrwt>
<pdfrwt beam="1">  1        1 0.20405786E-01 0.26656680E+02</pdfrwt>
<totfact> 0.76249616E+00</totfact>
</mgrwt>
</event>
<event>
 5    1  0.9399923E-003  0.5234942E+02  0.7546771E-02  0.1458005E+00
          2   -1    0    0  502    0  0.00000000000E+00  0.00000000000E+00  0.61072083212E+03  0.61072083212E+03  0.00000000000E+00 0. -1.
          3   -1    0    0  501    0 -0.00000000000E+00 -0.00000000000E+00 -0.21791232902E+03  0.21791232902E+03  0.00000000000E+00 0. -1.
         25    1    1    2    0    0 -0.72656426096E+02  0.21500858650E+01  0.22691182088E+02  0.14636758134E+03  0.12500000000E+03 0.  0.
          2    1    1    2  501    0  0.42800007622E+02  0.29502097229E+02 -0.15081339423E+03  0.15952082708E+03  0.00000000000E+00 0. -1.
          1    1    1    2  502    0  0.29856418474E+02 -0.31652183094E+02  0.52093071524E+03  0.52274475273E+03  0.00000000000E+00 0. -1.
<mgrwt>
<rscale>  0 0.47726421E+02</rscale>
<asrwt>0</asrwt>
<pdfrwt beam="1">  1        2 0.93957050E-01 0.43511681E+02</pdfrwt>
<pdfrwt beam="2">  1        3 0.33524974E-01 0.52349419E+02</pdfrwt>
<totfact> 0.25263226E+02</totfact>
</mgrwt>
</event>
<event>
 5    1  0.9399923E-003  0.1029094E+03  0.7546771E-02  0.1355075E+00
          2   -1    0    0  502    0  0.00000000000E+00  0.00000000000E+00  0.69654383187E+03  0.69654383187E+03  0.00000000000E+00 0. -1.
          1   -1    0    0  501    0 -0.00000000000E+00 -0.00000000000E+00 -0.65720583149E+03  0.65720583149E+03  0.00000000000E+00 0. -1.
         25    1    1    2    0    0 -0.78519814039E+02  0.11773691428E+03  0.49772967659E+03  0.53234121872E+03  0.12500000000E+03 0.  0.
          2    1    1    2  501    0  0.33351846460E+02 -0.97066224630E+02 -0.63228422309E+03  0.64056033002E+03  0.00000000000E+00 0. -1.
          1    1    1    2  502    0  0.45167967579E+02 -0.20670689651E+02  0.17389254687E+03  0.18084811462E+03  0.00000000000E+00 0. -1.
<mgrwt>
<rscale>  0 0.71497111E+02</rscale>
<asrwt>0</asrwt>
<pdfrwt beam="1">  1        2 0.10716059E+00 0.49673159E+02</pdfrwt>
<pdfrwt beam="2">  1        1 0.10110859E+00 0.10290944E+03</pdfrwt>
<totfact> 0.19494043E+02</totfact>
</mgrwt>
</event>
<event>
 5    1  0.9399923E-003  0.5179031E+02  0.7546771E-02  0.1472531E+00
         -2   -1    0    0    0  501 -0.00000000000E+00  0.00000000000E+00  0.18978338923E+02  0.18978338923E+02  0.00000000000E+00 0.  1.
          2   -1    0    0  502    0  0.00000000000E+00 -0.00000000000E+00 -0.20295871601E+04  0.20295871601E+04  0.00000000000E+00 0. -1.
         25    1    1    2    0    0  0.35758387017E+02 -0.28786575769E+02 -0.44456751166E+03  0.46408253750E+03  0.12500000000E+03 0.  0.
          1    1    1    2  502    0 -0.40752465342E+01  0.52555700771E+02 -0.15300722382E+04  0.15309800010E+04  0.00000000000E+00 0. -1.
         -1    1    1    2    0  501 -0.31683140483E+02 -0.23769125002E+02 -0.35969071304E+02  0.53502960523E+02  0.00000000000E+00 0.  1.
<mgrwt>
<rscale>  0 0.45291390E+02</rscale>
<asrwt>0</asrwt>
<pdfrwt beam="2">  1        2 0.31224399E+00 0.51790311E+02</pdfrwt>
<pdfrwt beam="1">  1       -2 0.29197462E-02 0.39607988E+02</pdfrwt>
<totfact> 0.30197354E+03</totfact>
</mgrwt>
</event>
<event>
 5    1  0.9399923E-003  0.4381602E+02  0.7546771E-02  0.1557580E+00
          2   -1    0    0  502    0  0.00000000000E+00  0.00000000000E+00  0.40093591505E+03  0.40093591505E+03  0.00000000000E+00 0. -1.
         -2   -1    0    0    0  501 -0.00000000000E+00 -0.00000000000E+00 -0.44355137466E+02  0.44355137466E+02  0.00000000000E+00 0.  1.
         25    1    1    2    0    0 -0.30374876777E+02 -0.48496104786E+02  0.24637029762E+03  0.28213087188E+03  0.12500000000E+03 0.  0.
          1    1    1    2  502    0 -0.63274495766E+01  0.25627651556E+02  0.11650732466E+03  0.11946032748E+03  0.00000000000E+00 0. -1.
         -1    1    1    2    0  501  0.36702326353E+02  0.22868453231E+02 -0.62968446927E+01  0.43699853158E+02  0.00000000000E+00 0.  1.
<mgrwt>
<rscale>  0 0.34009131E+02</rscale>
<asrwt>0</asrwt>
<pdfrwt beam="1">  1        2 0.61682446E-01 0.26397218E+02</pdfrwt>
<pdfrwt beam="2">  1       -2 0.68238676E-02 0.43816019E+02</pdfrwt>
<totfact> 0.83303835E+03</totfact>
</mgrwt>
</event>
<event>
 5    1  0.9399923E-003  0.5529644E+02  0.7546771E-02  0.1494860E+00
          1   -1    0    0  502    0  0.00000000000E+00  0.00000000000E+00  0.37384549378E+03  0.37384549378E+03  0.00000000000E+00 0. -1.
         -1   -1    0    0    0  501 -0.00000000000E+00 -0.00000000000E+00 -0.36642616799E+02  0.36642616799E+02  0.00000000000E+00 0.  1.
         25    1    1    2    0    0 -0.48613471133E+02 -0.70412638133E+01  0.18051085470E+03  0.22499337242E+03  0.12500000000E+03 0.  0.
          2    1    1    2  502    0  0.53508305944E+02 -0.24287569112E+02  0.13454432478E+03  0.14681689327E+03  0.00000000000E+00 0.  1.
         -2    1    1    2    0  501 -0.48948348112E+01  0.31328832926E+02  0.22147697504E+02  0.38677844886E+02  0.00000000000E+00 0. -1.
<mgrwt>
<rscale>  0 0.41873502E+02</rscale>
<asrwt>0</asrwt>
<pdfrwt beam="1">  1        1 0.57514689E-01 0.55296444E+02</pdfrwt>
<pdfrwt beam="2">  1       -1 0.56373259E-02 0.31708913E+02</pdfrwt>
<totfact> 0.80315002E+03</totfact>
</mgrwt>
</event>
<event>
 5    1  0.9399923E-003  0.1776724E+03  0.7546771E-02  0.1270539E+00
          2   -1    0    0  502    0  0.00000000000E+00  0.00000000000E+00  0.10275891858E+04  0.10275891858E+04  0.00000000000E+00 0. -1.
          1   -1    0    0  501    0 -0.00000000000E+00 -0.00000000000E+00 -0.93612951447E+03  0.93612951447E+03  0.00000000000E+00 0. -1.
         25    1    1    2    0    0  0.11859344953E+03  0.13634839103E+03 -0.39690644279E+02  0.22328375948E+03  0.12500000000E+03 0.  0.
          2    1    1    2  501    0  0.36948139631E+02 -0.49540189666E+02 -0.79495564581E+03  0.79735429654E+03  0.00000000000E+00 0. -1.
          1    1    1    2  502    0 -0.15554158916E+03 -0.86808201360E+02  0.92610596139E+03  0.94308064422E+03  0.00000000000E+00 0. -1.
<mgrwt>
<rscale>  0 0.10478729E+03</rscale>
<asrwt>0</asrwt>
<pdfrwt beam="1">  1        2 0.15809064E+00 0.17767239E+03</pdfrwt>
<pdfrwt beam="2">  1        1 0.14401993E+00 0.61801257E+02</pdfrwt>
<totfact> 0.69277530E+01</totfact>
</mgrwt>
</event>
<event>
 5    1  0.9399923E-003  0.1260120E+03  0.7546771E-02  0.1245151E+00
          1   -1    0    0  501    0 -0.00000000000E+00  0.00000000000E+00  0.29010154522E+03  0.29010154522E+03  0.00000000000E+00 0. -1.
          2   -1    0    0  502    0  0.00000000000E+00 -0.00000000000E+00 -0.89124068741E+03  0.89124068741E+03  0.00000000000E+00 0. -1.
         25    1    1    2    0    0  0.15504889065E+03 -0.22129229859E+01  0.11718436291E+03  0.23108922612E+03  0.12500000000E+03 0.  0.
          2    1    1    2  501    0 -0.67640434941E+02 -0.89182774464E+02  0.82787578366E+02  0.13922133038E+03  0.00000000000E+00 0. -1.
          1    1    1    2  502    0 -0.87408455712E+02  0.91395697450E+02 -0.80111108346E+03  0.81103167613E+03  0.00000000000E+00 0. -1.
<mgrwt>
<rscale>  0 0.11876358E+03</rscale>
<asrwt>0</asrwt>
<pdfrwt beam="2">  1        2 0.13711395E+00 0.12601199E+03</pdfrwt>
<pdfrwt beam="1">  1        1 0.44631007E-01 0.11193210E+03</pdfrwt>
<totfact> 0.39721236E+02</totfact>
</mgrwt>
</event>
<event>
 5    1  0.9399923E-003  0.5360306E+02  0.7546771E-02  0.1443152E+00
          1   -1    0    0  501    0 -0.00000000000E+00  0.00000000000E+00  0.13706400163E+04  0.13706400163E+04  0.00000000000E+00 0. -1.
          2   -1    0    0  502    0  0.00000000000E+00 -0.00000000000E+00 -0.55040752425E+03  0.55040752425E+03  0.00000000000E+00 0. -1.
         25    1    1    2    0    0  0.11195864201E+02 -0.99094588853E+01 -0.26643634360E+03  0.29468096298E+03  0.12500000000E+03 0.  0.
          2    1    1    2  501    0 -0.51573152072E+02 -0.14925685007E+02  0.13538997095E+04  0.13549638332E+04  0.00000000000E+00 0. -1.
          1    1    1    2  502    0  0.40377287872E+02  0.24835143892E+02 -0.26723087379E+03  0.27140274438E+03  0.00000000000E+00 0. -1.
<mgrwt>
<rscale>  0 0.50408160E+02</rscale>
<asrwt>0</asrwt>
<pdfrwt beam="2">  1        2 0.84678081E-01 0.47403689E+02</pdfrwt>
<pdfrwt beam="1">  1        1 0.21086769E+00 0.53603056E+02</pdfrwt>
<totfact> 0.79530340E+01</totfact>
</mgrwt>
</event>
<event>
 5    1  0.9399923E-003  0.5741907E+02  0.7546771E-02  0.1471276E+00
          1   -1    0    0  501    0 -0.00000000000E+00  0.00000000000E+00  0.12001933807E+04  0.12001933807E+04  0.00000000000E+00 0. -1.
          2   -1    0    0  502    0  0.00000000000E+00 -0.00000000000E+00 -0.13321633405E+04  0.13321633405E+04  0.00000000000E+00 0. -1.
         25    1    1    2    0    0 -0.63590803293E+02 -0.55189649816E+02  0.71723077128E+03  0.73289471753E+03  0.12500000000E+03 0.  0.
          2    1    1    2  501    0  0.29349464900E+02  0.43924257446E+02  0.47341591291E+03  0.47635423592E+03  0.00000000000E+00 0. -1.
          1    1    1    2  502    0  0.34241338393E+02  0.11265392370E+02 -0.13226166439E+04  0.13231077678E+04  0.00000000000E+00 0. -1.
<mgrwt>
<rscale>  0 0.45494822E+02</rscale>
<asrwt>0</asrwt>
<pdfrwt beam="2">  1        2 0.20494821E+00 0.36046891E+02</pdfrwt>
<pdfrwt beam="1">  1        1 0.18464514E+00 0.57419067E+02</pdfrwt>
<totfact> 0.34589455E+01</totfact>
</mgrwt>
</event>
<event>
 5    1  0.9399923E-003  0.1233278E+03  0.7546771E-02  0.1303413E+00
          2   -1    0    0  502    0  0.00000000000E+00  0.00000000000E+00  0.49664772871E+03  0.49664772871E+03  0.00000000000E+00 0. -1.
          1   -1    0    0  501    0 -0.00000000000E+00 -0.00000000000E+00 -0.93850853633E+03  0.93850853633E+03  0.00000000000E+00 0. -1.
         25    1    1    2    0    0  0.68172854748E+02 -0.85204567929E+02  0.11734020205E+03  0.20322667034E+03  0.12500000000E+03 0.  0.
          2    1    1    2  501    0  0.53755470907E+02  0.37146519871E+02 -0.88154410894E+03  0.88396240339E+03  0.00000000000E+00 0. -1.
          3    1    1    2  502    0 -0.12192832566E+03  0.48058048059E+02  0.32234309927E+03  0.34796719131E+03  0.00000000000E+00 0. -1.
<mgrwt>
<rscale>  0 0.89768725E+02</rscale>
<asrwt>0</asrwt>
<pdfrwt beam="1">  1        2 0.76407344E-01 0.12332776E+03</pdfrwt>
<pdfrwt beam="2">  1        1 0.14438593E+00 0.65341523E+02</pdfrwt>
<totfact> 0.16847857E+02</totfact>
</mgrwt>
</event>
<event>
 5    1  0.9399923E-003  0.1108890E+03  0.7546771E-02  0.1421302E+00
          1   -1    0    0  501    0 -0.00000000000E+00  0.00000000000E+00  0.58821655665E+03  0.58821655665E+03  0.00000000000E+00 0. -1.
          2   -1    0    0  502    0  0.00000000000E+00 -0.00000000000E+00 -0.61093413961E+03  0.61093413961E+03  0.00000000000E+00 0. -1.
         25    1    1    2    0    0 -0.73128360367E+02  0.60125236676E+02 -0.32353585623E+03  0.35953198945E+03  0.12500000000E+03 0.  0.
          2    1    1    2  501    0  0.98659675174E+02 -0.51254431933E+02  0.56410073733E+03  0.57495251121E+03  0.00000000000E+00 0. -1.
          1    1    1    2  502    0 -0.25531314807E+02 -0.88708047431E+01 -0.26328246406E+03  0.26466619560E+03  0.00000000000E+00 0. -1.
<mgrwt>
<rscale>  0 0.54746336E+02</rscale>
<asrwt>0</asrwt>
<pdfrwt beam="2">  1        2 0.93989868E-01 0.27028489E+02</pdfrwt>
<pdfrwt beam="1">  1        1 0.90494854E-01 0.11088897E+03</pdfrwt>
<totfact> 0.26504825E+02</totfact>
</mgrwt>
</event>
<event>
 5    1  0.9399923E-003  0.8383932E+02  0.7546771E-02  0.1398869E+00
          1   -1    0    0  501    0 -0.00000000000E+00  0.00000000000E+00  0.35344655333E+03  0.35344655333E+03  0.00000000000E+00 0. -1.
          2   -1    0    0  502    0  0.00000000000E+00 -0.00000000000E+00 -0.12834801680E+04  0.12834801680E+04  0.00000000000E+00 0. -1.
         25    1    1    2    0    0  0.51705688584E+02  0.43888358231E+01 -0.12593953754E+03  0.18487430116E+03  0.12500000000E+03 0.  0.
          2    1    1    2  501    0  0.30190541963E+02 -0.30036814305E+02  0.32093833881E+03  0.32375159668E+03  0.00000000000E+00 0. -1.
          1    1    1    2  502    0 -0.81896230547E+02  0.25647978482E+02 -0.11250324160E+04  0.11283008235E+04  0.00000000000E+00 0. -1.
<mgrwt>
<rscale>  0 0.59753586E+02</rscale>
<asrwt>0</asrwt>
<pdfrwt beam="2">  1        2 0.19745849E+00 0.83839317E+02</pdfrwt>
<pdfrwt beam="1">  1        1 0.54376393E-01 0.42587311E+02</pdfrwt>
<totfact> 0.19101958E+02</totfact>
</mgrwt>
</event>
<event>
 5    1  0.9399923E-003  0.1228215E+03  0.7546771E-02  0.1408719E+00
          2   -1    0    0  502    0  0.00000000000E+00  0.00000000000E+00  0.20363604681E+04  0.20363604681E+04  0.00000000000E+00 0. -1.
          1   -1    0    0  501    0 -0.00000000000E+00 -0.00000000000E+00 -0.49172294554E+03  0.49172294554E+03  0.00000000000E+00 0. -1.
         25    1    1    2    0    0 -0.42973464769E+02 -0.11946695969E+03  0.53108513043E+03  0.56017451646E+03  0.12500000000E+03 0.  0.
          2    1    1    2  501    0 -0.21948912699E+02  0.15553571234E+02 -0.47427874805E+03  0.47504105002E+03  0.00000000000E+00 0. -1.
          1    1    1    2  502    0  0.64922377468E+02  0.10391338845E+03  0.14878311402E+04  0.14928678471E+04  0.00000000000E+00 0. -1.
<mgrwt>
<rscale>  0 0.57480709E+02</rscale>
<asrwt>0</asrwt>
<pdfrwt beam="1">  1        2 0.31328622E+00 0.12282151E+03</pdfrwt>
<pdfrwt beam="2">  1        1 0.75649685E-01 0.26901084E+02</pdfrwt>
<totfact> 0.51497320E+01</totfact>
</mgrwt>
</event>
<event>
 5    1  0.9399923E-003  0.5795943E+02  0.7546771E-02  0.1455181E+00
          1   -1    0    0  501    0 -0.00000000000E+00  0.00000000000E+00  0.15108511807E+04  0.15108511807E+04  0.00000000000E+00 0. -1.
          2   -1    0    0  502    0  0.00000000000E+00 -0.00000000000E+00 -0.14376499127E+03  0.14376499127E+03  0.00000000000E+00 0. -1.
         25    1    1    2    0    0 -0.19515360956E+02  0.93656284822E+02 -0.18720926778E+01  0.15741935628E+03  0.12500000000E+03 0.  0.
          2    1    1    2  501    0  0.21391130566E+02 -0.53581647977E+02  0.14261613005E+04  0.14273277929E+04  0.00000000000E+00 0. -1.
          1    1    1    2  502    0 -0.18757696099E+01 -0.40074636845E+02 -0.57203018383E+02  0.69869022764E+02  0.00000000000E+00 0. -1.
<mgrwt>
<rscale>  0 0.48220805E+02</rscale>
<asrwt>0</asrwt>
<pdfrwt beam="2">  1        2 0.22117692E-01 0.40118512E+02</pdfrwt>
<pdfrwt beam="1">  1        1 0.23243863E+00 0.57959429E+02</pdfrwt>
<totfact> 0.25739160E+02</totfact>
</mgrwt>
</event>
<event>
 5    1  0.9399923E-003  0.7946746E+02  0.7546771E-02  0.1478422E+00
          2   -1    0    0  502    0  0.00000000000E+00  0.00000000000E+00  0.68447686007E+03  0.68447686007E+03  0.00000000000E+00 0. -1.
          1   -1    0    0  501    0 -0.00000000000E+00 -0.00000000000E+00 -0.13140416172E+04  0.13140416172E+04  0.00000000000E+00 0. -1.
         25    1    1    2    0    0 -0.15389326744E+02  0.73859820812E+02 -0.16413982917E+03  0.21967928448E+03  0.12500000000E+03 0.  0.
          2    1    1    2  501    0  0.39716156260E+02 -0.69277787358E+02 -0.11204772922E+04  0.11233192544E+04  0.00000000000E+00 0. -1.
          1    1    1    2  502    0 -0.24326829516E+02 -0.45820334537E+01  0.65505236429E+03  0.65551993839E+03  0.00000000000E+00 0. -1.
<mgrwt>
<rscale>  0 0.44352951E+02</rscale>
<asrwt>0</asrwt>
<pdfrwt beam="1">  1        2 0.10530413E+00 0.24754589E+02</pdfrwt>
<pdfrwt beam="2">  1        1 0.20216025E+00 0.79467460E+02</pdfrwt>
<totfact> 0.66989876E+01</totfact>
</mgrwt>
</event>
<event>
 5    1  0.9399923E-003  0.7123914E+02  0.7546771E-02  0.1500863E+00
          2   -1    0    0  502    0  0.00000000000E+00  0.00000000000E+00  0.26736686547E+03  0.26736686547E+03  0.00000000000E+00 0. -1.
         -2   -1    0    0    0  501 -0.00000000000E+00 -0.00000000000E+00 -0.78493585427E+02  0.78493585427E+02  0.00000000000E+00 0.  1.
         25    1    1    2    0    0 -0.27677069844E+02  0.61277529379E+02  0.13350781600E+03  0.19485967447E+03  0.12500000000E+03 0.  0.
          1    1    1    2  502    0 -0.22026373656E+02 -0.85162098772E+01  0.72726789340E+02  0.76464847183E+02  0.00000000000E+00 0. -1.
         -1    1    1    2    0  501  0.49703443500E+02 -0.52761319502E+02 -0.17361325301E+02  0.74535929239E+02  0.00000000000E+00 0.  1.
<mgrwt>
<rscale>  0 0.41016344E+02</rscale>
<asrwt>0</asrwt>
<pdfrwt beam="1">  1        2 0.41133364E-01 0.23615397E+02</pdfrwt>
<pdfrwt beam="2">  1       -2 0.12075936E-01 0.71239136E+02</pdfrwt>
<totfact> 0.54236105E+03</totfact>
</mgrwt>
</event>
<event>
 5    1  0.9399923E-003  0.2717049E+02  0.7546771E-02  0.1673319E+00
          1   -1    0    0  501    0 -0.00000000000E+00  0.00000000000E+00  0.92511214922E+03  0.92511214922E+03  0.00000000000E+00 0. -1.
          2   -1    0    0  502    0  0.00000000000E+00 -0.00000000000E+00 -0.13638692161E+03  0.13638692161E+03  0.00000000000E+00 0. -1.
         25    1    1    2    0    0  0.18065769997E+02 -0.37308305124E+02  0.10618235508E+03  0.16916847877E+03  0.12500000000E+03 0.  0.
          2    1    1    2  501    0  0.83616260826E+00  0.27086326639E+02  0.78610022913E+03  0.78656718626E+03  0.00000000000E+00 0. -1.
          3    1    1    2  502    0 -0.18901932605E+02  0.10221978485E+02 -0.10355735660E+03  0.10576340580E+03  0.00000000000E+00 0. -1.
<mgrwt>
<rscale>  0 0.24163267E+02</rscale>
<asrwt>0</asrwt>
<pdfrwt beam="2">  1        2 0.20982604E-01 0.21488879E+02</pdfrwt>
<pdfrwt beam="1">  1        1 0.14232494E+00 0.27170494E+02</pdfrwt>
<totfact> 0.67643226E+02</totfact>
</mgrwt>
</event>
<event>
 5    1  0.9399923E-003  0.2830148E+03  0.7546771E-02  0.1270969E+00
          2   -1    0    0  502    0  0.00000000000E+00  0.00000000000E+00  0.15204816168E+04  0.15204816168E+04  0.00000000000E+00 0. -1.
          1   -1    0    0  501    0 -0.00000000000E+00 -0.00000000000E+00 -0.14144052881E+04  0.14144052881E+04  0.00000000000E+00 0. -1.
         25    1    1    2    0    0  0.16051534868E+03  0.27595564524E+03  0.11390889902E+04  0.11895652243E+04  0.12500000000E+03 0.  0.
          2    1    1    2  501    0 -0.15184703955E+03 -0.23830350120E+03 -0.13736944837E+04  0.14024559233E+04  0.00000000000E+00 0. -1.
          1    1    1    2  502    0 -0.86683091355E+01 -0.37652144036E+02  0.34068182222E+03  0.34286575730E+03  0.00000000000E+00 0. -1.
<mgrwt>
<rscale>  0 0.10456989E+03</rscale>
<asrwt>0</asrwt>
<pdfrwt beam="1">  1        2 0.23392025E+00 0.38637075E+02</pdfrwt>
<pdfrwt beam="2">  1        1 0.21760081E+00 0.28301477E+03</pdfrwt>
<totfact> 0.17557973E+01</totfact>
</mgrwt>
</event>
<event>
 5    1  0.9399923E-003  0.2815715E+03  0.7546771E-02  0.1220851E+00
         -2   -1    0    0    0  501 -0.00000000000E+00  0.00000000000E+00  0.43693396113E+03  0.43693396113E+03  0.00000000000E+00 0.  1.
          2   -1    0    0  502    0  0.00000000000E+00 -0.00000000000E+00 -0.13330315585E+04  0.13330315585E+04  0.00000000000E+00 0. -1.
         25    1    1    2    0    0 -0.68219298385E+02  0.22374142783E+03 -0.69494027789E+03  0.74382866914E+03  0.12500000000E+03 0.  0.
          1    1    1    2  502    0 -0.55031943699E+02  0.33253848676E+02 -0.56235943259E+03  0.56602337823E+03  0.00000000000E+00 0. -1.
         -1    1    1    2    0  501  0.12325124208E+03 -0.25699527651E+03  0.36120211313E+03  0.46011347225E+03  0.00000000000E+00 0.  1.
<mgrwt>
<rscale>  0 0.13455371E+03</rscale>
<asrwt>0</asrwt>
<pdfrwt beam="2">  1        2 0.20508178E+00 0.64298781E+02</pdfrwt>
<pdfrwt beam="1">  1       -2 0.67220609E-01 0.28157147E+03</pdfrwt>
<totfact> 0.39307208E+01</totfact>
</mgrwt>
</event>
<event>
 5    1  0.9399923E-003  0.1530340E+03  0.7546771E-02  0.1239633E+00
         -1   -1    0    0    0  502 -0.00000000000E+00  0.00000000000E+00  0.19885347843E+03  0.19885347843E+03  0.00000000000E+00 0.  1.
         -2   -1    0    0    0  501  0.00000000000E+00 -0.00000000000E+00 -0.44987741046E+03  0.44987741046E+03  0.00000000000E+00 0.  1.
         25    1    1    2    0    0 -0.39138306729E+02 -0.34595799814E+02  0.20675677201E+02  0.13704437254E+03  0.12500000000E+03 0.  0.
         -2    1    1    2    0  502  0.17699527027E+03 -0.31848720760E+02  0.21334103818E+02  0.18109889756E+03  0.00000000000E+00 0.  1.
         -1    1    1    2    0  501 -0.13785696354E+03  0.66444520574E+02 -0.29303371305E+03  0.33058761878E+03  0.00000000000E+00 0.  1.
<mgrwt>
<rscale>  0 0.12212425E+03</rscale>
<asrwt>0</asrwt>
<pdfrwt beam="2">  1       -2 0.69211910E-01 0.15303404E+03</pdfrwt>
<pdfrwt beam="1">  1       -1 0.30592843E-01 0.97457622E+02</pdfrwt>
<totfact> 0.14323654E+02</totfact>
</mgrwt>
</event>
<event>
 5    1  0.9399923E-003  0.4043383E+02  0.7546771E-02  0.1528629E+00
          1   -1    0    0  501    0 -0.00000000000E+00  0.00000000000E+00  0.19108211147E+03  0.19108211147E+03  0.00000000000E+00 0. -1.
          2   -1    0    0  502    0  0.00000000000E+00 -0.00000000000E+00 -0.12015742044E+03  0.12015742044E+03  0.00000000000E+00 0. -1.
         25    1    1    2    0    0 -0.35225227196E+02  0.13925147888E+02 -0.44906359380E+02  0.13811700651E+03  0.12500000000E+03 0.  0.
          2    1    1    2  501    0  0.19172611821E+02  0.28695011948E+02  0.12234214157E+03  0.12711645196E+03  0.00000000000E+00 0. -1.
          1    1    1    2  502    0  0.16052615374E+02 -0.42620159835E+02 -0.65110911586E+01  0.46006073434E+02  0.00000000000E+00 0. -1.
<mgrwt>
<rscale>  0 0.37355083E+02</rscale>
<asrwt>0</asrwt>
<pdfrwt beam="2">  1        2 0.18485757E-01 0.40433827E+02</pdfrwt>
<pdfrwt beam="1">  1        1 0.29397248E-01 0.34510763E+02</pdfrwt>
<totfact> 0.56645974E+03</totfact>
</mgrwt>
</event>
<event>
 5    1  0.9399923E-003  0.7003485E+02  0.7546771E-02  0.1440076E+00
          1   -1    0    0  501    0 -0.00000000000E+00  0.00000000000E+00  0.10486493916E+04  0.10486493916E+04  0.00000000000E+00 0. -1.
          2   -1    0    0  502    0  0.00000000000E+00 -0.00000000000E+00 -0.10919174414E+03  0.10919174414E+03  0.00000000000E+00 0. -1.
         25    1    1    2    0    0 -0.22567557798E+02 -0.43629215641E+02 -0.65422070868E+01  0.13446413498E+03  0.12500000000E+03 0.  0.
          2    1    1    2  501    0 -0.23095689968E+02 -0.29064409215E+02  0.93624282292E+03  0.93697853457E+03  0.00000000000E+00 0. -1.
          1    1    1    2  502    0  0.45663247766E+02  0.72693624856E+02  0.97570316089E+01  0.86398466173E+02  0.00000000000E+00 0. -1.
<mgrwt>
<rscale>  0 0.50989561E+02</rscale>
<asrwt>0</asrwt>
<pdfrwt beam="2">  1        2 0.16798731E-01 0.70034846E+02</pdfrwt>
<pdfrwt beam="1">  1        1 0.16133067E+00 0.37123453E+02</pdfrwt>
<totfact> 0.73854719E+02</totfact>
</mgrwt>
</event>
<event>
 5    1  0.9399923E-003  0.1198984E+03  0.7546771E-02  0.1374972E+00
          2   -1    0    0  502    0  0.00000000000E+00  0.00000000000E+00  0.19762567350E+04  0.19762567350E+04  0.00000000000E+00 0. -1.
          1   -1    0    0  501    0 -0.00000000000E+00 -0.00000000000E+00 -0.43060428472E+03  0.43060428472E+03  0.00000000000E+00 0. -1.
         25    1    1    2    0    0 -0.49824075035E+02 -0.83500949639E+02 -0.13426038936E+03  0.20761912050E+03  0.12500000000E+03 0.  0.
          2    1    1    2  501    0 -0.36111889159E+02 -0.51292643683E+00 -0.25653679701E+03  0.25906651627E+03  0.00000000000E+00 0. -1.
          1    1    1    2  502    0  0.85935964193E+02  0.84013876076E+02  0.19364496367E+04  0.19401753830E+04  0.00000000000E+00 0. -1.
<mgrwt>
<rscale>  0 0.65804222E+02</rscale>
<asrwt>0</asrwt>
<pdfrwt beam="1">  1        2 0.30403949E+00 0.11989843E+03</pdfrwt>
<pdfrwt beam="2">  1        1 0.66246814E-01 0.36115532E+02</pdfrwt>
<totfact> 0.64744038E+01</totfact>
</mgrwt>
</event>
<event>
 5    1  0.9399923E-003  0.5973986E+02  0.7546771E-02  0.1466396E+00
          2   -1    0    0  502    0  0.00000000000E+00  0.00000000000E+00  0.13720918180E+03  0.13720918180E+03  0.00000000000E+00 0. -1.
          1   -1    0    0  501    0 -0.00000000000E+00 -0.00000000000E+00 -0.31365851370E+03  0.31365851370E+03  0.00000000000E+00 0. -1.
         25    1    1    2    0    0  0.37960919111E+01 -0.32656569449E+02 -0.78695362061E+02  0.15132356674E+03  0.12500000000E+03 0.  0.
          2    1    1    2  501    0 -0.24688589228E+02 -0.26036755266E+02 -0.18716222564E+03  0.19057055850E+03  0.00000000000E+00 0. -1.
          1    1    1    2  502    0  0.20892497317E+02  0.58693324715E+02  0.89408255797E+02  0.10897357026E+03  0.00000000000E+00 0. -1.
<mgrwt>
<rscale>  0 0.46298165E+02</rscale>
<asrwt>0</asrwt>
<pdfrwt beam="1">  1        2 0.21109105E-01 0.59739861E+02</pdfrwt>
<pdfrwt beam="2">  1        1 0.48255155E-01 0.35880901E+02</pdfrwt>
<totfact> 0.27841439E+03</totfact>
</mgrwt>
</event>
<event>
 5    1  0.9399923E-003  0.1253205E+03  0.7546771E-02  0.1410505E+00
         -2   -1    0    0    0  501 -0.00000000000E+00  0.00000000000E+00  0.10503306456E+04  0.10503306456E+04  0.00000000000E+00 0.  1.
          2   -1    0    0  502    0  0.00000000000E+00 -0.00000000000E+00 -0.21802145780E+03  0.21802145780E+03  0.00000000000E+00 0. -1.
         25    1    1    2    0    0  0.97069155515E+02 -0.74281647680E+02  0.21333089655E+02  0.17612576430E+03  0.12500000000E+03 0.  0.
          1    1    1    2  502    0  0.16329537761E+02  0.20231584810E+02 -0.13523561915E+03  0.13771217635E+03  0.00000000000E+00 0. -1.
         -1    1    1    2    0  501 -0.11339869328E+03  0.54050062870E+02  0.94621171726E+03  0.95451416271E+03  0.00000000000E+00 0.  1.
<mgrwt>
<rscale>  0 0.57081195E+02</rscale>
<asrwt>0</asrwt>
<pdfrwt beam="2">  1        2 0.33541763E-01 0.25999439E+02</pdfrwt>
<pdfrwt beam="1">  1       -2 0.16158933E+00 0.12532050E+03</pdfrwt>
<totfact> 0.40425715E+01</totfact>
</mgrwt>
</event>
<event>
 5    1  0.9399923E-003  0.9541802E+02  0.7546771E-02  0.1297958E+00
          1   -1    0    0  501    0 -0.00000000000E+00  0.00000000000E+00  0.78508852777E+03  0.78508852777E+03  0.00000000000E+00 0. -1.
          2   -1    0    0  502    0  0.00000000000E+00 -0.00000000000E+00 -0.72320591340E+02  0.72320591340E+02  0.00000000000E+00 0. -1.
         25    1    1    2    0    0  0.71417636527E+02 -0.45873638329E+02  0.27792989696E+03  0.31634616660E+03  0.12500000000E+03 0.  0.
          2    1    1    2  501    0 -0.81328359891E+02 -0.49902875426E+02  0.43441848455E+03  0.44477412112E+03  0.00000000000E+00 0. -1.
          1    1    1    2  502    0  0.99107233644E+01  0.95776513755E+02  0.41955492585E+00  0.96288831393E+02  0.00000000000E+00 0. -1.
<mgrwt>
<rscale>  0 0.92051852E+02</rscale>
<asrwt>0</asrwt>
<pdfrwt beam="2">  1        2 0.11126245E-01 0.88804434E+02</pdfrwt>
<pdfrwt beam="1">  1        1 0.12078285E+00 0.95418023E+02</pdfrwt>
<totfact> 0.17864305E+03</totfact>
</mgrwt>
</event>
<event>
 5    1  0.9399923E-003  0.1516356E+03  0.7546771E-02  0.1293189E+00
          1   -1    0    0  501    0 -0.00000000000E+00  0.00000000000E+00  0.14821098680E+03  0.14821098680E+03  0.00000000000E+00 0. -1.
          2   -1    0    0  502    0  0.00000000000E+00 -0.00000000000E+00 -0.18268394613E+04  0.18268394613E+04  0.00000000000E+00 0. -1.
         25    1    1    2    0    0  0.12281837806E+03  0.14629898081E+03 -0.10161319266E+04  0.10414589948E+04  0.12500000000E+03 0.  0.
          2    1    1    2  501    0 -0.12186277846E+03 -0.87896765667E+02  0.92430600760E+02  0.17640803311E+03  0.00000000000E+00 0. -1.
          1    1    1    2  502    0 -0.95559959665E+00 -0.58402215144E+02 -0.75492714871E+03  0.75718342016E+03  0.00000000000E+00 0. -1.
<mgrwt>
<rscale>  0 0.94111842E+02</rscale>
<asrwt>0</asrwt>
<pdfrwt beam="2">  1        2 0.28105223E+00 0.58410033E+02</pdfrwt>
<pdfrwt beam="1">  1        1 0.22801690E-01 0.15163557E+03</pdfrwt>
<totfact> 0.30801038E+02</totfact>
</mgrwt>
</event>
<event>
 5    1  0.9399923E-003  0.8617551E+02  0.7546771E-02  0.1366514E+00
          1   -1    0    0  501    0 -0.00000000000E+00  0.00000000000E+00  0.49055766162E+03  0.49055766162E+03  0.00000000000E+00 0. -1.
          2   -1    0    0  502    0  0.00000000000E+00 -0.00000000000E+00 -0.41226908560E+03  0.41226908560E+03  0.00000000000E+00 0. -1.
         25    1    1    2    0    0  0.55221407146E+02 -0.35215594393E+02 -0.49771201465E+02  0.14963861263E+03  0.12500000000E+03 0.  0.
          2    1    1    2  501    0 -0.29490172951E+02  0.82563971627E+02  0.43388363993E+03  0.44265279024E+03  0.00000000000E+00 0. -1.
          1    1    1    2  502    0 -0.25731234195E+02 -0.47348377234E+02 -0.30582386245E+03  0.31053534434E+03  0.00000000000E+00 0. -1.
<mgrwt>
<rscale>  0 0.68145908E+02</rscale>
<asrwt>0</asrwt>
<pdfrwt beam="2">  1        2 0.63426013E-01 0.53888452E+02</pdfrwt>
<pdfrwt beam="1">  1        1 0.75470410E-01 0.86175510E+02</pdfrwt>
<totfact> 0.50579265E+02</totfact>
</mgrwt>
</event>
<event>
 5    1  0.9399923E-003  0.8554437E+02  0.7546771E-02  0.1319975E+00
          1   -1    0    0  501    0 -0.00000000000E+00  0.00000000000E+00  0.34689214983E+03  0.34689214983E+03  0.00000000000E+00 0. -1.
          2   -1    0    0  502    0  0.00000000000E+00 -0.00000000000E+00 -0.20477915714E+04  0.20477915714E+04  0.00000000000E+00 0. -1.
         25    1    1    2    0    0  0.14144110039E+02  0.16491080818E+03 -0.40796075300E+03  0.45765992450E+03  0.12500000000E+03 0.  0.
          2    1    1    2  501    0 -0.45009082183E+01 -0.84397644631E+02  0.31545828738E+03  0.32658406524E+03  0.00000000000E+00 0. -1.
          1    1    1    2  502    0 -0.96432018212E+01 -0.80513163551E+02 -0.16083969559E+04  0.16104397315E+04  0.00000000000E+00 0. -1.
<mgrwt>
<rscale>  0 0.83286692E+02</rscale>
<asrwt>0</asrwt>
<pdfrwt beam="2">  1        2 0.31504485E+00 0.81088599E+02</pdfrwt>
<pdfrwt beam="1">  1        1 0.53368023E-01 0.85544369E+02</pdfrwt>
<totfact> 0.80259271E+01</totfact>
</mgrwt>
</event>
<event>
 5    1  0.9399923E-003  0.4764660E+02  0.7546771E-02  0.1492436E+00
         -2   -1    0    0    0  501 -0.00000000000E+00  0.00000000000E+00  0.42177899966E+03  0.42177899966E+03  0.00000000000E+00 0.  1.
          2   -1    0    0  502    0  0.00000000000E+00 -0.00000000000E+00 -0.12702811586E+04  0.12702811586E+04  0.00000000000E+00 0. -1.
         25    1    1    2    0    0  0.27706822221E+02 -0.80336014996E+02  0.15833402263E+03  0.21889770676E+03  0.12500000000E+03 0.  0.
          1    1    1    2  502    0 -0.15549008126E+02  0.44942451650E+02 -0.12380382006E+04  0.12389512427E+04  0.00000000000E+00 0. -1.
         -1    1    1    2    0  501 -0.12157814095E+02  0.35393563346E+02  0.23120201898E+03  0.23421120885E+03  0.00000000000E+00 0.  1.
<mgrwt>
<rscale>  0 0.42226785E+02</rscale>
<asrwt>0</asrwt>
<pdfrwt beam="2">  1        2 0.19542787E+00 0.47646596E+02</pdfrwt>
<pdfrwt beam="1">  1       -2 0.64889078E-01 0.37423479E+02</pdfrwt>
<totfact> 0.47501319E+01</totfact>
</mgrwt>
</event>
<event>
 5    1  0.9399923E-003  0.2497136E+03  0.7546771E-02  0.1182812E+00
          1   -1    0    0  501    0 -0.00000000000E+00  0.00000000000E+00  0.47543522392E+02  0.47543522392E+02  0.00000000000E+00 0. -1.
          2   -1    0    0  502    0  0.00000000000E+00 -0.00000000000E+00 -0.22398294507E+04  0.22398294507E+04  0.00000000000E+00 0. -1.
         25    1    1    2    0    0  0.63677872397E+02 -0.29726213399E+03 -0.10086787653E+04  0.10608852433E+04  0.12500000000E+03 0.  0.
          2    1    1    2  501    0  0.27429484052E+02  0.10596308621E+03 -0.42003025642E+03  0.43405756363E+03  0.00000000000E+00 0. -1.
          1    1    1    2  502    0 -0.91107356450E+02  0.19129904778E+03 -0.76357690654E+03  0.79243016619E+03  0.00000000000E+00 0. -1.
<mgrwt>
<rscale>  0 0.16532568E+03</rscale>
<asrwt>0</asrwt>
<pdfrwt beam="2">  1        2 0.34458923E+00 0.10945571E+03</pdfrwt>
<pdfrwt beam="1">  1        1 0.73143863E-02 0.24971360E+03</pdfrwt>
<totfact> 0.81460471E+02</totfact>
</mgrwt>
</event>
<event>
 5    1  0.9399923E-003  0.9631754E+02  0.7546771E-02  0.1379961E+00
         -1   -1    0    0    0  501 -0.00000000000E+00  0.00000000000E+00  0.64564554934E+02  0.64564554934E+02  0.00000000000E+00 0.  1.
          1   -1    0    0  502    0  0.00000000000E+00 -0.00000000000E+00 -0.13271839582E+04  0.13271839582E+04  0.00000000000E+00 0. -1.
         25    1    1    2    0    0 -0.17308229898E+00  0.65857439585E+02 -0.27657409300E+03  0.31057279537E+03  0.12500000000E+03 0.  0.
          2    1    1    2  502    0 -0.30081740047E+02 -0.96635412213E+02 -0.10207743311E+04  0.10257794836E+04  0.00000000000E+00 0. -1.
         -2    1    1    2    0  501  0.30254822346E+02  0.30777972627E+02  0.34729020806E+02  0.55396234172E+02  0.00000000000E+00 0.  1.
<mgrwt>
<rscale>  0 0.64474028E+02</rscale>
<asrwt>0</asrwt>
<pdfrwt beam="2">  1        1 0.20418216E+00 0.96317542E+02</pdfrwt>
<pdfrwt beam="1">  1       -1 0.99330080E-02 0.43158289E+02</pdfrwt>
<totfact> 0.55735255E+02</totfact>
</mgrwt>
</event>
<event>
 5    1  0.9399923E-003  0.2032561E+03  0.7546771E-02  0.1235917E+00
          2   -1    0    0  502    0  0.00000000000E+00  0.00000000000E+00  0.12042771748E+04  0.12042771748E+04  0.00000000000E+00 0. -1.
         -2   -1    0    0    0  501 -0.00000000000E+00 -0.00000000000E+00 -0.70467263947E+02  0.70467263947E+02  0.00000000000E+00 0.  1.
         25    1    1    2    0    0  0.20989768166E+03 -0.72883235047E+02  0.60048226628E+03  0.65235952881E+03  0.12500000000E+03 0.  0.
          1    1    1    2  502    0 -0.10483664018E+02  0.75485099271E+02  0.32568181858E+03  0.33447952759E+03  0.00000000000E+00 0. -1.
         -1    1    1    2    0  501 -0.19941401764E+03 -0.26018642241E+01  0.20764582598E+03  0.28790538233E+03  0.00000000000E+00 0.  1.
<mgrwt>
<rscale>  0 0.12445912E+03</rscale>
<asrwt>0</asrwt>
<pdfrwt beam="1">  1        2 0.18527340E+00 0.76209628E+02</pdfrwt>
<pdfrwt beam="2">  1       -2 0.10841118E-01 0.20325610E+03</pdfrwt>
<totfact> 0.12363738E+03</totfact>
</mgrwt>
</event>
<event>
 5    1  0.9399923E-003  0.1512239E+03  0.7546771E-02  0.1229257E+00
          1   -1    0    0  501    0 -0.00000000000E+00  0.00000000000E+00  0.23869728508E+03  0.23869728508E+03  0.00000000000E+00 0. -1.
          2   -1    0    0  502    0  0.00000000000E+00 -0.00000000000E+00 -0.29532301605E+03  0.29532301605E+03  0.00000000000E+00 0. -1.
         25    1    1    2    0    0  0.17599851489E+02  0.11752238269E+03 -0.78969800264E+02  0.18969052311E+03  0.12500000000E+03 0.  0.
          2    1    1    2  501    0  0.88525620926E+02 -0.14525663819E+03  0.11114718905E+03  0.20319934580E+03  0.00000000000E+00 0. -1.
          1    1    1    2  502    0 -0.10612547241E+03  0.27734255501E+02 -0.88803119754E+02  0.14113043223E+03  0.00000000000E+00 0. -1.
<mgrwt>
<rscale>  0 0.12879318E+03</rscale>
<asrwt>0</asrwt>
<pdfrwt beam="2">  1        2 0.45434310E-01 0.10968958E+03</pdfrwt>
<pdfrwt beam="1">  1        1 0.36722659E-01 0.15122388E+03</pdfrwt>
<totfact> 0.17504305E+03</totfact>
</mgrwt>
</event>
<event>
 5    1  0.9399923E-003  0.9702000E+02  0.7546771E-02  0.1369256E+00
          1   -1    0    0  501    0 -0.00000000000E+00  0.00000000000E+00  0.16844506471E+04  0.16844506471E+04  0.00000000000E+00 0. -1.
          2   -1    0    0  502    0  0.00000000000E+00 -0.00000000000E+00 -0.44924836828E+03  0.44924836828E+03  0.00000000000E+00 0. -1.
         25    1    1    2    0    0  0.32034153209E+01 -0.52520399332E+02 -0.13399788667E+03  0.19065436750E+03  0.12500000000E+03 0.  0.
          2    1    1    2  501    0  0.12405202627E+02  0.96627507469E+02  0.16527711163E+04  0.16556397939E+04  0.00000000000E+00 0. -1.
          3    1    1    2  502    0 -0.15608617948E+02 -0.44107108136E+02 -0.28357095082E+03  0.28740485398E+03  0.00000000000E+00 0. -1.
<mgrwt>
<rscale>  0 0.67374469E+02</rscale>
<asrwt>0</asrwt>
<pdfrwt beam="2">  1        2 0.69115135E-01 0.46787455E+02</pdfrwt>
<pdfrwt beam="1">  1        1 0.25914625E+00 0.97020005E+02</pdfrwt>
<totfact> 0.58769504E+01</totfact>
</mgrwt>
</event>
<event>
 5    1  0.9399923E-003  0.1938318E+03  0.7546771E-02  0.1161187E+00
          1   -1    0    0  501    0 -0.00000000000E+00  0.00000000000E+00  0.11730640910E+03  0.11730640910E+03  0.00000000000E+00 0. -1.
          2   -1    0    0  502    0  0.00000000000E+00 -0.00000000000E+00 -0.11243433532E+04  0.11243433532E+04  0.00000000000E+00 0. -1.
         25    1    1    2    0    0  0.10541477401E+03  0.10337114656E+02 -0.13145837395E+03  0.21006054984E+03  0.12500000000E+03 0.  0.
          2    1    1    2  501    0  0.36268946493E+02 -0.19040837473E+03 -0.90799343753E+02  0.21404510383E+03  0.00000000000E+00 0. -1.
          1    1    1    2  502    0 -0.14168372050E+03  0.18007126008E+03 -0.78477922636E+03  0.81754410859E+03  0.00000000000E+00 0. -1.
<mgrwt>
<rscale>  0 0.18700854E+03</rscale>
<asrwt>0</asrwt>
<pdfrwt beam="2">  1        2 0.17297589E+00 0.18042542E+03</pdfrwt>
<pdfrwt beam="1">  1        1 0.18047141E-01 0.19383185E+03</pdfrwt>
<totfact> 0.88773506E+02</totfact>
</mgrwt>
</event>
<event>
 5    1  0.9399923E-003  0.1245885E+03  0.7546771E-02  0.1356830E+00
          1   -1    0    0  501    0 -0.00000000000E+00  0.00000000000E+00  0.13756025825E+04  0.13756025825E+04  0.00000000000E+00 0. -1.
          2   -1    0    0  502    0  0.00000000000E+00 -0.00000000000E+00 -0.99774194136E+03  0.99774194136E+03  0.00000000000E+00 0. -1.
         25    1    1    2    0    0 -0.84564428442E+02 -0.15100901945E+02 -0.20188787058E+03  0.25251315230E+03  0.12500000000E+03 0.  0.
          2    1    1    2  501    0  0.12467878883E+03  0.10096485111E+02  0.13468596620E+04  0.13526557908E+04  0.00000000000E+00 0. -1.
          1    1    1    2  502    0 -0.40114360383E+02  0.50044168340E+01 -0.76711115022E+03  0.76817558077E+03  0.00000000000E+00 0. -1.
<mgrwt>
<rscale>  0 0.70968501E+02</rscale>
<asrwt>0</asrwt>
<pdfrwt beam="2">  1        2 0.15349876E+00 0.40425315E+02</pdfrwt>
<pdfrwt beam="1">  1        1 0.21163117E+00 0.12458847E+03</pdfrwt>
<totfact> 0.36972409E+01</totfact>
</mgrwt>
</event>
<event>
 5    1  0.9399923E-003  0.4594566E+02  0.7546771E-02  0.1479868E+00
          1   -1    0    0  501    0 -0.00000000000E+00  0.00000000000E+00  0.28109752883E+04  0.28109752883E+04  0.00000000000E+00 0. -1.
          2   -1    0    0  502    0  0.00000000000E+00 -0.00000000000E+00 -0.27746756695E+02  0.27746756695E+02  0.00000000000E+00 0. -1.
         25    1    1    2    0    0  0.19556499738E+02  0.24376305520E+01  0.17614117838E+04  0.17659515482E+04  0.12500000000E+03 0.  0.
          2    1    1    2  501    0 -0.29500165955E+02  0.42419110045E+02  0.10253854980E+04  0.10266864469E+04  0.00000000000E+00 0. -1.
          1    1    1    2  502    0  0.99436662169E+01 -0.44856740597E+02 -0.35687501741E+01  0.46084049872E+02  0.00000000000E+00 0. -1.
<mgrwt>
<rscale>  0 0.44126755E+02</rscale>
<asrwt>0</asrwt>
<pdfrwt beam="2">  1        2 0.42687340E-02 0.45945660E+02</pdfrwt>
<pdfrwt beam="1">  1        1 0.43245751E+00 0.42379856E+02</pdfrwt>
<totfact> 0.29438445E+02</totfact>
</mgrwt>
</event>
<event>
 5    1  0.9399923E-003  0.6637583E+02  0.7546771E-02  0.1443808E+00
         -2   -1    0    0    0  501 -0.00000000000E+00  0.00000000000E+00  0.13847055864E+04  0.13847055864E+04  0.00000000000E+00 0.  1.
          2   -1    0    0  502    0  0.00000000000E+00 -0.00000000000E+00 -0.98933670491E+02  0.98933670491E+02  0.00000000000E+00 0. -1.
         25    1    1    2    0    0 -0.19978214633E+01 -0.79640735018E+02  0.98098494312E+02  0.17774969072E+03  0.12500000000E+03 0.  0.
          1    1    1    2  502    0  0.32653002022E+02  0.57023620844E+02 -0.40458221959E+02  0.77167218424E+02  0.00000000000E+00 0. -1.
         -1    1    1    2    0  501 -0.30655180558E+02  0.22617114174E+02  0.12281316436E+04  0.12287223478E+04  0.00000000000E+00 0.  1.
<mgrwt>
<rscale>  0 0.50285449E+02</rscale>
<asrwt>0</asrwt>
<pdfrwt beam="2">  1        2 0.15220566E-01 0.66375830E+02</pdfrwt>
<pdfrwt beam="1">  1       -2 0.21303161E+00 0.38095590E+02</pdfrwt>
<totfact> 0.49904031E+01</totfact>
</mgrwt>
</event>
<event>
 5    1  0.9399923E-003  0.9069146E+02  0.7546771E-02  0.1422564E+00
          1   -1    0    0  501    0 -0.00000000000E+00  0.00000000000E+00  0.10589040136E+04  0.10589040136E+04  0.00000000000E+00 0. -1.
          2   -1    0    0  502    0  0.00000000000E+00 -0.00000000000E+00 -0.41088265890E+03  0.41088265890E+03  0.00000000000E+00 0. -1.
         25    1    1    2    0    0 -0.69416721658E+02  0.50823404144E+02  0.17507531465E+02  0.15275213030E+03  0.12500000000E+03 0.  0.
          2    1    1    2  501    0  0.87852450246E+02 -0.23779949568E+02  0.97086075735E+03  0.97511750532E+03  0.00000000000E+00 0. -1.
          1    1    1    2  502    0 -0.18435728588E+02 -0.27043454576E+02 -0.34034693413E+03  0.34191703686E+03  0.00000000000E+00 0. -1.
<mgrwt>
<rscale>  0 0.54482035E+02</rscale>
<asrwt>0</asrwt>
<pdfrwt beam="2">  1        2 0.63212717E-01 0.32729567E+02</pdfrwt>
<pdfrwt beam="1">  1        1 0.16290831E+00 0.90691458E+02</pdfrwt>
<totfact> 0.16667996E+02</totfact>
</mgrwt>
</event>
<event>
 5    1  0.9399923E-003  0.1013914E+03  0.7546771E-02  0.1309548E+00
         -2   -1    0    0    0  501 -0.00000000000E+00  0.00000000000E+00  0.95197238531E+03  0.95197238531E+03  0.00000000000E+00 0.  1.
          2   -1    0    0  502    0  0.00000000000E+00 -0.00000000000E+00 -0.32520620333E+04  0.32520620333E+04  0.00000000000E+00 0. -1.
         25    1    1    2    0    0  0.10890131044E+03  0.11101554929E+03  0.40356314046E+02  0.20356222558E+03  0.12500000000E+03 0.  0.
          1    1    1    2  502    0 -0.73000914167E+02 -0.17848802441E+02 -0.31670090754E+04  0.31679005977E+04  0.00000000000E+00 0. -1.
         -1    1    1    2    0  501 -0.35900396276E+02 -0.93166746845E+02  0.82656311331E+03  0.83257159539E+03  0.00000000000E+00 0.  1.
<mgrwt>
<rscale>  0 0.87290842E+02</rscale>
<asrwt>0</asrwt>
<pdfrwt beam="2">  1        2 0.50031724E+00 0.75151269E+02</pdfrwt>
<pdfrwt beam="1">  1       -2 0.14645729E+00 0.10139138E+03</pdfrwt>
<totfact> 0.65368864E-01</totfact>
</mgrwt>
</event>
<event>
 5    1  0.9399923E-003  0.2043017E+03  0.7546771E-02  0.1296122E+00
         -2   -1    0    0    0  501 -0.00000000000E+00  0.00000000000E+00  0.46489950174E+03  0.46489950174E+03  0.00000000000E+00 0.  1.
          2   -1    0    0  502    0  0.00000000000E+00 -0.00000000000E+00 -0.75480468695E+03  0.75480468695E+03  0.00000000000E+00 0. -1.
         25    1    1    2    0    0  0.22764429587E+03 -0.68673689728E+02  0.37388594987E+02  0.27122114250E+03  0.12500000000E+03 0.  0.
          1    1    1    2  502    0 -0.19700027966E+03  0.39679684931E+02 -0.62051420182E+03  0.65224340721E+03  0.00000000000E+00 0. -1.
         -1    1    1    2    0  501 -0.30644016214E+02  0.28994004798E+02  0.29322042163E+03  0.29623963898E+03  0.00000000000E+00 0.  1.
<mgrwt>
<rscale>  0 0.92837445E+02</rscale>
<asrwt>0</asrwt>
<pdfrwt beam="2">  1        2 0.11612380E+00 0.20430170E+03</pdfrwt>
<pdfrwt beam="1">  1       -2 0.71523000E-01 0.42186586E+02</pdfrwt>
<totfact> 0.72921725E+01</totfact>
</mgrwt>
</event>
<event>
 5    1  0.1304356E-002  0.6714489E+02  0.7546771E-02  0.1441853E+00
          2   -1    0    0  502    0  0.00000000000E+00  0.00000000000E+00  0.16668739410E+04  0.16668739410E+04  0.00000000000E+00 0. -1.
          1   -1    0    0  501    0 -0.00000000000E+00 -0.00000000000E+00 -0.10907533360E+04  0.10907533360E+04  0.00000000000E+00 0. -1.
         25    1    1    2    0    0  0.36813115293E+02  0.45476974211E+02 -0.70971269721E+02  0.15519433549E+03  0.12500000000E+03 0.  0.
          2    1    1    2  501    0 -0.31536327485E+02  0.21576794109E+02 -0.97660063587E+03  0.97734789097E+03  0.00000000000E+00 0. -1.
          1    1    1    2  502    0 -0.52767878082E+01 -0.67053768320E+02  0.16236925106E+04  0.16250850505E+04  0.00000000000E+00 0. -1.
<mgrwt>
<rscale>  0 0.50652628E+02</rscale>
<asrwt>0</asrwt>
<pdfrwt beam="1">  1        2 0.25644214E+00 0.67144890E+02</pdfrwt>
<pdfrwt beam="2">  1        1 0.16780821E+00 0.38211229E+02</pdfrwt>
<totfact> 0.27304124E+01</totfact>
</mgrwt>
</event>
<event>
 5    1  0.9399923E-003  0.8397590E+02  0.7546771E-02  0.1386456E+00
          2   -1    0    0  502    0  0.00000000000E+00  0.00000000000E+00  0.38148081312E+04  0.38148081312E+04  0.00000000000E+00 0. -1.
          1   -1    0    0  501    0 -0.00000000000E+00 -0.00000000000E+00 -0.25125747678E+02  0.25125747678E+02  0.00000000000E+00 0. -1.
         25    1    1    2    0    0 -0.49884058758E+02 -0.63255162187E+02  0.98817705621E+03  0.99930402244E+03  0.12500000000E+03 0.  0.
          2    1    1    2  501    0  0.41448859046E+02 -0.22071629401E+02  0.10258802632E+02  0.48066701281E+02  0.00000000000E+00 0. -1.
          1    1    1    2  502    0  0.84351997122E+01  0.85326791588E+02  0.27912465247E+04  0.27925631552E+04  0.00000000000E+00 0. -1.
<mgrwt>
<rscale>  0 0.62796813E+02</rscale>
<asrwt>0</asrwt>
<pdfrwt beam="1">  1        2 0.58689310E+00 0.83975903E+02</pdfrwt>
<pdfrwt beam="2">  1        1 0.38655027E-02 0.46959182E+02</pdfrwt>
<totfact> 0.20979811E+02</totfact>
</mgrwt>
</event>
<event>
 5    1  0.9399923E-003  0.4706578E+02  0.7546771E-02  0.1541154E+00
          2   -1    0    0  502    0  0.00000000000E+00  0.00000000000E+00  0.14916556571E+04  0.14916556571E+04  0.00000000000E+00 0. -1.
          1   -1    0    0  501    0 -0.00000000000E+00 -0.00000000000E+00 -0.12575783073E+03  0.12575783073E+03  0.00000000000E+00 0. -1.
         25    1    1    2    0    0 -0.10380378309E+02 -0.38494246539E+02  0.23286179841E+01  0.13122492801E+03  0.12500000000E+03 0.  0.
          2    1    1    2  501    0 -0.15756792478E+02  0.46416852615E+02 -0.51358984252E+02  0.70996802599E+02  0.00000000000E+00 0. -1.
          1    1    1    2  502    0  0.26137170787E+02 -0.79226060765E+01  0.14149281927E+04  0.14151917573E+04  0.00000000000E+00 0. -1.
<mgrwt>
<rscale>  0 0.35853007E+02</rscale>
<asrwt>0</asrwt>
<pdfrwt beam="1">  1        2 0.22948547E+00 0.27311525E+02</pdfrwt>
<pdfrwt beam="2">  1        1 0.19347360E-01 0.47065777E+02</pdfrwt>
<totfact> 0.56867938E+02</totfact>
</mgrwt>
</event>
<event>
 5    1  0.9399923E-003  0.5654839E+02  0.7546771E-02  0.1424506E+00
          2   -1    0    0  502    0  0.00000000000E+00  0.00000000000E+00  0.47012071144E+02  0.47012071144E+02  0.00000000000E+00 0. -1.
          1   -1    0    0  501    0 -0.00000000000E+00 -0.00000000000E+00 -0.29987837437E+04  0.29987837437E+04  0.00000000000E+00 0. -1.
         25    1    1    2    0    0  0.25908576331E+02  0.20884290060E+02 -0.17300054767E+04  0.17348346772E+04  0.12500000000E+03 0.  0.
          2    1    1    2  501    0 -0.57562290199E+02  0.25974682912E+02 -0.12473124423E+04  0.12489100969E+04  0.00000000000E+00 0. -1.
          1    1    1    2  502    0  0.31653713867E+02 -0.46858972972E+02  0.25546246432E+02  0.62051040735E+02  0.00000000000E+00 0. -1.
<mgrwt>
<rscale>  0 0.54078911E+02</rscale>
<asrwt>0</asrwt>
<pdfrwt beam="1">  1        2 0.72326269E-02 0.56548395E+02</pdfrwt>
<pdfrwt beam="2">  1        1 0.46135131E+00 0.51717270E+02</pdfrwt>
<totfact> 0.11257462E+02</totfact>
</mgrwt>
</event>
<event>
 5    1  0.9399923E-003  0.3682522E+02  0.7546771E-02  0.1606655E+00
          1   -1    0    0  501    0 -0.00000000000E+00  0.00000000000E+00  0.11227936229E+03  0.11227936229E+03  0.00000000000E+00 0. -1.
          2   -1    0    0  502    0  0.00000000000E+00 -0.00000000000E+00 -0.29310860400E+03  0.29310860400E+03  0.00000000000E+00 0. -1.
         25    1    1    2    0    0  0.17670158503E+02  0.17099074043E+02 -0.12244566320E+03  0.17669904717E+03  0.12500000000E+03 0.  0.
          2    1    1    2  501    0 -0.37050105963E+02 -0.43166304838E+01  0.80054357164E+02  0.88317856357E+02  0.00000000000E+00 0. -1.
          1    1    1    2  502    0  0.19379947460E+02 -0.12782443560E+02 -0.13843793567E+03  0.14037106276E+03  0.00000000000E+00 0. -1.
<mgrwt>
<rscale>  0 0.29239131E+02</rscale>
<asrwt>0</asrwt>
<pdfrwt beam="2">  1        2 0.45093631E-01 0.23215797E+02</pdfrwt>
<pdfrwt beam="1">  1        1 0.17273748E-01 0.36825217E+02</pdfrwt>
<totfact> 0.42022919E+03</totfact>
</mgrwt>
</event>
<event>
 5    1  0.9399923E-003  0.5658762E+02  0.7546771E-02  0.1457847E+00
          1   -1    0    0  501    0 -0.00000000000E+00  0.00000000000E+00  0.12494840547E+04  0.12494840547E+04  0.00000000000E+00 0. -1.
          2   -1    0    0  502    0  0.00000000000E+00 -0.00000000000E+00 -0.79951289972E+02  0.79951289972E+02  0.00000000000E+00 0. -1.
         25    1    1    2    0    0 -0.16963462131E+02  0.29170212709E+02  0.59397976360E+03  0.60792731467E+03  0.12500000000E+03 0.  0.
          2    1    1    2  501    0 -0.55368671127E+01 -0.62603172224E+02  0.64131138189E+03  0.64438350585E+03  0.00000000000E+00 0. -1.
          1    1    1    2  502    0  0.22500329243E+02  0.33432959515E+02 -0.65758380717E+02  0.77124524196E+02  0.00000000000E+00 0. -1.
<mgrwt>
<rscale>  0 0.47753924E+02</rscale>
<asrwt>0</asrwt>
<pdfrwt beam="2">  1        2 0.12300199E-01 0.40299226E+02</pdfrwt>
<pdfrwt beam="1">  1        1 0.19222830E+00 0.56587619E+02</pdfrwt>
<totfact> 0.72624591E+02</totfact>
</mgrwt>
</event>
<event>
 5    1  0.9399923E-003  0.6845145E+02  0.7546771E-02  0.1496713E+00
          1   -1    0    0  501    0 -0.00000000000E+00  0.00000000000E+00  0.80760760965E+03  0.80760760965E+03  0.00000000000E+00 0. -1.
          2   -1    0    0  502    0  0.00000000000E+00 -0.00000000000E+00 -0.21484787315E+03  0.21484787315E+03  0.00000000000E+00 0. -1.
         25    1    1    2    0    0  0.29233730978E+02  0.33701582840E+02 -0.11707946824E+03  0.17698307715E+03  0.12500000000E+03 0.  0.
          2    1    1    2  501    0 -0.37382519458E+02 -0.57642022991E+02  0.77372191869E+03  0.77676615724E+03  0.00000000000E+00 0. -1.
          1    1    1    2  502    0  0.81487884796E+01  0.23940440151E+02 -0.63882713947E+02  0.68706248402E+02  0.00000000000E+00 0. -1.
<mgrwt>
<rscale>  0 0.41606340E+02</rscale>
<asrwt>0</asrwt>
<pdfrwt beam="2">  1        2 0.33053519E-01 0.25289275E+02</pdfrwt>
<pdfrwt beam="1">  1        1 0.12424732E+00 0.68451450E+02</pdfrwt>
<totfact> 0.49563763E+02</totfact>
</mgrwt>
</event>
<event>
 5    1  0.9399923E-003  0.2143277E+03  0.7546771E-02  0.1273459E+00
         -1   -1    0    0    0  501 -0.00000000000E+00  0.00000000000E+00  0.39930351168E+02  0.39930351168E+02  0.00000000000E+00 0.  1.
          1   -1    0    0  502    0  0.00000000000E+00 -0.00000000000E+00 -0.36682136894E+04  0.36682136894E+04  0.00000000000E+00 0. -1.
         25    1    1    2    0    0  0.19109118998E+03  0.48068635519E+02 -0.15886834027E+04  0.16057292395E+04  0.12500000000E+03 0.  0.
          2    1    1    2  502    0 -0.22827816731E+03 -0.14929678596E+02 -0.20398160873E+04  0.20526040746E+04  0.00000000000E+00 0. -1.
         -2    1    1    2    0  501  0.37186977324E+02 -0.33138956923E+02  0.21615178857E+00  0.49810726456E+02  0.00000000000E+00 0.  1.
<mgrwt>
<rscale>  0 0.10332337E+03</rscale>
<asrwt>0</asrwt>
<pdfrwt beam="2">  1        1 0.56434085E+00 0.21432773E+03</pdfrwt>
<pdfrwt beam="1">  1       -1 0.61431278E-02 0.49810257E+02</pdfrwt>
<totfact> 0.27247306E+01</totfact>
</mgrwt>
</event>
<event>
 5    1  0.9399923E-003  0.1276889E+03  0.7546771E-02  0.1272262E+00
         -2   -1    0    0    0  501 -0.00000000000E+00  0.00000000000E+00  0.29051769504E+02  0.29051769504E+02  0.00000000000E+00 0.  1.
          2   -1    0    0  502    0  0.00000000000E+00 -0.00000000000E+00 -0.22826587507E+04  0.22826587507E+04  0.00000000000E+00 0. -1.
         25    1    1    2    0    0 -0.17564826461E+03  0.89982762731E+01 -0.17473682031E+04  0.17606402015E+04  0.12500000000E+03 0.  0.
          1    1    1    2  502    0  0.91121458671E+02 -0.11866901728E+02 -0.42130188980E+03  0.43120670906E+03  0.00000000000E+00 0. -1.
         -1    1    1    2    0  501  0.84526805935E+02  0.28686254548E+01 -0.84936888336E+02  0.11986360971E+03  0.00000000000E+00 0.  1.
<mgrwt>
<rscale>  0 0.10391991E+03</rscale>
<asrwt>0</asrwt>
<pdfrwt beam="2">  1        2 0.35117832E+00 0.12768890E+03</pdfrwt>
<pdfrwt beam="1">  1       -2 0.44695024E-02 0.84575469E+02</pdfrwt>
<totfact> 0.12002506E+03</totfact>
</mgrwt>
</event>
<event>
 5    1  0.9399923E-003  0.8792245E+02  0.7546771E-02  0.1348238E+00
         -1   -1    0    0    0  501 -0.00000000000E+00  0.00000000000E+00  0.59568830672E+03  0.59568830672E+03  0.00000000000E+00 0.  1.
          1   -1    0    0  502    0  0.00000000000E+00 -0.00000000000E+00 -0.12620297679E+03  0.12620297679E+03  0.00000000000E+00 0. -1.
         25    1    1    2    0    0  0.12286959615E+03  0.31976263842E+01  0.74325849016E+02  0.19041138176E+03  0.12500000000E+03 0.  0.
          2    1    1    2  502    0 -0.73073337654E+02 -0.39498265854E+02 -0.39848485687E+02  0.92128863517E+02  0.00000000000E+00 0. -1.
         -2    1    1    2    0  501 -0.49796258499E+02  0.36300639470E+02  0.43500796661E+03  0.43935103823E+03  0.00000000000E+00 0.  1.
<mgrwt>
<rscale>  0 0.73607418E+02</rscale>
<asrwt>0</asrwt>
<pdfrwt beam="2">  1        1 0.19415843E-01 0.87922450E+02</pdfrwt>
<pdfrwt beam="1">  1       -1 0.91644353E-01 0.61623078E+02</pdfrwt>
<totfact> 0.33226794E+02</totfact>
</mgrwt>
</event>
<event>
 5    1  0.9399923E-003  0.1045091E+03  0.7546771E-02  0.1398948E+00
         -1   -1    0    0    0  501 -0.00000000000E+00  0.00000000000E+00  0.24466566293E+03  0.24466566293E+03  0.00000000000E+00 0.  1.
          1   -1    0    0  502    0  0.00000000000E+00 -0.00000000000E+00 -0.14100603688E+04  0.14100603688E+04  0.00000000000E+00 0. -1.
         25    1    1    2    0    0 -0.38956442211E+02 -0.12155761849E+03 -0.72548903961E+03  0.74716343968E+03  0.12500000000E+03 0.  0.
          2    1    1    2  502    0  0.42344869790E+02  0.87583247561E+02 -0.66895038045E+03  0.67598707440E+03  0.00000000000E+00 0. -1.
         -2    1    1    2    0  501 -0.33884275793E+01  0.33974370929E+02  0.22904471414E+03  0.23157551770E+03  0.00000000000E+00 0.  1.
<mgrwt>
<rscale>  0 0.59734804E+02</rscale>
<asrwt>0</asrwt>
<pdfrwt beam="2">  1        1 0.21693236E+00 0.10450911E+03</pdfrwt>
<pdfrwt beam="1">  1       -1 0.37640872E-01 0.34142925E+02</pdfrwt>
<totfact> 0.61085271E+01</totfact>
</mgrwt>
</event>
<event>
 5    1  0.9399923E-003  0.5237220E+02  0.7546771E-02  0.1554507E+00
          2   -1    0    0  502    0  0.00000000000E+00  0.00000000000E+00  0.28228732850E+03  0.28228732850E+03  0.00000000000E+00 0. -1.
          1   -1    0    0  501    0 -0.00000000000E+00 -0.00000000000E+00 -0.42736579862E+03  0.42736579862E+03  0.00000000000E+00 0. -1.
         25    1    1    2    0    0 -0.56402665103E+02  0.48494419485E+02  0.20276345603E+03  0.24954155656E+03  0.12500000000E+03 0.  0.
          2    1    1    2  501    0  0.37363243535E+02 -0.36464784287E+02 -0.39995087987E+03  0.40334402037E+03  0.00000000000E+00 0. -1.
          1    1    1    2  502    0  0.19039421568E+02 -0.12029635198E+02  0.52108953717E+02  0.56767550186E+02  0.00000000000E+00 0. -1.
<mgrwt>
<rscale>  0 0.34343750E+02</rscale>
<asrwt>0</asrwt>
<pdfrwt beam="1">  1        2 0.43428820E-01 0.22521361E+02</pdfrwt>
<pdfrwt beam="2">  1        1 0.65748585E-01 0.52372196E+02</pdfrwt>
<totfact> 0.88029478E+02</totfact>
</mgrwt>
</event>
<event>
 5    1  0.9399923E-003  0.2275391E+03  0.7546771E-02  0.1226840E+00
         -1   -1    0    0    0  501 -0.00000000000E+00  0.00000000000E+00  0.22823575208E+03  0.22823575208E+03  0.00000000000E+00 0.  1.
          1   -1    0    0  502    0  0.00000000000E+00 -0.00000000000E+00 -0.11642634431E+04  0.11642634431E+04  0.00000000000E+00 0. -1.
         25    1    1    2    0    0  0.24543677734E+03 -0.20946225684E+02 -0.73244017387E+03  0.78279726899E+03  0.12500000000E+03 0.  0.
          2    1    1    2  502    0 -0.20716308198E+03 -0.43260445326E+02 -0.37057492979E+03  0.42674792004E+03  0.00000000000E+00 0. -1.
         -2    1    1    2    0  501 -0.38273695360E+02  0.64206671010E+02  0.16698741268E+03  0.18295400611E+03  0.00000000000E+00 0.  1.
<mgrwt>
<rscale>  0 0.13041572E+03</rscale>
<asrwt>0</asrwt>
<pdfrwt beam="2">  1        1 0.17911745E+00 0.22753912E+03</pdfrwt>
<pdfrwt beam="1">  1       -1 0.35113193E-01 0.74748728E+02</pdfrwt>
<totfact> 0.95747173E+01</totfact>
</mgrwt>
</event>
<event>
 5    1  0.9399923E-003  0.3080707E+02  0.7546771E-02  0.1599732E+00
         -2   -1    0    0    0  501 -0.00000000000E+00  0.00000000000E+00  0.72740810851E+03  0.72740810851E+03  0.00000000000E+00 0.  1.
          2   -1    0    0  502    0  0.00000000000E+00 -0.00000000000E+00 -0.29327112625E+03  0.29327112625E+03  0.00000000000E+00 0. -1.
         25    1    1    2    0    0  0.10651822811E+02 -0.19788959774E+02  0.78554219085E+02  0.14933462289E+03  0.12500000000E+03 0.  0.
          1    1    1    2  502    0  0.20374677342E+02  0.20532986882E+02 -0.25667548122E+03  0.25830027814E+03  0.00000000000E+00 0. -1.
         -1    1    1    2    0  501 -0.31026500153E+02 -0.74402710786E+00  0.61225824439E+03  0.61304433373E+03  0.00000000000E+00 0.  1.
<mgrwt>
<rscale>  0 0.29851877E+02</rscale>
<asrwt>0</asrwt>
<pdfrwt beam="2">  1        2 0.45118635E-01 0.28926303E+02</pdfrwt>
<pdfrwt beam="1">  1       -2 0.11190894E+00 0.30807067E+02</pdfrwt>
<totfact> 0.77948069E+01</totfact>
</mgrwt>
</event>
<event>
 5    1  0.9399923E-003  0.4830540E+02  0.7546771E-02  0.1530215E+00
          2   -1    0    0  502    0  0.00000000000E+00  0.00000000000E+00  0.72154785321E+03  0.72154785321E+03  0.00000000000E+00 0. -1.
          1   -1    0    0  501    0 -0.00000000000E+00 -0.00000000000E+00 -0.66274811701E+02  0.66274811701E+02  0.00000000000E+00 0. -1.
         25    1    1    2    0    0  0.28508858787E+02 -0.84851442726E+01  0.19808802271E+03  0.23611145131E+03  0.12500000000E+03 0.  0.
          2    1    1    2  501    0 -0.48132147186E+02 -0.12301710472E+02 -0.33676608463E+02  0.60017910917E+02  0.00000000000E+00 0. -1.
          1    1    1    2  502    0  0.19623288399E+02  0.20786854745E+02  0.49086162727E+03  0.49169330268E+03  0.00000000000E+00 0. -1.
<mgrwt>
<rscale>  0 0.37159984E+02</rscale>
<asrwt>0</asrwt>
<pdfrwt beam="1">  1        2 0.11100736E+00 0.28586129E+02</pdfrwt>
<pdfrwt beam="2">  1        1 0.10196125E-01 0.48305401E+02</pdfrwt>
<totfact> 0.33032233E+03</totfact>
</mgrwt>
</event>
<event>
 5    1  0.9399923E-003  0.8708247E+02  0.7546771E-02  0.1444724E+00
          2   -1    0    0  502    0  0.00000000000E+00  0.00000000000E+00  0.14373436084E+04  0.14373436084E+04  0.00000000000E+00 0. -1.
          1   -1    0    0  501    0 -0.00000000000E+00 -0.00000000000E+00 -0.71228890178E+03  0.71228890178E+03  0.00000000000E+00 0. -1.
         25    1    1    2    0    0  0.80432207821E+02 -0.72149137000E+02  0.75022434430E+03  0.76820336162E+03  0.12500000000E+03 0.  0.
          2    1    1    2  501    0 -0.51671232878E+02  0.70013344552E+02 -0.70029883370E+03  0.70568423619E+03  0.00000000000E+00 0. -1.
          1    1    1    2  502    0 -0.28760974943E+02  0.21357924485E+01  0.67512919598E+03  0.67574491234E+03  0.00000000000E+00 0. -1.
<mgrwt>
<rscale>  0 0.50114599E+02</rscale>
<asrwt>0</asrwt>
<pdfrwt beam="1">  1        2 0.22112979E+00 0.28840168E+02</pdfrwt>
<pdfrwt beam="2">  1        1 0.10958291E+00 0.87082469E+02</pdfrwt>
<totfact> 0.69798485E+01</totfact>
</mgrwt>
</event>
<event>
 5    1  0.9399923E-003  0.1176771E+03  0.7546771E-02  0.1401614E+00
          2   -1    0    0  502    0  0.00000000000E+00  0.00000000000E+00  0.40280877582E+03  0.40280877582E+03  0.00000000000E+00 0. -1.
         -2   -1    0    0    0  501 -0.00000000000E+00 -0.00000000000E+00 -0.22616956219E+03  0.22616956219E+03  0.00000000000E+00 0.  1.
         25    1    1    2    0    0 -0.76869753153E+02 -0.59113789447E+02  0.29593566486E+02  0.16094775000E+03  0.12500000000E+03 0.  0.
          1    1    1    2  502    0  0.84119393943E+02  0.87904282050E+02  0.29396115558E+03  0.31814524392E+03  0.00000000000E+00 0. -1.
         -1    1    1    2    0  501 -0.72496407894E+01 -0.28790492603E+02 -0.14691550843E+03  0.14988534409E+03  0.00000000000E+00 0.  1.
<mgrwt>
<rscale>  0 0.59107868E+02</rscale>
<asrwt>0</asrwt>
<pdfrwt beam="1">  1        2 0.61970581E-01 0.11767706E+03</pdfrwt>
<pdfrwt beam="2">  1       -2 0.34795317E-01 0.29689220E+02</pdfrwt>
<totfact> 0.59743496E+02</totfact>
</mgrwt>
</event>
<event>
 5    1  0.9399923E-003  0.1754524E+03  0.7546771E-02  0.1339440E+00
          1   -1    0    0  501    0 -0.00000000000E+00  0.00000000000E+00  0.80497353107E+03  0.80497353107E+03  0.00000000000E+00 0. -1.
          2   -1    0    0  502    0  0.00000000000E+00 -0.00000000000E+00 -0.23922768484E+04  0.23922768484E+04  0.00000000000E+00 0. -1.
         25    1    1    2    0    0  0.62737267324E+02 -0.19337151125E+03 -0.86629890094E+03  0.89856958097E+03  0.12500000000E+03 0.  0.
          2    1    1    2  501    0 -0.69535613874E+02  0.16076141686E+03  0.77892800543E+03  0.79837852701E+03  0.00000000000E+00 0. -1.
          1    1    1    2  502    0  0.67983465502E+01  0.32610094399E+02 -0.14999324218E+04  0.15003022715E+04  0.00000000000E+00 0. -1.
<mgrwt>
<rscale>  0 0.76449527E+02</rscale>
<asrwt>0</asrwt>
<pdfrwt beam="2">  1        2 0.36804258E+00 0.33311196E+02</pdfrwt>
<pdfrwt beam="1">  1        1 0.12384208E+00 0.17545243E+03</pdfrwt>
<totfact> 0.19418789E+01</totfact>
</mgrwt>
</event>
<event>
 5    1  0.9399923E-003  0.7890967E+02  0.7546771E-02  0.1401494E+00
         -2   -1    0    0    0  501 -0.00000000000E+00  0.00000000000E+00  0.51199223051E+02  0.51199223051E+02  0.00000000000E+00 0.  1.
          2   -1    0    0  502    0  0.00000000000E+00 -0.00000000000E+00 -0.20568060373E+04  0.20568060373E+04  0.00000000000E+00 0. -1.
         25    1    1    2    0    0  0.88945319761E+02  0.47240941125E+02 -0.54288000281E+03  0.56611542452E+03  0.12500000000E+03 0.  0.
          1    1    1    2  502    0 -0.41756954161E+02  0.14844854607E+02 -0.14632339661E+04  0.14639049329E+04  0.00000000000E+00 0. -1.
         -1    1    1    2    0  501 -0.47188365600E+02 -0.62085795732E+02  0.50715469129E+00  0.77984902933E+02  0.00000000000E+00 0.  1.
<mgrwt>
<rscale>  0 0.59135899E+02</rscale>
<asrwt>0</asrwt>
<pdfrwt beam="2">  1        2 0.31643166E+00 0.44317185E+02</pdfrwt>
<pdfrwt beam="1">  1       -2 0.78768045E-02 0.78909672E+02</pdfrwt>
<totfact> 0.75504629E+02</totfact>
</mgrwt>
</event>
<event>
 5    1  0.9399923E-003  0.9392729E+02  0.7546771E-02  0.1425109E+00
          1   -1    0    0  501    0 -0.00000000000E+00  0.00000000000E+00  0.92237024901E+03  0.92237024901E+03  0.00000000000E+00 0. -1.
          2   -1    0    0  502    0  0.00000000000E+00 -0.00000000000E+00 -0.29669166470E+04  0.29669166470E+04  0.00000000000E+00 0. -1.
         25    1    1    2    0    0 -0.54859713751E+02  0.93817726120E+02 -0.84006450117E+03  0.85623870506E+03  0.12500000000E+03 0.  0.
          2    1    1    2  501    0  0.30658183824E+02 -0.45425061671E+01  0.91301055365E+03  0.91353644135E+03  0.00000000000E+00 0. -1.
          1    1    1    2  502    0  0.24201529928E+02 -0.89275219953E+02 -0.21174924505E+04  0.21195117496E+04  0.00000000000E+00 0. -1.
<mgrwt>
<rscale>  0 0.53954400E+02</rscale>
<asrwt>0</asrwt>
<pdfrwt beam="2">  1        2 0.45644871E+00 0.93927291E+02</pdfrwt>
<pdfrwt beam="1">  1        1 0.14190312E+00 0.30992880E+02</pdfrwt>
<totfact> 0.73577405E+00</totfact>
</mgrwt>
</event>
<event>
 5    1  0.9399923E-003  0.6751793E+02  0.7546771E-02  0.1464951E+00
          1   -1    0    0  501    0 -0.00000000000E+00  0.00000000000E+00  0.22351239257E+03  0.22351239257E+03  0.00000000000E+00 0. -1.
          2   -1    0    0  502    0  0.00000000000E+00 -0.00000000000E+00 -0.34515573666E+04  0.34515573666E+04  0.00000000000E+00 0. -1.
         25    1    1    2    0    0 -0.15316359155E+02 -0.41369890713E+02 -0.30170218768E+03  0.32953796255E+03  0.12500000000E+03 0.  0.
          2    1    1    2  501    0 -0.30822890663E+02 -0.88921174571E+01  0.20799355877E+03  0.21045294208E+03  0.00000000000E+00 0. -1.
          1    1    1    2  502    0  0.46139249818E+02  0.50262008170E+02 -0.31343363451E+04  0.31350788546E+04  0.00000000000E+00 0. -1.
<mgrwt>
<rscale>  0 0.46539971E+02</rscale>
<asrwt>0</asrwt>
<pdfrwt beam="2">  1        2 0.53100882E+00 0.67517932E+02</pdfrwt>
<pdfrwt beam="1">  1        1 0.34386523E-01 0.32079906E+02</pdfrwt>
<totfact> 0.23667452E+01</totfact>
</mgrwt>
</event>
<event>
 5    1  0.9399923E-003  0.7126107E+02  0.7546771E-02  0.1518076E+00
          2   -1    0    0  502    0  0.00000000000E+00  0.00000000000E+00  0.16852698884E+03  0.16852698884E+03  0.00000000000E+00 0. -1.
          1   -1    0    0  501    0 -0.00000000000E+00 -0.00000000000E+00 -0.11121883852E+04  0.11121883852E+04  0.00000000000E+00 0. -1.
         25    1    1    2    0    0  0.71770899892E+02  0.40426589991E+02 -0.90796372909E+02  0.17508384444E+03  0.12500000000E+03 0.  0.
          2    1    1    2  501    0 -0.19718115135E+02  0.72437032263E+01 -0.96927074716E+03  0.96949835307E+03  0.00000000000E+00 0. -1.
          1    1    1    2  502    0 -0.52052784757E+02 -0.47670293217E+02  0.11640572368E+03  0.13613317656E+03  0.00000000000E+00 0. -1.
<mgrwt>
<rscale>  0 0.38690432E+02</rscale>
<asrwt>0</asrwt>
<pdfrwt beam="1">  1        2 0.25927228E-01 0.71261073E+02</pdfrwt>
<pdfrwt beam="2">  1        1 0.17110591E+00 0.21006554E+02</pdfrwt>
<totfact> 0.43500903E+02</totfact>
</mgrwt>
</event>
<event>
 5    1  0.9399923E-003  0.1475964E+03  0.7546771E-02  0.1223706E+00
          2   -1    0    0  502    0  0.00000000000E+00  0.00000000000E+00  0.17765107429E+04  0.17765107429E+04  0.00000000000E+00 0. -1.
          1   -1    0    0  501    0 -0.00000000000E+00 -0.00000000000E+00 -0.31137027963E+03  0.31137027963E+03  0.00000000000E+00 0. -1.
         25    1    1    2    0    0  0.16301925178E+03 -0.19524583788E+03  0.70135687425E+03  0.75645401626E+03  0.12500000000E+03 0.  0.
          2    1    1    2  501    0 -0.11728479941E+03  0.85324861409E+02 -0.26162059867E+03  0.29913440757E+03  0.00000000000E+00 0. -1.
          1    1    1    2  502    0 -0.45734452369E+02  0.10992097647E+03  0.10254041876E+04  0.10322925987E+04  0.00000000000E+00 0. -1.
<mgrwt>
<rscale>  0 0.13256016E+03</rscale>
<asrwt>0</asrwt>
<pdfrwt beam="1">  1        2 0.27330934E+00 0.11905571E+03</pdfrwt>
<pdfrwt beam="2">  1        1 0.47903121E-01 0.14759641E+03</pdfrwt>
<totfact> 0.12040048E+02</totfact>
</mgrwt>
</event>
<event>
 5    1  0.9399923E-003  0.5136113E+02  0.7546771E-02  0.1520912E+00
          1   -1    0    0  501    0 -0.00000000000E+00  0.00000000000E+00  0.79945845281E+02  0.79945845281E+02  0.00000000000E+00 0. -1.
          2   -1    0    0  502    0  0.00000000000E+00 -0.00000000000E+00 -0.10088333129E+04  0.10088333129E+04  0.00000000000E+00 0. -1.
         25    1    1    2    0    0  0.46934403382E+02 -0.22783140933E+02 -0.48354148491E+03  0.50215463491E+03  0.12500000000E+03 0.  0.
          2    1    1    2  501    0 -0.51200958004E+02 -0.54943738475E+01  0.60796967349E+02  0.79674321355E+02  0.00000000000E+00 0. -1.
          1    1    1    2  502    0  0.42665546227E+01  0.28277514780E+02 -0.50614295003E+03  0.50695020189E+03  0.00000000000E+00 0. -1.
<mgrwt>
<rscale>  0 0.38324977E+02</rscale>
<asrwt>0</asrwt>
<pdfrwt beam="2">  1        2 0.15520513E+00 0.28597576E+02</pdfrwt>
<pdfrwt beam="1">  1        1 0.12299361E-01 0.51361132E+02</pdfrwt>
<totfact> 0.17578426E+03</totfact>
</mgrwt>
</event>
<event>
 5    1  0.9399923E-003  0.8821488E+02  0.7546771E-02  0.1395012E+00
          2   -1    0    0  502    0  0.00000000000E+00  0.00000000000E+00  0.26476477175E+02  0.26476477175E+02  0.00000000000E+00 0. -1.
          1   -1    0    0  501    0 -0.00000000000E+00 -0.00000000000E+00 -0.23961337514E+04  0.23961337514E+04  0.00000000000E+00 0. -1.
         25    1    1    2    0    0  0.11767808638E+03 -0.21073098315E+02 -0.47039899711E+03  0.50119100548E+03  0.12500000000E+03 0.  0.
          2    1    1    2  501    0 -0.41727310935E+02 -0.83001283039E+00 -0.17659091298E+04  0.17664022510E+04  0.00000000000E+00 0. -1.
          1    1    1    2  502    0 -0.75950775445E+02  0.21903111145E+02 -0.13334914729E+03  0.15501697214E+03  0.00000000000E+00 0. -1.
<mgrwt>
<rscale>  0 0.60676997E+02</rscale>
<asrwt>0</asrwt>
<pdfrwt beam="1">  1        2 0.40733037E-02 0.88214881E+02</pdfrwt>
<pdfrwt beam="2">  1        1 0.36863601E+00 0.41735565E+02</pdfrwt>
<totfact> 0.61585433E+02</totfact>
</mgrwt>
</event>
<event>
 5    1  0.9399923E-003  0.7169736E+02  0.7546771E-02  0.1485537E+00
          2   -1    0    0  502    0  0.00000000000E+00  0.00000000000E+00  0.10937301906E+04  0.10937301906E+04  0.00000000000E+00 0. -1.
          1   -1    0    0  501    0 -0.00000000000E+00 -0.00000000000E+00 -0.19803446536E+03  0.19803446536E+03  0.00000000000E+00 0. -1.
         25    1    1    2    0    0 -0.16321405556E+02  0.53643894699E+02 -0.82085919172E+01  0.13724589866E+03  0.12500000000E+03 0.  0.
          2    1    1    2  501    0  0.95390533909E+00 -0.74735279946E+02 -0.11397994133E+03  0.13630003312E+03  0.00000000000E+00 0. -1.
          1    1    1    2  502    0  0.15367500217E+02  0.21091385247E+02  0.10178842585E+04  0.10182187242E+04  0.00000000000E+00 0. -1.
<mgrwt>
<rscale>  0 0.43255309E+02</rscale>
<asrwt>0</asrwt>
<pdfrwt beam="1">  1        2 0.16826618E+00 0.26096103E+02</pdfrwt>
<pdfrwt beam="2">  1        1 0.30466842E-01 0.71697362E+02</pdfrwt>
<totfact> 0.52329145E+02</totfact>
</mgrwt>
</event>
<event>
 5    1  0.9399923E-003  0.6415479E+02  0.7546771E-02  0.1381687E+00
          2   -1    0    0  502    0  0.00000000000E+00  0.00000000000E+00  0.16305745446E+04  0.16305745446E+04  0.00000000000E+00 0. -1.
          1   -1    0    0  501    0 -0.00000000000E+00 -0.00000000000E+00 -0.77117909457E+03  0.77117909457E+03  0.00000000000E+00 0. -1.
         25    1    1    2    0    0 -0.52902408988E+01 -0.28190993458E+02  0.11830053486E+03  0.17447846661E+03  0.12500000000E+03 0.  0.
          2    1    1    2  501    0 -0.58835932882E+02  0.26275004596E+02 -0.74099800291E+03  0.74379438233E+03  0.00000000000E+00 0. -1.
          1    1    1    2  502    0  0.64126173781E+02  0.19159888612E+01  0.14820929181E+04  0.14834807902E+04  0.00000000000E+00 0. -1.
<mgrwt>
<rscale>  0 0.64022423E+02</rscale>
<asrwt>0</asrwt>
<pdfrwt beam="1">  1        2 0.25085762E+00 0.64154791E+02</pdfrwt>
<pdfrwt beam="2">  1        1 0.11864294E+00 0.63890329E+02</pdfrwt>
<totfact> 0.47295906E+01</totfact>
</mgrwt>
</event>
<event>
 5    1  0.9399923E-003  0.1249074E+03  0.7546771E-02  0.1419434E+00
          1   -1    0    0  501    0 -0.00000000000E+00  0.00000000000E+00  0.18646732762E+04  0.18646732762E+04  0.00000000000E+00 0. -1.
          2   -1    0    0  502    0  0.00000000000E+00 -0.00000000000E+00 -0.35780185942E+03  0.35780185942E+03  0.00000000000E+00 0. -1.
         25    1    1    2    0    0 -0.99828814064E+02  0.44512339930E+02  0.24437396377E+03  0.29545012218E+03  0.12500000000E+03 0.  0.
          2    1    1    2  501    0  0.12185353017E+03 -0.34146462474E+02  0.15918008471E+04  0.15968231588E+04  0.00000000000E+00 0. -1.
          1    1    1    2  502    0 -0.22024716102E+02 -0.10365877456E+02 -0.32930339402E+03  0.33020185470E+03  0.00000000000E+00 0. -1.
<mgrwt>
<rscale>  0 0.55140836E+02</rscale>
<asrwt>0</asrwt>
<pdfrwt beam="2">  1        2 0.55046441E-01 0.24342135E+02</pdfrwt>
<pdfrwt beam="1">  1        1 0.28687281E+00 0.12490736E+03</pdfrwt>
<totfact> 0.55276217E+01</totfact>
</mgrwt>
</event>
<event>
 5    1  0.9399923E-003  0.5363066E+02  0.7546771E-02  0.1513229E+00
         -2   -1    0    0    0  501 -0.00000000000E+00  0.00000000000E+00  0.84823676735E+02  0.84823676735E+02  0.00000000000E+00 0.  1.
          2   -1    0    0  502    0  0.00000000000E+00 -0.00000000000E+00 -0.10785705680E+04  0.10785705680E+04  0.00000000000E+00 0. -1.
         25    1    1    2    0    0  0.50864421092E+02  0.22527696313E+02 -0.30915952577E+03  0.33808179307E+03  0.12500000000E+03 0.  0.
          1    1    1    2  502    0 -0.19533060756E+02  0.21214033828E+02 -0.74434375036E+03  0.74490213746E+03  0.00000000000E+00 0. -1.
         -1    1    1    2    0  501 -0.31331360335E+02 -0.43741730140E+02  0.59756384870E+02  0.80410314195E+02  0.00000000000E+00 0.  1.
<mgrwt>
<rscale>  0 0.39326204E+02</rscale>
<asrwt>0</asrwt>
<pdfrwt beam="2">  1        2 0.16593394E+00 0.28837054E+02</pdfrwt>
<pdfrwt beam="1">  1       -2 0.13049796E-01 0.53630663E+02</pdfrwt>
<totfact> 0.10576895E+03</totfact>
</mgrwt>
</event>
<event>
 5    1  0.9399923E-003  0.9527625E+02  0.7546771E-02  0.1299847E+00
          1   -1    0    0  501    0 -0.00000000000E+00  0.00000000000E+00  0.56069663229E+03  0.56069663229E+03  0.00000000000E+00 0. -1.
          2   -1    0    0  502    0  0.00000000000E+00 -0.00000000000E+00 -0.48066279129E+03  0.48066279129E+03  0.00000000000E+00 0. -1.
         25    1    1    2    0    0  0.45357597141E+02 -0.32426225275E+02 -0.18146175379E+03  0.22729307027E+03  0.12500000000E+03 0.  0.
          2    1    1    2  501    0 -0.48003310438E+02 -0.82299733603E+02  0.52135856703E+03  0.52999275408E+03  0.00000000000E+00 0. -1.
          1    1    1    2  502    0  0.26457132971E+01  0.11472595888E+03 -0.25986297224E+03  0.28407359923E+03  0.00000000000E+00 0. -1.
<mgrwt>
<rscale>  0 0.91252317E+02</rscale>
<asrwt>0</asrwt>
<pdfrwt beam="2">  1        2 0.73948122E-01 0.87398332E+02</pdfrwt>
<pdfrwt beam="1">  1        1 0.86261020E-01 0.95276251E+02</pdfrwt>
<totfact> 0.35963402E+02</totfact>
</mgrwt>
</event>
<event>
 5    1  0.9399923E-003  0.1205539E+03  0.7546771E-02  0.1326101E+00
          2   -1    0    0  502    0  0.00000000000E+00  0.00000000000E+00  0.20900857384E+04  0.20900857384E+04  0.00000000000E+00 0. -1.
         -2   -1    0    0    0  501 -0.00000000000E+00 -0.00000000000E+00 -0.12911816534E+03  0.12911816534E+03  0.00000000000E+00 0.  1.
         25    1    1    2    0    0 -0.13987521815E+02 -0.72492273768E+02  0.15053628112E+03  0.20913381471E+03  0.12500000000E+03 0.  0.
          1    1    1    2  502    0 -0.43064185223E+01  0.12381899188E+03  0.19006442911E+04  0.19046780330E+04  0.00000000000E+00 0. -1.
         -1    1    1    2    0  501  0.18293940337E+02 -0.51326718111E+02 -0.90212999203E+02  0.10539205601E+03  0.00000000000E+00 0.  1.
<mgrwt>
<rscale>  0 0.81048851E+02</rscale>
<asrwt>0</asrwt>
<pdfrwt beam="1">  1        2 0.32155163E+00 0.12055391E+03</pdfrwt>
<pdfrwt beam="2">  1       -2 0.19864335E-01 0.54489451E+02</pdfrwt>
<totfact> 0.14665770E+02</totfact>
</mgrwt>
</event>
<event>
 5    1  0.9399923E-003  0.3812644E+02  0.7546771E-02  0.1609236E+00
          2   -1    0    0  502    0  0.00000000000E+00  0.00000000000E+00  0.14018652972E+04  0.14018652972E+04  0.00000000000E+00 0. -1.
          1   -1    0    0  501    0 -0.00000000000E+00 -0.00000000000E+00 -0.10936138678E+04  0.10936138678E+04  0.00000000000E+00 0. -1.
         25    1    1    2    0    0 -0.24928451444E+02  0.53923307882E+02 -0.71218617217E+03  0.72550899006E+03  0.12500000000E+03 0.  0.
          2    1    1    2  501    0  0.13311812309E+02 -0.17617606233E+02 -0.37418037559E+03  0.37483134591E+03  0.00000000000E+00 0. -1.
          1    1    1    2  502    0  0.11616639135E+02 -0.36305701649E+02  0.13946179771E+04  0.13951388291E+04  0.00000000000E+00 0. -1.
<mgrwt>
<rscale>  0 0.29015202E+02</rscale>
<asrwt>0</asrwt>
<pdfrwt beam="1">  1        2 0.21567159E+00 0.38126443E+02</pdfrwt>
<pdfrwt beam="2">  1        1 0.16824829E+00 0.22081313E+02</pdfrwt>
<totfact> 0.40371721E+01</totfact>
</mgrwt>
</event>
<event>
 5    1  0.9399923E-003  0.6045517E+02  0.7546771E-02  0.1408556E+00
         -2   -1    0    0    0  501 -0.00000000000E+00  0.00000000000E+00  0.46022020636E+03  0.46022020636E+03  0.00000000000E+00 0.  1.
          2   -1    0    0  502    0  0.00000000000E+00 -0.00000000000E+00 -0.78419830570E+03  0.78419830570E+03  0.00000000000E+00 0. -1.
         25    1    1    2    0    0 -0.85144625995E+01 -0.23653272252E+01 -0.11914620527E+03  0.17291301015E+03  0.12500000000E+03 0.  0.
          1    1    1    2  502    0  0.58991302446E+02  0.23498898017E+02 -0.63485086479E+03  0.63801864588E+03  0.00000000000E+00 0. -1.
         -1    1    1    2    0  501 -0.50476839847E+02 -0.21133570792E+02  0.43001897072E+03  0.43348685604E+03  0.00000000000E+00 0.  1.
<mgrwt>
<rscale>  0 0.57517399E+02</rscale>
<asrwt>0</asrwt>
<pdfrwt beam="2">  1        2 0.12064589E+00 0.60455175E+02</pdfrwt>
<pdfrwt beam="1">  1       -2 0.70803109E-01 0.54722383E+02</pdfrwt>
<totfact> 0.74062766E+01</totfact>
</mgrwt>
</event>
<event>
 5    1  0.9399923E-003  0.2067585E+03  0.7546771E-02  0.1208505E+00
          2   -1    0    0  502    0  0.00000000000E+00  0.00000000000E+00  0.14442591724E+04  0.14442591724E+04  0.00000000000E+00 0. -1.
          1   -1    0    0  501    0 -0.00000000000E+00 -0.00000000000E+00 -0.72293175730E+03  0.72293175730E+03  0.00000000000E+00 0. -1.
         25    1    1    2    0    0  0.15409656604E+03 -0.10925208955E+03  0.25403049676E+02  0.22793000169E+03  0.12500000000E+03 0.  0.
          2    1    1    2  501    0 -0.61007522252E+02 -0.78980611364E+02 -0.60921532585E+03  0.61733553923E+03  0.00000000000E+00 0. -1.
          1    1    1    2  502    0 -0.93089043792E+02  0.18823270091E+03  0.13051396913E+04  0.13219253888E+04  0.00000000000E+00 0. -1.
<mgrwt>
<rscale>  0 0.14364646E+03</rscale>
<asrwt>0</asrwt>
<pdfrwt beam="1">  1        2 0.22219372E+00 0.20675848E+03</pdfrwt>
<pdfrwt beam="2">  1        1 0.11122027E+00 0.99799072E+02</pdfrwt>
<totfact> 0.57591198E+01</totfact>
</mgrwt>
</event>
<event>
 5    1  0.9399923E-003  0.1007154E+03  0.7546771E-02  0.1405757E+00
          1   -1    0    0  501    0 -0.00000000000E+00  0.00000000000E+00  0.86260524544E+03  0.86260524544E+03  0.00000000000E+00 0. -1.
          2   -1    0    0  502    0  0.00000000000E+00 -0.00000000000E+00 -0.30867753862E+03  0.30867753862E+03  0.00000000000E+00 0. -1.
         25    1    1    2    0    0  0.37551294130E+01  0.83948730375E+02  0.17025184742E+03  0.22731515981E+03  0.12500000000E+03 0.  0.
          2    1    1    2  501    0  0.25549355596E+02 -0.10033721546E+03  0.65875741406E+03  0.66684455232E+03  0.00000000000E+00 0. -1.
          1    1    1    2  502    0 -0.29304485009E+02  0.16388485082E+02 -0.27508155466E+03  0.27712307193E+03  0.00000000000E+00 0. -1.
<mgrwt>
<rscale>  0 0.58151534E+02</rscale>
<asrwt>0</asrwt>
<pdfrwt beam="2">  1        2 0.47488852E-01 0.33575814E+02</pdfrwt>
<pdfrwt beam="1">  1        1 0.13270850E+00 0.10071538E+03</pdfrwt>
<totfact> 0.30789620E+02</totfact>
</mgrwt>
</event>
<event>
 5    1  0.9399923E-003  0.4280825E+02  0.7546771E-02  0.1604607E+00
         -3   -1    0    0    0  501 -0.00000000000E+00  0.00000000000E+00  0.46490468360E+02  0.46490468360E+02  0.00000000000E+00 0.  1.
          1   -1    0    0  502    0  0.00000000000E+00 -0.00000000000E+00 -0.19216538931E+04  0.19216538931E+04  0.00000000000E+00 0. -1.
         25    1    1    2    0    0 -0.59274339860E+01 -0.43678504341E+02 -0.72783502444E+03  0.73980522371E+03  0.12500000000E+03 0.  0.
          2    1    1    2  502    0 -0.14061697521E+02  0.40652626966E+02 -0.11848963112E+04  0.11856768682E+04  0.00000000000E+00 0. -1.
         -2    1    1    2    0  501  0.19989131507E+02  0.30258773743E+01  0.37567910930E+02  0.42662269559E+02  0.00000000000E+00 0.  1.
<mgrwt>
<rscale>  0 0.29418501E+02</rscale>
<asrwt>0</asrwt>
<pdfrwt beam="2">  1        1 0.29563909E+00 0.42808246E+02</pdfrwt>
<pdfrwt beam="1">  1       -3 0.71523792E-02 0.20216857E+02</pdfrwt>
<totfact> 0.22856306E+02</totfact>
</mgrwt>
</event>
<event>
 5    1  0.9399923E-003  0.6436644E+02  0.7546771E-02  0.1470647E+00
          2   -1    0    0  502    0  0.00000000000E+00  0.00000000000E+00  0.49857777094E+03  0.49857777094E+03  0.00000000000E+00 0. -1.
         -2   -1    0    0    0  501 -0.00000000000E+00 -0.00000000000E+00 -0.40404526867E+02  0.40404526867E+02  0.00000000000E+00 0.  1.
         25    1    1    2    0    0 -0.84555970452E+02  0.29347693916E+01  0.31795890505E+03  0.35196759838E+03  0.12500000000E+03 0.  0.
          1    1    1    2  502    0  0.56695815047E+02  0.13410846933E+02  0.14317831320E+03  0.15457779799E+03  0.00000000000E+00 0. -1.
         -1    1    1    2    0  501  0.27860155405E+02 -0.16345616324E+02 -0.29639741746E+01  0.32436901441E+02  0.00000000000E+00 0.  1.
<mgrwt>
<rscale>  0 0.45597292E+02</rscale>
<asrwt>0</asrwt>
<pdfrwt beam="1">  1        2 0.76704268E-01 0.64366437E+02</pdfrwt>
<pdfrwt beam="2">  1       -2 0.62160814E-02 0.32301199E+02</pdfrwt>
<totfact> 0.73472907E+03</totfact>
</mgrwt>
</event>
<event>
 5    1  0.9399923E-003  0.2001031E+03  0.7546771E-02  0.1242549E+00
         -1   -1    0    0    0  501 -0.00000000000E+00  0.00000000000E+00  0.12195430963E+04  0.12195430963E+04  0.00000000000E+00 0.  1.
          1   -1    0    0  502    0  0.00000000000E+00 -0.00000000000E+00 -0.19806107513E+04  0.19806107513E+04  0.00000000000E+00 0. -1.
         25    1    1    2    0    0  0.24572741263E+03 -0.40296477782E+02  0.17880559672E+03  0.33106224318E+03  0.12500000000E+03 0.  0.
          2    1    1    2  502    0 -0.51563067214E+02  0.50770067219E+02 -0.18939853017E+04  0.18953671604E+04  0.00000000000E+00 0. -1.
         -2    1    1    2    0  501 -0.19416434541E+03 -0.10473589437E+02  0.95411204999E+03  0.97372444410E+03  0.00000000000E+00 0.  1.
<mgrwt>
<rscale>  0 0.12033280E+03</rscale>
<asrwt>0</asrwt>
<pdfrwt beam="2">  1        1 0.30470934E+00 0.72362626E+02</pdfrwt>
<pdfrwt beam="1">  1       -1 0.18762202E+00 0.20010307E+03</pdfrwt>
<totfact> 0.85877688E-01</totfact>
</mgrwt>
</event>
<event>
 5    1  0.9399923E-003  0.8458495E+03  0.7546771E-02  0.1124582E+00
          2   -1    0    0  502    0  0.00000000000E+00  0.00000000000E+00  0.24545979715E+04  0.24545979715E+04  0.00000000000E+00 0. -1.
          1   -1    0    0  501    0 -0.00000000000E+00 -0.00000000000E+00 -0.78197623777E+03  0.78197623777E+03  0.00000000000E+00 0. -1.
         25    1    1    2    0    0 -0.38920598594E+03 -0.71170823282E+03  0.50930321080E+03  0.96593202074E+03  0.12500000000E+03 0.  0.
          2    1    1    2  501    0 -0.58932417252E+02 -0.25352463910E+02 -0.44286214259E+03  0.44748480932E+03  0.00000000000E+00 0. -1.
          1    1    1    2  502    0  0.44813840319E+03  0.73706069673E+03  0.16061806655E+04  0.18231573792E+04  0.00000000000E+00 0. -1.
<mgrwt>
<rscale>  0 0.23294829E+03</rscale>
<asrwt>0</asrwt>
<pdfrwt beam="1">  1        2 0.37763045E+00 0.84584955E+03</pdfrwt>
<pdfrwt beam="2">  1        1 0.12030404E+00 0.64154324E+02</pdfrwt>
<totfact> 0.13160673E+01</totfact>
</mgrwt>
</event>
<event>
 5    1  0.9399923E-003  0.6239780E+02  0.7546771E-02  0.1525280E+00
          2   -1    0    0  502    0  0.00000000000E+00  0.00000000000E+00  0.32474868611E+03  0.32474868611E+03  0.00000000000E+00 0. -1.
          1   -1    0    0  501    0 -0.00000000000E+00 -0.00000000000E+00 -0.73304916769E+02  0.73304916769E+02  0.00000000000E+00 0. -1.
         25    1    1    2    0    0  0.10897584037E+02 -0.78919573201E+02  0.21769819590E+03  0.26337152631E+03  0.12500000000E+03 0.  0.
          2    1    1    2  501    0  0.33402047619E+01  0.61028770940E+02 -0.29182002438E+02  0.67729292899E+02  0.00000000000E+00 0. -1.
          1    1    1    2  502    0 -0.14237788799E+02  0.17890802260E+02  0.62927575874E+02  0.66952783668E+02  0.00000000000E+00 0. -1.
<mgrwt>
<rscale>  0 0.37771791E+02</rscale>
<asrwt>0</asrwt>
<pdfrwt beam="1">  1        2 0.49961336E-01 0.22864720E+02</pdfrwt>
<pdfrwt beam="2">  1        1 0.11277680E-01 0.62397798E+02</pdfrwt>
<totfact> 0.66999925E+03</totfact>
</mgrwt>
</event>
<event>
 5    1  0.9399923E-003  0.8480829E+02  0.7546771E-02  0.1323732E+00
          2   -1    0    0  502    0  0.00000000000E+00  0.00000000000E+00  0.12366952043E+04  0.12366952043E+04  0.00000000000E+00 0. -1.
          1   -1    0    0  501    0 -0.00000000000E+00 -0.00000000000E+00 -0.79284646017E+03  0.79284646017E+03  0.00000000000E+00 0. -1.
         25    1    1    2    0    0  0.25170450692E+02  0.45409946730E+02  0.37588741575E+03  0.39951466077E+03  0.12500000000E+03 0.  0.
          2    1    1    2  501    0 -0.84946585781E+02  0.63938007530E+01 -0.77685702103E+03  0.78151368142E+03  0.00000000000E+00 0. -1.
          1    1    1    2  502    0  0.59776135089E+02 -0.51803747483E+02  0.84481834941E+03  0.84851332228E+03  0.00000000000E+00 0. -1.
<mgrwt>
<rscale>  0 0.81904447E+02</rscale>
<asrwt>0</asrwt>
<pdfrwt beam="1">  1        2 0.19026080E+00 0.79100029E+02</pdfrwt>
<pdfrwt beam="2">  1        1 0.12197638E+00 0.84808293E+02</pdfrwt>
<totfact> 0.70047869E+01</totfact>
</mgrwt>
</event>
<event>
 5    1  0.9399923E-003  0.6487498E+02  0.7546771E-02  0.1466545E+00
          1   -1    0    0  501    0 -0.00000000000E+00  0.00000000000E+00  0.26720810412E+03  0.26720810412E+03  0.00000000000E+00 0. -1.
          2   -1    0    0  502    0  0.00000000000E+00 -0.00000000000E+00 -0.55147983122E+03  0.55147983122E+03  0.00000000000E+00 0. -1.
         25    1    1    2    0    0  0.61184618920E+02 -0.38566212812E+02  0.15561636937E+03  0.21230253126E+03  0.12500000000E+03 0.  0.
          2    1    1    2  501    0 -0.63730474780E+02  0.56590911405E+01  0.70342919611E+02  0.95087985927E+02  0.00000000000E+00 0. -1.
          1    1    1    2  502    0  0.25458558602E+01  0.32907121672E+02 -0.51023101608E+03  0.51129741815E+03  0.00000000000E+00 0. -1.
<mgrwt>
<rscale>  0 0.46273407E+02</rscale>
<asrwt>0</asrwt>
<pdfrwt beam="2">  1        2 0.84843050E-01 0.33005455E+02</pdfrwt>
<pdfrwt beam="1">  1        1 0.41108940E-01 0.64874979E+02</pdfrwt>
<totfact> 0.79396501E+02</totfact>
</mgrwt>
</event>
<event>
 5    1  0.9399923E-003  0.1204944E+03  0.7546771E-02  0.1304520E+00
          2   -1    0    0  502    0  0.00000000000E+00  0.00000000000E+00  0.20752347369E+04  0.20752347369E+04  0.00000000000E+00 0. -1.
          1   -1    0    0  501    0 -0.00000000000E+00 -0.00000000000E+00 -0.16094771385E+04  0.16094771385E+04  0.00000000000E+00 0. -1.
         25    1    1    2    0    0 -0.12879930759E+02  0.53321517069E+02  0.25146410060E+03  0.28612631946E+03  0.12500000000E+03 0.  0.
          2    1    1    2  501    0  0.27725646844E+02 -0.11783875799E+03 -0.15892367253E+04  0.15938406612E+04  0.00000000000E+00 0. -1.
          1    1    1    2  502    0 -0.14845716086E+02  0.64517240924E+02  0.18035302231E+04  0.18047448948E+04  0.00000000000E+00 0. -1.
<mgrwt>
<rscale>  0 0.89314722E+02</rscale>
<asrwt>0</asrwt>
<pdfrwt beam="1">  1        2 0.31926689E+00 0.66203245E+02</pdfrwt>
<pdfrwt beam="2">  1        1 0.24761187E+00 0.12049439E+03</pdfrwt>
<totfact> 0.71566004E+00</totfact>
</mgrwt>
</event>
<event>
 5    1  0.9399923E-003  0.4151415E+02  0.7546771E-02  0.1526571E+00
          1   -1    0    0  501    0 -0.00000000000E+00  0.00000000000E+00  0.50820317925E+03  0.50820317925E+03  0.00000000000E+00 0. -1.
          2   -1    0    0  502    0  0.00000000000E+00 -0.00000000000E+00 -0.13711253846E+04  0.13711253846E+04  0.00000000000E+00 0. -1.
         25    1    1    2    0    0 -0.33370630080E+02  0.59726447703E+02  0.43235149121E+02  0.14891314793E+03  0.12500000000E+03 0.  0.
          2    1    1    2  501    0  0.50532834366E+01 -0.40775321964E+02  0.41088408643E+03  0.41293328158E+03  0.00000000000E+00 0. -1.
          1    1    1    2  502    0  0.28317346644E+02 -0.18951125738E+02 -0.13170414409E+04  0.13174821343E+04  0.00000000000E+00 0. -1.
<mgrwt>
<rscale>  0 0.37610383E+02</rscale>
<asrwt>0</asrwt>
<pdfrwt beam="2">  1        2 0.21094236E+00 0.34073704E+02</pdfrwt>
<pdfrwt beam="1">  1        1 0.78185105E-01 0.41514152E+02</pdfrwt>
<totfact> 0.11866725E+02</totfact>
</mgrwt>
</event>
<event>
 5    1  0.9399923E-003  0.6517859E+02  0.7546771E-02  0.1497397E+00
          2   -1    0    0  502    0  0.00000000000E+00  0.00000000000E+00  0.45524018217E+02  0.45524018217E+02  0.00000000000E+00 0. -1.
          1   -1    0    0  501    0 -0.00000000000E+00 -0.00000000000E+00 -0.14597767339E+04  0.14597767339E+04  0.00000000000E+00 0. -1.
         25    1    1    2    0    0 -0.10627490675E+01  0.67013790423E+02 -0.74560128411E+02  0.16023791777E+03  0.12500000000E+03 0.  0.
          2    1    1    2  501    0  0.15602556622E+02 -0.44937755556E+02 -0.12638630228E+04  0.12647579144E+04  0.00000000000E+00 0. -1.
          1    1    1    2  502    0 -0.14539807555E+02 -0.22076034867E+02 -0.75829564502E+02  0.80304919973E+02  0.00000000000E+00 0. -1.
<mgrwt>
<rscale>  0 0.41508218E+02</rscale>
<asrwt>0</asrwt>
<pdfrwt beam="1">  1        2 0.70036941E-02 0.65178595E+02</pdfrwt>
<pdfrwt beam="2">  1        1 0.22458107E+00 0.26434018E+02</pdfrwt>
<totfact> 0.11760981E+03</totfact>
</mgrwt>
</event>
<event>
 5    1  0.9399923E-003  0.1802846E+03  0.7546771E-02  0.1351965E+00
          2   -1    0    0  502    0  0.00000000000E+00  0.00000000000E+00  0.19416342355E+04  0.19416342355E+04  0.00000000000E+00 0. -1.
          1   -1    0    0  501    0 -0.00000000000E+00 -0.00000000000E+00 -0.12173443722E+04  0.12173443722E+04  0.00000000000E+00 0. -1.
         25    1    1    2    0    0  0.13435122074E+03  0.71337295823E+02 -0.57418301391E+02  0.20508808260E+03  0.12500000000E+03 0.  0.
          2    1    1    2  501    0  0.25794851357E+02  0.13497022382E+02 -0.10814988034E+04  0.10818905701E+04  0.00000000000E+00 0. -1.
          1    1    1    2  502    0 -0.16014607210E+03 -0.84834318205E+02  0.18632069681E+04  0.18719999551E+04  0.00000000000E+00 0. -1.
<mgrwt>
<rscale>  0 0.72446903E+02</rscale>
<asrwt>0</asrwt>
<pdfrwt beam="1">  1        2 0.29871296E+00 0.18028456E+03</pdfrwt>
<pdfrwt beam="2">  1        1 0.18728375E+00 0.29112608E+02</pdfrwt>
<totfact> 0.15245014E+01</totfact>
</mgrwt>
</event>
<event>
 5    1  0.9399923E-003  0.7637830E+02  0.7546771E-02  0.1343952E+00
          1   -1    0    0  501    0 -0.00000000000E+00  0.00000000000E+00  0.37917072294E+03  0.37917072294E+03  0.00000000000E+00 0. -1.
          2   -1    0    0  502    0  0.00000000000E+00 -0.00000000000E+00 -0.77746015679E+03  0.77746015679E+03  0.00000000000E+00 0. -1.
         25    1    1    2    0    0 -0.91112897785E+02 -0.52993789150E+02  0.31183693357E+02  0.16645517283E+03  0.12500000000E+03 0.  0.
          2    1    1    2  501    0  0.70653867005E+02 -0.20597498970E+02  0.27341651969E+03  0.28314805160E+03  0.00000000000E+00 0. -1.
          3    1    1    2  502    0  0.20459030781E+02  0.73591288119E+02 -0.70288964691E+03  0.70702765530E+03  0.00000000000E+00 0. -1.
<mgrwt>
<rscale>  0 0.74973742E+02</rscale>
<asrwt>0</asrwt>
<pdfrwt beam="2">  1        2 0.11960926E+00 0.76378300E+02</pdfrwt>
<pdfrwt beam="1">  1        1 0.58333957E-01 0.73595013E+02</pdfrwt>
<totfact> 0.34642211E+02</totfact>
</mgrwt>
</event>
<event>
 5    1  0.9399923E-003  0.5017727E+02  0.7546771E-02  0.1456468E+00
          2   -1    0    0  502    0  0.00000000000E+00  0.00000000000E+00  0.35747572358E+03  0.35747572358E+03  0.00000000000E+00 0. -1.
          1   -1    0    0  501    0 -0.00000000000E+00 -0.00000000000E+00 -0.11194186858E+04  0.11194186858E+04  0.00000000000E+00 0. -1.
         25    1    1    2    0    0 -0.92464788155E+02 -0.10745600769E+02 -0.37615118255E+02  0.16032810766E+03  0.12500000000E+03 0.  0.
          2    1    1    2  501    0  0.43337107397E+02  0.15144243673E+02 -0.10178721611E+04  0.10189068600E+04  0.00000000000E+00 0. -1.
          1    1    1    2  502    0  0.49127680758E+02 -0.43986429037E+01  0.29354431718E+03  0.29765944168E+03  0.00000000000E+00 0. -1.
<mgrwt>
<rscale>  0 0.47994668E+02</rscale>
<asrwt>0</asrwt>
<pdfrwt beam="1">  1        2 0.54996265E-01 0.50177271E+02</pdfrwt>
<pdfrwt beam="2">  1        1 0.17221826E+00 0.45907004E+02</pdfrwt>
<totfact> 0.18359205E+02</totfact>
</mgrwt>
</event>
<event>
 5    1  0.9399923E-003  0.1144362E+03  0.7546771E-02  0.1263502E+00
          1   -1    0    0  501    0 -0.00000000000E+00  0.00000000000E+00  0.98690652099E+03  0.98690652099E+03  0.00000000000E+00 0. -1.
          2   -1    0    0  502    0  0.00000000000E+00 -0.00000000000E+00 -0.11310293063E+04  0.11310293063E+04  0.00000000000E+00 0. -1.
         25    1    1    2    0    0 -0.79777582099E+02  0.33476365697E+01  0.19411778271E+02  0.14959106394E+03  0.12500000000E+03 0.  0.
          2    1    1    2  501    0  0.57813943367E+02 -0.10371462728E+03  0.89600344990E+03  0.90383701970E+03  0.00000000000E+00 0. -1.
          1    1    1    2  502    0  0.21963638733E+02  0.10036699071E+03 -0.10595380135E+04  0.10645077436E+04  0.00000000000E+00 0. -1.
<mgrwt>
<rscale>  0 0.10843161E+03</rscale>
<asrwt>0</asrwt>
<pdfrwt beam="2">  1        2 0.17400451E+00 0.10274208E+03</pdfrwt>
<pdfrwt beam="1">  1        1 0.15183177E+00 0.11443622E+03</pdfrwt>
<totfact> 0.54982177E+01</totfact>
</mgrwt>
</event>
<event>
 5    1  0.9399923E-003  0.7468213E+02  0.7546771E-02  0.1440640E+00
          1   -1    0    0  501    0 -0.00000000000E+00  0.00000000000E+00  0.29018597393E+03  0.29018597393E+03  0.00000000000E+00 0. -1.
          2   -1    0    0  502    0  0.00000000000E+00 -0.00000000000E+00 -0.45153409096E+03  0.45153409096E+03  0.00000000000E+00 0. -1.
         25    1    1    2    0    0  0.20506902552E+02 -0.42892353223E+02  0.48180973966E+02  0.14215024893E+03  0.12500000000E+03 0.  0.
          2    1    1    2  501    0 -0.12204832253E+02 -0.32447624538E+02  0.18988697244E+03  0.19302556455E+03  0.00000000000E+00 0. -1.
          1    1    1    2  502    0 -0.83020702992E+01  0.75339977761E+02 -0.39941606344E+03  0.40654425141E+03  0.00000000000E+00 0. -1.
<mgrwt>
<rscale>  0 0.50882327E+02</rscale>
<asrwt>0</asrwt>
<pdfrwt beam="2">  1        2 0.69466783E-01 0.74682129E+02</pdfrwt>
<pdfrwt beam="1">  1        1 0.44643996E-01 0.34667078E+02</pdfrwt>
<totfact> 0.87508981E+02</totfact>
</mgrwt>
</event>
<event>
 5    1  0.9399923E-003  0.9738505E+02  0.7546771E-02  0.1294974E+00
          1   -1    0    0  501    0 -0.00000000000E+00  0.00000000000E+00  0.10106026342E+04  0.10106026342E+04  0.00000000000E+00 0. -1.
          2   -1    0    0  502    0  0.00000000000E+00 -0.00000000000E+00 -0.11603004700E+04  0.11603004700E+04  0.00000000000E+00 0. -1.
         25    1    1    2    0    0  0.88970371010E+02  0.48777396637E+02 -0.41249177316E+01  0.16104960815E+03  0.12500000000E+03 0.  0.
          2    1    1    2  501    0 -0.13959972126E+02 -0.97510314350E+02  0.92767208034E+03  0.93288725518E+03  0.00000000000E+00 0. -1.
          1    1    1    2  502    0 -0.75010398884E+02  0.48732917713E+02 -0.10732449985E+04  0.10769662409E+04  0.00000000000E+00 0. -1.
<mgrwt>
<rscale>  0 0.93333688E+02</rscale>
<asrwt>0</asrwt>
<pdfrwt beam="2">  1        2 0.17850776E+00 0.89450865E+02</pdfrwt>
<pdfrwt beam="1">  1        1 0.15547733E+00 0.97385054E+02</pdfrwt>
<totfact> 0.51867233E+01</totfact>
</mgrwt>
</event>
<event>
 5    1  0.9399923E-003  0.2758367E+02  0.7546771E-02  0.1650252E+00
          2   -1    0    0  502    0  0.00000000000E+00  0.00000000000E+00  0.48199231562E+03  0.48199231562E+03  0.00000000000E+00 0. -1.
          1   -1    0    0  501    0 -0.00000000000E+00 -0.00000000000E+00 -0.21870048176E+03  0.21870048176E+03  0.00000000000E+00 0. -1.
         25    1    1    2    0    0  0.32467077259E+02 -0.35228390592E+02  0.23635733148E+02  0.13593674445E+03  0.12500000000E+03 0.  0.
          2    1    1    2  501    0 -0.10592525195E+02  0.25194357965E+02 -0.16103757295E+03  0.16334031090E+03  0.00000000000E+00 0. -1.
          1    1    1    2  502    0 -0.21874552065E+02  0.10034032627E+02  0.40069367366E+03  0.40141574203E+03  0.00000000000E+00 0. -1.
<mgrwt>
<rscale>  0 0.25764934E+02</rscale>
<asrwt>0</asrwt>
<pdfrwt beam="1">  1        2 0.74152664E-01 0.24066114E+02</pdfrwt>
<pdfrwt beam="2">  1        1 0.33646228E-01 0.27583674E+02</pdfrwt>
<totfact> 0.11435026E+03</totfact>
</mgrwt>
</event>
<event>
 5    1  0.9399923E-003  0.1497724E+03  0.7546771E-02  0.1332788E+00
          2   -1    0    0  502    0  0.00000000000E+00  0.00000000000E+00  0.26450458926E+04  0.26450458926E+04  0.00000000000E+00 0. -1.
          1   -1    0    0  501    0 -0.00000000000E+00 -0.00000000000E+00 -0.46519918422E+02  0.46519918422E+02  0.00000000000E+00 0. -1.
         25    1    1    2    0    0  0.89094786236E+02  0.70372568968E+02  0.35857717624E+03  0.39634930392E+03  0.12500000000E+03 0.  0.
          2    1    1    2  501    0  0.32655366596E+02  0.25369314452E+02 -0.78478325683E+01  0.42089946060E+02  0.00000000000E+00 0. -1.
          1    1    1    2  502    0 -0.12175015283E+03 -0.95741883420E+02  0.22477966305E+04  0.22531265610E+04  0.00000000000E+00 0. -1.
<mgrwt>
<rscale>  0 0.78697930E+02</rscale>
<asrwt>0</asrwt>
<pdfrwt beam="1">  1        2 0.40693002E+00 0.14977238E+03</pdfrwt>
<pdfrwt beam="2">  1        1 0.71569126E-02 0.41351845E+02</pdfrwt>
<totfact> 0.42916646E+02</totfact>
</mgrwt>
</event>
<event>
 5    1  0.9399923E-003  0.1322761E+03  0.7546771E-02  0.1295277E+00
         -2   -1    0    0    0  501 -0.00000000000E+00  0.00000000000E+00  0.96173462855E+02  0.96173462855E+02  0.00000000000E+00 0.  1.
          2   -1    0    0  502    0  0.00000000000E+00 -0.00000000000E+00 -0.90140599532E+03  0.90140599532E+03  0.00000000000E+00 0. -1.
         25    1    1    2    0    0  0.75796036418E+02 -0.34126822068E+02 -0.22821533275E+03  0.27316097309E+03  0.12500000000E+03 0.  0.
          1    1    1    2  502    0  0.65096375710E+02 -0.86676833574E+01 -0.57337675054E+03  0.57712525930E+03  0.00000000000E+00 0. -1.
         -1    1    1    2    0  501 -0.14089241213E+03  0.42794505425E+02 -0.36404491786E+01  0.14729322578E+03  0.00000000000E+00 0.  1.
<mgrwt>
<rscale>  0 0.93202428E+02</rscale>
<asrwt>0</asrwt>
<pdfrwt beam="2">  1        2 0.13867785E+00 0.65670898E+02</pdfrwt>
<pdfrwt beam="1">  1       -2 0.14795917E-01 0.13227614E+03</pdfrwt>
<totfact> 0.10985143E+03</totfact>
</mgrwt>
</event>
<event>
 5    1  0.9399923E-003  0.5872942E+02  0.7546771E-02  0.1523938E+00
          2   -1    0    0  502    0  0.00000000000E+00  0.00000000000E+00  0.21820261789E+03  0.21820261789E+03  0.00000000000E+00 0. -1.
         -2   -1    0    0    0  501 -0.00000000000E+00 -0.00000000000E+00 -0.31327709359E+03  0.31327709359E+03  0.00000000000E+00 0.  1.
         25    1    1    2    0    0  0.15213875437E+02 -0.60544690509E+02 -0.15122931049E+03  0.20589421047E+03  0.12500000000E+03 0.  0.
          1    1    1    2  502    0  0.20327714271E+02  0.13694771827E+02  0.18359925534E+03  0.18522810074E+03  0.00000000000E+00 0. -1.
         -1    1    1    2    0  501 -0.35541589708E+02  0.46849918682E+02 -0.12744442056E+03  0.14035740027E+03  0.00000000000E+00 0.  1.
<mgrwt>
<rscale>  0 0.37940550E+02</rscale>
<asrwt>0</asrwt>
<pdfrwt beam="1">  1        2 0.33569634E-01 0.24510462E+02</pdfrwt>
<pdfrwt beam="2">  1       -2 0.48196476E-01 0.58729424E+02</pdfrwt>
<totfact> 0.60976625E+02</totfact>
</mgrwt>
</event>
<event>
 5    1  0.9399923E-003  0.8805009E+02  0.7546771E-02  0.1382129E+00
          2   -1    0    0  502    0  0.00000000000E+00  0.00000000000E+00  0.67216798218E+03  0.67216798218E+03  0.00000000000E+00 0. -1.
         -2   -1    0    0    0  501 -0.00000000000E+00 -0.00000000000E+00 -0.10629612438E+03  0.10629612438E+03  0.00000000000E+00 0.  1.
         25    1    1    2    0    0 -0.64843756371E+02 -0.47971800802E+02  0.23051266358E+03  0.27434849094E+03  0.12500000000E+03 0.  0.
          1    1    1    2  502    0  0.30469625991E+02 -0.34973381979E+02  0.39410096684E+03  0.39682125399E+03  0.00000000000E+00 0. -1.
         -1    1    1    2    0  501  0.34374130380E+02  0.82945182782E+02 -0.58741772620E+02  0.10729436163E+03  0.00000000000E+00 0.  1.
<mgrwt>
<rscale>  0 0.63907529E+02</rscale>
<asrwt>0</asrwt>
<pdfrwt beam="1">  1        2 0.10341046E+00 0.46384648E+02</pdfrwt>
<pdfrwt beam="2">  1       -2 0.16353250E-01 0.88050086E+02</pdfrwt>
<totfact> 0.13116237E+03</totfact>
</mgrwt>
</event>
<event>
 5    1  0.9399923E-003  0.9246610E+02  0.7546771E-02  0.1440368E+00
          2   -1    0    0  502    0  0.00000000000E+00  0.00000000000E+00  0.41028378757E+03  0.41028378757E+03  0.00000000000E+00 0. -1.
          1   -1    0    0  501    0 -0.00000000000E+00 -0.00000000000E+00 -0.23028179489E+03  0.23028179489E+03  0.00000000000E+00 0. -1.
         25    1    1    2    0    0  0.39353407577E+02 -0.82287687732E+02  0.13168521632E+03  0.20318944470E+03  0.12500000000E+03 0.  0.
          2    1    1    2  501    0 -0.12994527487E+02  0.91898949095E+02 -0.18256125728E+03  0.20479962708E+03  0.00000000000E+00 0. -1.
          1    1    1    2  502    0 -0.26358880090E+02 -0.96112613628E+01  0.23087803365E+03  0.23257651069E+03  0.00000000000E+00 0. -1.
<mgrwt>
<rscale>  0 0.50934023E+02</rscale>
<asrwt>0</asrwt>
<pdfrwt beam="1">  1        2 0.63120583E-01 0.28056495E+02</pdfrwt>
<pdfrwt beam="2">  1        1 0.35427969E-01 0.92466102E+02</pdfrwt>
<totfact> 0.12921671E+03</totfact>
</mgrwt>
</event>
<event>
 5    1  0.9399923E-003  0.5701984E+02  0.7546771E-02  0.1556577E+00
          2   -1    0    0  502    0  0.00000000000E+00  0.00000000000E+00  0.26581433623E+04  0.26581433623E+04  0.00000000000E+00 0. -1.
          1   -1    0    0  501    0 -0.00000000000E+00 -0.00000000000E+00 -0.27981626988E+02  0.27981626988E+02  0.00000000000E+00 0. -1.
         25    1    1    2    0    0  0.47352663591E+01 -0.36884096403E+02  0.32214007403E+03  0.34753717299E+03  0.12500000000E+03 0.  0.
          2    1    1    2  501    0  0.37726780825E+01 -0.20062774714E+02 -0.79446703274E+01  0.21905839763E+02  0.00000000000E+00 0. -1.
          1    1    1    2  502    0 -0.85079444416E+01  0.56946871117E+02  0.23159663316E+04  0.23166819766E+04  0.00000000000E+00 0. -1.
<mgrwt>
<rscale>  0 0.34117827E+02</rscale>
<asrwt>0</asrwt>
<pdfrwt beam="1">  1        2 0.40894493E+00 0.57019835E+02</pdfrwt>
<pdfrwt beam="2">  1        1 0.43048678E-02 0.20414407E+02</pdfrwt>
<totfact> 0.85857949E+02</totfact>
</mgrwt>
</event>
<event>
 5    1  0.9399923E-003  0.1057099E+03  0.7546771E-02  0.1311740E+00
          2   -1    0    0  502    0  0.00000000000E+00  0.00000000000E+00  0.37953045956E+03  0.37953045956E+03  0.00000000000E+00 0. -1.
         -2   -1    0    0    0  501 -0.00000000000E+00 -0.00000000000E+00 -0.16161072187E+03  0.16161072187E+03  0.00000000000E+00 0.  1.
         25    1    1    2    0    0  0.14604909426E+03  0.61934130982E+02  0.20393938492E+03  0.28702342628E+03  0.12500000000E+03 0.  0.
          1    1    1    2  502    0 -0.70445997239E+02  0.55312744583E+01  0.99147339239E+02  0.12175150267E+03  0.00000000000E+00 0. -1.
         -1    1    1    2    0  501 -0.75603097020E+02 -0.67465405440E+02 -0.85166986474E+02  0.13236625248E+03  0.00000000000E+00 0.  1.
<mgrwt>
<rscale>  0 0.86427759E+02</rscale>
<asrwt>0</asrwt>
<pdfrwt beam="1">  1        2 0.58389301E-01 0.70662816E+02</pdfrwt>
<pdfrwt beam="2">  1       -2 0.24863188E-01 0.10570988E+03</pdfrwt>
<totfact> 0.11943287E+03</totfact>
</mgrwt>
</event>
<event>
 5    1  0.9399923E-003  0.4243018E+02  0.7546771E-02  0.1573217E+00
         -2   -1    0    0    0  501  0.00000000000E+00  0.00000000000E+00  0.64744455924E+03  0.64744455924E+03  0.00000000000E+00 0.  1.
         -1   -1    0    0    0  502 -0.00000000000E+00 -0.00000000000E+00 -0.16920469036E+03  0.16920469036E+03  0.00000000000E+00 0.  1.
         25    1    1    2    0    0 -0.63373261619E+01  0.44330276178E+02 -0.47497002231E+02  0.14101879417E+03  0.12500000000E+03 0.  0.
         -2    1    1    2    0  502 -0.17803348615E+02 -0.39082889757E+02 -0.68516538927E+02  0.80863759499E+02  0.00000000000E+00 0.  1.
         -1    1    1    2    0  501  0.24140674777E+02 -0.52473864213E+01  0.59425341004E+03  0.59476669593E+03  0.00000000000E+00 0.  1.
<mgrwt>
<rscale>  0 0.32376102E+02</rscale>
<asrwt>0</asrwt>
<pdfrwt beam="1">  1       -2 0.99606854E-01 0.24704397E+02</pdfrwt>
<pdfrwt beam="2">  1       -1 0.26031491E-01 0.42430179E+02</pdfrwt>
<totfact> 0.85148776E+01</totfact>
</mgrwt>
</event>
<event>
 5    1  0.9399923E-003  0.6465343E+02  0.7546771E-02  0.1454382E+00
         -1   -1    0    0    0  501 -0.00000000000E+00  0.00000000000E+00  0.10544072207E+03  0.10544072207E+03  0.00000000000E+00 0.  1.
          1   -1    0    0  502    0  0.00000000000E+00 -0.00000000000E+00 -0.20934110571E+03  0.20934110571E+03  0.00000000000E+00 0. -1.
         25    1    1    2    0    0  0.35707326621E+02 -0.19567090684E+02 -0.98374417912E+01  0.13183193647E+03  0.12500000000E+03 0.  0.
          2    1    1    2  502    0  0.33666808617E+02 -0.13237206768E+02 -0.99644516024E+02  0.10600805261E+03  0.00000000000E+00 0. -1.
         -2    1    1    2    0  501 -0.69374135239E+02  0.32804297451E+02  0.55815741700E+01  0.76941838694E+02  0.00000000000E+00 0.  1.
<mgrwt>
<rscale>  0 0.48361968E+02</rscale>
<asrwt>0</asrwt>
<pdfrwt beam="2">  1        1 0.32206324E-01 0.36175650E+02</pdfrwt>
<pdfrwt beam="1">  1       -1 0.16221650E-01 0.64653432E+02</pdfrwt>
<totfact> 0.35613519E+03</totfact>
</mgrwt>
</event>
<event>
 5    1  0.9399923E-003  0.4544380E+02  0.7546771E-02  0.1565128E+00
         -2   -1    0    0    0  501 -0.00000000000E+00  0.00000000000E+00  0.11837250209E+03  0.11837250209E+03  0.00000000000E+00 0.  1.
          2   -1    0    0  502    0  0.00000000000E+00 -0.00000000000E+00 -0.22754299168E+03  0.22754299168E+03  0.00000000000E+00 0. -1.
         25    1    1    2    0    0 -0.38699184524E+02 -0.12588730070E+01 -0.16661670167E+03  0.21186159850E+03  0.12500000000E+03 0.  0.
          1    1    1    2  502    0  0.63747220975E+00 -0.24256350649E+02 -0.28027665460E+02  0.37071915904E+02  0.00000000000E+00 0. -1.
         -1    1    1    2    0  501  0.38061712314E+02  0.25515223656E+02  0.85473877533E+02  0.96981979373E+02  0.00000000000E+00 0.  1.
<mgrwt>
<rscale>  0 0.33206645E+02</rscale>
<asrwt>0</asrwt>
<pdfrwt beam="2">  1        2 0.35006614E-01 0.24264726E+02</pdfrwt>
<pdfrwt beam="1">  1       -2 0.18211154E-01 0.45443797E+02</pdfrwt>
<totfact> 0.32192404E+03</totfact>
</mgrwt>
</event>
<event>
 5    1  0.1845552E-002  0.1535342E+03  0.7546771E-02  0.1283609E+00
          1   -1    0    0  501    0 -0.00000000000E+00  0.00000000000E+00  0.14208452708E+04  0.14208452708E+04  0.00000000000E+00 0. -1.
          2   -1    0    0  502    0  0.00000000000E+00 -0.00000000000E+00 -0.19874620350E+04  0.19874620350E+04  0.00000000000E+00 0. -1.
         25    1    1    2    0    0 -0.93186892339E+02 -0.14144125955E+02  0.26844408287E+03  0.31075887571E+03  0.12500000000E+03 0.  0.
          2    1    1    2  501    0 -0.60963680244E+02  0.16346695016E+02  0.11273378590E+04  0.11291033757E+04  0.00000000000E+00 0. -1.
          1    1    1    2  502    0  0.15415057258E+03 -0.22025690614E+01 -0.19623987061E+04  0.19684450543E+04  0.00000000000E+00 0. -1.
<mgrwt>
<rscale>  0 0.98441120E+02</rscale>
<asrwt>0</asrwt>
<pdfrwt beam="2">  1        2 0.30576339E+00 0.15353421E+03</pdfrwt>
<pdfrwt beam="1">  1        1 0.21859158E+00 0.63117230E+02</pdfrwt>
<totfact> 0.10145095E+01</totfact>
</mgrwt>
</event>
<event>
 5    1  0.9399923E-003  0.9235906E+02  0.7546771E-02  0.1386005E+00
          2   -1    0    0  502    0  0.00000000000E+00  0.00000000000E+00  0.14072512479E+04  0.14072512479E+04  0.00000000000E+00 0. -1.
         -2   -1    0    0    0  501 -0.00000000000E+00 -0.00000000000E+00 -0.81030562272E+02  0.81030562272E+02  0.00000000000E+00 0.  1.
         25    1    1    2    0    0  0.13226834663E+03  0.12039533975E+02  0.53401719843E+03  0.56430420353E+03  0.12500000000E+03 0.  0.
          1    1    1    2  502    0 -0.42369316446E+02 -0.64176233641E+01  0.82648847200E+03  0.82759865830E+03  0.00000000000E+00 0. -1.
         -1    1    1    2    0  501 -0.89899030186E+02 -0.56219106111E+01 -0.34284984782E+02  0.96378948369E+02  0.00000000000E+00 0.  1.
<mgrwt>
<rscale>  0 0.62911251E+02</rscale>
<asrwt>0</asrwt>
<pdfrwt beam="1">  1        2 0.21650017E+00 0.42852595E+02</pdfrwt>
<pdfrwt beam="2">  1       -2 0.12466241E-01 0.92359064E+02</pdfrwt>
<totfact> 0.77689740E+02</totfact>
</mgrwt>
</event>
<event>
 5    1  0.9399923E-003  0.5122435E+02  0.7546771E-02  0.1495605E+00
          2   -1    0    0  502    0  0.00000000000E+00  0.00000000000E+00  0.31565556442E+03  0.31565556442E+03  0.00000000000E+00 0. -1.
          1   -1    0    0  501    0 -0.00000000000E+00 -0.00000000000E+00 -0.34119299756E+03  0.34119299756E+03  0.00000000000E+00 0. -1.
         25    1    1    2    0    0 -0.16244939074E+02  0.80474367551E+02  0.12163293783E+03  0.19276823764E+03  0.12500000000E+03 0.  0.
          2    1    1    2  501    0  0.66812954639E+01 -0.33391884121E+02 -0.30100127725E+03  0.30292148576E+03  0.00000000000E+00 0. -1.
          1    1    1    2  502    0  0.95636436102E+01 -0.47082483430E+02  0.15383090628E+03  0.16115883858E+03  0.00000000000E+00 0. -1.
<mgrwt>
<rscale>  0 0.41765788E+02</rscale>
<asrwt>0</asrwt>
<pdfrwt beam="1">  1        2 0.48562395E-01 0.51224351E+02</pdfrwt>
<pdfrwt beam="2">  1        1 0.52491230E-01 0.34053746E+02</pdfrwt>
<totfact> 0.10476736E+03</totfact>
</mgrwt>
</event>
<event>
 5    1  0.9399923E-003  0.8530801E+02  0.7546771E-02  0.1425370E+00
         -1   -1    0    0    0  502 -0.00000000000E+00  0.00000000000E+00  0.12274146497E+03  0.12274146497E+03  0.00000000000E+00 0.  1.
         -2   -1    0    0    0  501  0.00000000000E+00 -0.00000000000E+00 -0.57252344085E+03  0.57252344085E+03  0.00000000000E+00 0.  1.
         25    1    1    2    0    0 -0.72665930135E+02  0.11892576301E+02 -0.16537424278E+03  0.21998957009E+03  0.12500000000E+03 0.  0.
         -2    1    1    2    0  502 -0.13597756769E+02 -0.31224225518E+02  0.87033220240E+02  0.93459256758E+02  0.00000000000E+00 0.  1.
         -1    1    1    2    0  501  0.86263686904E+02  0.19331649218E+02 -0.37144095334E+03  0.38181607896E+03  0.00000000000E+00 0.  1.
<mgrwt>
<rscale>  0 0.53900834E+02</rscale>
<asrwt>0</asrwt>
<pdfrwt beam="2">  1       -2 0.88080528E-01 0.85308013E+02</pdfrwt>
<pdfrwt beam="1">  1       -1 0.18883303E-01 0.34056589E+02</pdfrwt>
<totfact> 0.17859162E+02</totfact>
</mgrwt>
</event>
<event>
 5    1  0.9399923E-003  0.3826786E+03  0.7546771E-02  0.1155125E+00
          1   -1    0    0  501    0 -0.00000000000E+00  0.00000000000E+00  0.28167657282E+04  0.28167657282E+04  0.00000000000E+00 0. -1.
          2   -1    0    0  502    0  0.00000000000E+00 -0.00000000000E+00 -0.14509670372E+04  0.14509670372E+04  0.00000000000E+00 0. -1.
         25    1    1    2    0    0 -0.27269079582E+03  0.30057514606E+03  0.13650083672E+04  0.14295378732E+04  0.12500000000E+03 0.  0.
          2    1    1    2  501    0 -0.44774143495E+02 -0.87276995952E+02  0.13919581148E+04  0.13954101158E+04  0.00000000000E+00 0. -1.
          1    1    1    2  502    0  0.31746493931E+03 -0.21329815011E+03 -0.13911677910E+04  0.14427847764E+04  0.00000000000E+00 0. -1.
<mgrwt>
<rscale>  0 0.19374629E+03</rscale>
<asrwt>0</asrwt>
<pdfrwt beam="2">  1        2 0.22322570E+00 0.38267860E+03</pdfrwt>
<pdfrwt beam="1">  1        1 0.43334857E+00 0.98091783E+02</pdfrwt>
<totfact> 0.22153466E+00</totfact>
</mgrwt>
</event>
<event>
 5    1  0.9399923E-003  0.6013456E+02  0.7546771E-02  0.1450971E+00
          1   -1    0    0  501    0 -0.00000000000E+00  0.00000000000E+00  0.16050225475E+04  0.16050225475E+04  0.00000000000E+00 0. -1.
          2   -1    0    0  502    0  0.00000000000E+00 -0.00000000000E+00 -0.29335562795E+02  0.29335562795E+02  0.00000000000E+00 0. -1.
         25    1    1    2    0    0 -0.35094041540E+02 -0.16540258782E+02  0.10379254808E+04  0.10461450548E+04  0.12500000000E+03 0.  0.
          2    1    1    2  501    0  0.89861310994E+01 -0.38854459862E+02  0.52391202034E+03  0.52542765883E+03  0.00000000000E+00 0. -1.
          1    1    1    2  502    0  0.26107910441E+02  0.55394718644E+02  0.13849483534E+02  0.62785396673E+02  0.00000000000E+00 0. -1.
<mgrwt>
<rscale>  0 0.48971114E+02</rscale>
<asrwt>0</asrwt>
<pdfrwt beam="2">  1        2 0.45131648E-02 0.60134555E+02</pdfrwt>
<pdfrwt beam="1">  1        1 0.24692648E+00 0.39880065E+02</pdfrwt>
<totfact> 0.15840805E+03</totfact>
</mgrwt>
</event>
<event>
 5    1  0.9399923E-003  0.7133376E+02  0.7546771E-02  0.1379587E+00
         -1   -1    0    0    0  502 -0.00000000000E+00  0.00000000000E+00  0.16664975260E+03  0.16664975260E+03  0.00000000000E+00 0.  1.
         -2   -1    0    0    0  501  0.00000000000E+00 -0.00000000000E+00 -0.65753863544E+03  0.65753863544E+03  0.00000000000E+00 0.  1.
         25    1    1    2    0    0  0.21655150694E+02  0.50552206900E+02 -0.49309348626E+02  0.14519257225E+03  0.12500000000E+03 0.  0.
         -2    1    1    2    0  502  0.34291516447E+02 -0.67481013175E+02  0.10492255195E+03  0.12937672568E+03  0.00000000000E+00 0.  1.
         -1    1    1    2    0  501 -0.55946667140E+02  0.16928806274E+02 -0.54650208616E+03  0.54961909012E+03  0.00000000000E+00 0.  1.
<mgrwt>
<rscale>  0 0.64572340E+02</rscale>
<asrwt>0</asrwt>
<pdfrwt beam="2">  1       -2 0.10115979E+00 0.58451810E+02</pdfrwt>
<pdfrwt beam="1">  1       -1 0.25638423E-01 0.71333755E+02</pdfrwt>
<totfact> 0.84195880E+01</totfact>
</mgrwt>
</event>
<event>
 5    1  0.9399923E-003  0.7440267E+02  0.7546771E-02  0.1397254E+00
         -1   -1    0    0    0  501 -0.00000000000E+00  0.00000000000E+00  0.47189356331E+03  0.47189356331E+03  0.00000000000E+00 0.  1.
          1   -1    0    0  502    0  0.00000000000E+00 -0.00000000000E+00 -0.12821667158E+04  0.12821667158E+04  0.00000000000E+00 0. -1.
         25    1    1    2    0    0  0.37446173109E+02 -0.95588904870E+02 -0.48344299621E+03  0.50978582287E+03  0.12500000000E+03 0.  0.
          2    1    1    2  502    0  0.17341299122E+02  0.45409432562E+02 -0.78178435346E+03  0.78329401411E+03  0.00000000000E+00 0. -1.
         -2    1    1    2    0  501 -0.54787472231E+02  0.50179472308E+02  0.45495419715E+03  0.46098044216E+03  0.00000000000E+00 0.  1.
<mgrwt>
<rscale>  0 0.60137878E+02</rscale>
<asrwt>0</asrwt>
<pdfrwt beam="2">  1        1 0.19725642E+00 0.48607995E+02</pdfrwt>
<pdfrwt beam="1">  1       -1 0.72599010E-01 0.74402665E+02</pdfrwt>
<totfact> 0.24206201E+01</totfact>
</mgrwt>
</event>
<event>
 5    1  0.9399923E-003  0.6751478E+02  0.7546771E-02  0.1522323E+00
          1   -1    0    0  501    0 -0.00000000000E+00  0.00000000000E+00  0.60348153691E+03  0.60348153691E+03  0.00000000000E+00 0. -1.
          2   -1    0    0  502    0  0.00000000000E+00 -0.00000000000E+00 -0.30101500599E+03  0.30101500599E+03  0.00000000000E+00 0. -1.
         25    1    1    2    0    0  0.37529299025E+02  0.64263183936E+02  0.42722581618E+03  0.45131486028E+03  0.12500000000E+03 0.  0.
          2    1    1    2  501    0 -0.16028896628E+02 -0.62779635835E+02  0.15739274482E+03  0.17020776811E+03  0.00000000000E+00 0. -1.
          1    1    1    2  502    0 -0.21500402396E+02 -0.14835481009E+01 -0.28215203008E+03  0.28297391451E+03  0.00000000000E+00 0. -1.
<mgrwt>
<rscale>  0 0.38145070E+02</rscale>
<asrwt>0</asrwt>
<pdfrwt beam="2">  1        2 0.46310001E-01 0.21551525E+02</pdfrwt>
<pdfrwt beam="1">  1        1 0.92843313E-01 0.67514777E+02</pdfrwt>
<totfact> 0.52969254E+02</totfact>
</mgrwt>
</event>
<event>
 5    1  0.9399923E-003  0.5507755E+02  0.7546771E-02  0.1455846E+00
          1   -1    0    0  502    0  0.00000000000E+00  0.00000000000E+00  0.86497593132E+03  0.86497593132E+03  0.00000000000E+00 0. -1.
         -1   -1    0    0    0  501 -0.00000000000E+00 -0.00000000000E+00 -0.87939717235E+02  0.87939717235E+02  0.00000000000E+00 0.  1.
         25    1    1    2    0    0 -0.65098253539E+02  0.27552283702E+02  0.31666992754E+03  0.34770929518E+03  0.12500000000E+03 0.  0.
          2    1    1    2  502    0  0.37068334763E+02  0.19774466971E+02  0.52137375116E+03  0.52306374314E+03  0.00000000000E+00 0. -1.
         -2    1    1    2    0  501  0.28029918777E+02 -0.47326750672E+02 -0.61007464618E+02  0.82142610227E+02  0.00000000000E+00 0.  1.
<mgrwt>
<rscale>  0 0.48103767E+02</rscale>
<asrwt>0</asrwt>
<pdfrwt beam="1">  1        1 0.13307321E+00 0.42012986E+02</pdfrwt>
<pdfrwt beam="2">  1       -1 0.13529188E-01 0.55077551E+02</pdfrwt>
<totfact> 0.79054102E+02</totfact>
</mgrwt>
</event>
<event>
 5    1  0.9399923E-003  0.4560722E+02  0.7546771E-02  0.1472878E+00
          2   -1    0    0  502    0  0.00000000000E+00  0.00000000000E+00  0.38633982156E+03  0.38633982156E+03  0.00000000000E+00 0. -1.
          1   -1    0    0  501    0 -0.00000000000E+00 -0.00000000000E+00 -0.61831837857E+02  0.61831837857E+02  0.00000000000E+00 0. -1.
         25    1    1    2    0    0  0.28800839022E+02 -0.29933625991E+02  0.92610502931E+02  0.16101930178E+03  0.12500000000E+03 0.  0.
          2    1    1    2  501    0 -0.43332959571E+02 -0.14222285236E+02 -0.48682827556E+01  0.45866316175E+02  0.00000000000E+00 0. -1.
          1    1    1    2  502    0  0.14532120549E+02  0.44155911227E+02  0.23676576352E+03  0.24128604145E+03  0.00000000000E+00 0. -1.
<mgrwt>
<rscale>  0 0.45235367E+02</rscale>
<asrwt>0</asrwt>
<pdfrwt beam="1">  1        2 0.59436894E-01 0.44866542E+02</pdfrwt>
<pdfrwt beam="2">  1        1 0.95125906E-02 0.45607223E+02</pdfrwt>
<totfact> 0.68856887E+03</totfact>
</mgrwt>
</event>
<event>
 5    1  0.9399923E-003  0.1022454E+03  0.7546771E-02  0.1443190E+00
          2   -1    0    0  502    0  0.00000000000E+00  0.00000000000E+00  0.18638159846E+04  0.18638159846E+04  0.00000000000E+00 0. -1.
          1   -1    0    0  501    0 -0.00000000000E+00 -0.00000000000E+00 -0.13893737872E+03  0.13893737872E+03  0.00000000000E+00 0. -1.
         25    1    1    2    0    0 -0.76400124605E+02 -0.69291739250E+02  0.84093035089E+02  0.18257864804E+03  0.12500000000E+03 0.  0.
          2    1    1    2  501    0  0.57256167983E+02  0.85127549423E+02 -0.60238580496E+02  0.11896913475E+03  0.00000000000E+00 0. -1.
          1    1    1    2  502    0  0.19143956622E+02 -0.15835810173E+02  0.17010241513E+04  0.17012055805E+04  0.00000000000E+00 0. -1.
<mgrwt>
<rscale>  0 0.50401061E+02</rscale>
<asrwt>0</asrwt>
<pdfrwt beam="1">  1        2 0.28674090E+00 0.24844797E+02</pdfrwt>
<pdfrwt beam="2">  1        1 0.21374983E-01 0.10224543E+03</pdfrwt>
<totfact> 0.34942455E+02</totfact>
</mgrwt>
</event>
<event>
 5    1  0.9399923E-003  0.7718479E+02  0.7546771E-02  0.1384891E+00
          2   -1    0    0  502    0  0.00000000000E+00  0.00000000000E+00  0.10894196438E+04  0.10894196438E+04  0.00000000000E+00 0. -1.
          1   -1    0    0  501    0 -0.00000000000E+00 -0.00000000000E+00 -0.71846373076E+03  0.71846373076E+03  0.00000000000E+00 0. -1.
         25    1    1    2    0    0 -0.93806499920E+02 -0.45287423689E+02 -0.48287225001E+03  0.50955001718E+03  0.12500000000E+03 0.  0.
          2    1    1    2  501    0  0.42816185144E+02  0.54072683168E+02 -0.21626142552E+03  0.22699357908E+03  0.00000000000E+00 0. -1.
          1    1    1    2  502    0  0.50990314776E+02 -0.87852594789E+01  0.10700895886E+04  0.10713397783E+04  0.00000000000E+00 0. -1.
<mgrwt>
<rscale>  0 0.63195447E+02</rscale>
<asrwt>0</asrwt>
<pdfrwt beam="1">  1        2 0.16760302E+00 0.51741598E+02</pdfrwt>
<pdfrwt beam="2">  1        1 0.11053288E+00 0.77184792E+02</pdfrwt>
<totfact> 0.10001009E+02</totfact>
</mgrwt>
</event>
<event>
 5    1  0.9399923E-003  0.1508974E+03  0.7546771E-02  0.1396081E+00
         -1   -1    0    0    0  501 -0.00000000000E+00  0.00000000000E+00  0.28258458485E+03  0.28258458485E+03  0.00000000000E+00 0.  1.
          1   -1    0    0  502    0  0.00000000000E+00 -0.00000000000E+00 -0.50830562687E+03  0.50830562687E+03  0.00000000000E+00 0. -1.
         25    1    1    2    0    0 -0.12784539219E+03 -0.11143548780E+03 -0.68339386578E+02  0.22148946703E+03  0.12500000000E+03 0.  0.
          2    1    1    2  502    0  0.10770060817E+02  0.21662089841E+02 -0.33648744981E+03  0.33735596071E+03  0.00000000000E+00 0. -1.
         -2    1    1    2    0  501  0.11707533137E+03  0.89773397959E+02  0.17910579437E+03  0.23204478399E+03  0.00000000000E+00 0.  1.
<mgrwt>
<rscale>  0 0.60419132E+02</rscale>
<asrwt>0</asrwt>
<pdfrwt beam="2">  1        1 0.78200866E-01 0.24191741E+02</pdfrwt>
<pdfrwt beam="1">  1       -1 0.43474551E-01 0.15089743E+03</pdfrwt>
<totfact> 0.25115880E+02</totfact>
</mgrwt>
</event>
<event>
 5    1  0.9399923E-003  0.8933053E+02  0.7546771E-02  0.1362019E+00
          2   -1    0    0  502    0  0.00000000000E+00  0.00000000000E+00  0.16655595111E+04  0.16655595111E+04  0.00000000000E+00 0. -1.
          1   -1    0    0  501    0 -0.00000000000E+00 -0.00000000000E+00 -0.26002329500E+03  0.26002329500E+03  0.00000000000E+00 0. -1.
         25    1    1    2    0    0 -0.80870552410E+02 -0.24648916161E+02 -0.14783262293E+03  0.21125127152E+03  0.12500000000E+03 0.  0.
          2    1    1    2  501    0  0.66438097640E+02  0.76656620890E+02 -0.47880316218E+02  0.11217300489E+03  0.00000000000E+00 0. -1.
          3    1    1    2  502    0  0.14432454771E+02 -0.52007704730E+02  0.16012491552E+04  0.16021585297E+04  0.00000000000E+00 0. -1.
<mgrwt>
<rscale>  0 0.69436638E+02</rscale>
<asrwt>0</asrwt>
<pdfrwt beam="1">  1        2 0.25623992E+00 0.53973115E+02</pdfrwt>
<pdfrwt beam="2">  1        1 0.40003585E-01 0.89330525E+02</pdfrwt>
<totfact> 0.18399783E+02</totfact>
</mgrwt>
</event>
<event>
 5    1  0.9399923E-003  0.4479310E+02  0.7546771E-02  0.1538919E+00
          1   -1    0    0  502    0  0.00000000000E+00  0.00000000000E+00  0.55198565475E+03  0.55198565475E+03  0.00000000000E+00 0. -1.
         -1   -1    0    0    0  501 -0.00000000000E+00 -0.00000000000E+00 -0.24116085736E+02  0.24116085736E+02  0.00000000000E+00 0.  1.
         25    1    1    2    0    0  0.45390207195E+02 -0.12965963550E+02  0.44006486183E+03  0.45990267420E+03  0.12500000000E+03 0.  0.
          2    1    1    2  502    0 -0.44136963382E+02 -0.16124671640E+02  0.53914745961E+02  0.71518364104E+02  0.00000000000E+00 0.  1.
         -2    1    1    2    0  501 -0.12532438133E+01  0.29090635190E+02  0.33889961230E+02  0.44680702187E+02  0.00000000000E+00 0. -1.
<mgrwt>
<rscale>  0 0.36114655E+02</rscale>
<asrwt>0</asrwt>
<pdfrwt beam="1">  1        1 0.84920861E-01 0.44793098E+02</pdfrwt>
<pdfrwt beam="2">  1       -1 0.37101674E-02 0.29117618E+02</pdfrwt>
<totfact> 0.88735203E+03</totfact>
</mgrwt>
</event>
<event>
 5    1  0.9399923E-003  0.1027972E+03  0.7546771E-02  0.1426202E+00
          1   -1    0    0  501    0 -0.00000000000E+00  0.00000000000E+00  0.12708065453E+03  0.12708065453E+03  0.00000000000E+00 0. -1.
          2   -1    0    0  502    0  0.00000000000E+00 -0.00000000000E+00 -0.29150935123E+03  0.29150935123E+03  0.00000000000E+00 0. -1.
         25    1    1    2    0    0 -0.59631362875E+02 -0.64233986884E+02 -0.43934366942E+02  0.15886199391E+03  0.12500000000E+03 0.  0.
          2    1    1    2  501    0  0.87646269750E+02  0.66196005236E+02  0.24086229193E+02  0.11244521398E+03  0.00000000000E+00 0. -1.
          1    1    1    2  502    0 -0.28014906875E+02 -0.19620183520E+01 -0.14458055895E+03  0.14728279788E+03  0.00000000000E+00 0. -1.
<mgrwt>
<rscale>  0 0.53729961E+02</rscale>
<asrwt>0</asrwt>
<pdfrwt beam="2">  1        2 0.44847592E-01 0.28083528E+02</pdfrwt>
<pdfrwt beam="1">  1        1 0.19550870E-01 0.10279723E+03</pdfrwt>
<totfact> 0.38042945E+03</totfact>
</mgrwt>
</event>
<event>
 5    1  0.9399923E-003  0.2226932E+03  0.7546771E-02  0.1229523E+00
          2   -1    0    0  502    0  0.00000000000E+00  0.00000000000E+00  0.17569560510E+04  0.17569560510E+04  0.00000000000E+00 0. -1.
          1   -1    0    0  501    0 -0.00000000000E+00 -0.00000000000E+00 -0.11918405935E+04  0.11918405935E+04  0.00000000000E+00 0. -1.
         25    1    1    2    0    0  0.26495846605E+03  0.83386290293E+02  0.72766648152E+02  0.31317127459E+03  0.12500000000E+03 0.  0.
          2    1    1    2  501    0 -0.19358619966E+03 -0.10397519379E+03 -0.10594758691E+04  0.10820238328E+04  0.00000000000E+00 0. -1.
          1    1    1    2  502    0 -0.71372266395E+02  0.20588903496E+02  0.15518246784E+04  0.15536015370E+04  0.00000000000E+00 0. -1.
<mgrwt>
<rscale>  0 0.12861660E+03</rscale>
<asrwt>0</asrwt>
<pdfrwt beam="1">  1        2 0.27030093E+00 0.74282591E+02</pdfrwt>
<pdfrwt beam="2">  1        1 0.18336009E+00 0.22269322E+03</pdfrwt>
<totfact> 0.18259070E+01</totfact>
</mgrwt>
</event>
<event>
 5    1  0.9399923E-003  0.4465778E+02  0.7546771E-02  0.1487518E+00
          1   -1    0    0  501    0 -0.00000000000E+00  0.00000000000E+00  0.32026098465E+03  0.32026098465E+03  0.00000000000E+00 0. -1.
          2   -1    0    0  502    0  0.00000000000E+00 -0.00000000000E+00 -0.38690389306E+03  0.38690389306E+03  0.00000000000E+00 0. -1.
         25    1    1    2    0    0  0.73890209672E+02  0.31136936141E+02 -0.11444662350E+01  0.14851121736E+03  0.12500000000E+03 0.  0.
          2    1    1    2  501    0 -0.32611455447E+02 -0.29295849098E+02  0.24324188827E+03  0.24716061582E+03  0.00000000000E+00 0. -1.
          1    1    1    2  502    0 -0.41278754225E+02 -0.18410870436E+01 -0.30874033045E+03  0.31149304454E+03  0.00000000000E+00 0. -1.
<mgrwt>
<rscale>  0 0.42956375E+02</rscale>
<asrwt>0</asrwt>
<pdfrwt beam="2">  1        2 0.59523676E-01 0.41319791E+02</pdfrwt>
<pdfrwt beam="1">  1        1 0.49270921E-01 0.44657781E+02</pdfrwt>
<totfact> 0.91717530E+02</totfact>
</mgrwt>
</event>
<event>
 5    1  0.9399923E-003  0.1734526E+03  0.7546771E-02  0.1353267E+00
          2   -1    0    0  502    0  0.00000000000E+00  0.00000000000E+00  0.84383351766E+03  0.84383351766E+03  0.00000000000E+00 0. -1.
         -2   -1    0    0    0  501 -0.00000000000E+00 -0.00000000000E+00 -0.12744026553E+04  0.12744026553E+04  0.00000000000E+00 0.  1.
         25    1    1    2    0    0 -0.17803790223E+03 -0.33669493958E+01 -0.11085115917E+03  0.24417577781E+03  0.12500000000E+03 0.  0.
          1    1    1    2  502    0  0.78529893301E+01 -0.28877400558E+02  0.77004063872E+03  0.77062192999E+03  0.00000000000E+00 0. -1.
         -1    1    1    2    0  501  0.17018491290E+03  0.32244349954E+02 -0.10897586171E+04  0.11034384651E+04  0.00000000000E+00 0.  1.
<mgrwt>
<rscale>  0 0.72046968E+02</rscale>
<asrwt>0</asrwt>
<pdfrwt beam="1">  1        2 0.12982054E+00 0.29926137E+02</pdfrwt>
<pdfrwt beam="2">  1       -2 0.19606195E+00 0.17345257E+03</pdfrwt>
<totfact> 0.57846650E+00</totfact>
</mgrwt>
</event>
<event>
 5    1  0.9399923E-003  0.1136790E+03  0.7546771E-02  0.1330783E+00
         -2   -1    0    0    0  501 -0.00000000000E+00  0.00000000000E+00  0.20061591742E+03  0.20061591742E+03  0.00000000000E+00 0.  1.
          2   -1    0    0  502    0  0.00000000000E+00 -0.00000000000E+00 -0.10425167858E+04  0.10425167858E+04  0.00000000000E+00 0. -1.
         25    1    1    2    0    0  0.87754011726E+02  0.31257183356E+02 -0.14577367228E+03  0.21343088252E+03  0.12500000000E+03 0.  0.
          1    1    1    2  502    0 -0.79607474453E+02 -0.86103281970E+02 -0.85418690957E+03  0.86219858596E+03  0.00000000000E+00 0. -1.
         -1    1    1    2    0  501 -0.81465372733E+01  0.54846098615E+02  0.15805971350E+03  0.16750323470E+03  0.00000000000E+00 0.  1.
<mgrwt>
<rscale>  0 0.79393028E+02</rscale>
<asrwt>0</asrwt>
<pdfrwt beam="2">  1        2 0.16038720E+00 0.11367900E+03</pdfrwt>
<pdfrwt beam="1">  1       -2 0.30863987E-01 0.55447819E+02</pdfrwt>
<totfact> 0.24589716E+02</totfact>
</mgrwt>
</event>
<event>
 5    1  0.9399923E-003  0.8840349E+02  0.7546771E-02  0.1450362E+00
          2   -1    0    0  502    0  0.00000000000E+00  0.00000000000E+00  0.35551364300E+03  0.35551364300E+03  0.00000000000E+00 0. -1.
          1   -1    0    0  501    0 -0.00000000000E+00 -0.00000000000E+00 -0.30691438780E+03  0.30691438780E+03  0.00000000000E+00 0. -1.
         25    1    1    2    0    0 -0.95138716410E+02  0.57404389206E+02  0.56421364589E+02  0.17650781751E+03  0.12500000000E+03 0.  0.
          2    1    1    2  501    0  0.68091480145E+02 -0.54090155628E+02 -0.23838581340E+03  0.25375182883E+03  0.00000000000E+00 0. -1.
          1    1    1    2  502    0  0.27047236265E+02 -0.33142335786E+01  0.23056370401E+03  0.23216838446E+03  0.00000000000E+00 0. -1.
<mgrwt>
<rscale>  0 0.49081094E+02</rscale>
<asrwt>0</asrwt>
<pdfrwt beam="1">  1        2 0.54694407E-01 0.27249535E+02</pdfrwt>
<pdfrwt beam="2">  1        1 0.47217598E-01 0.88403485E+02</pdfrwt>
<totfact> 0.10493514E+03</totfact>
</mgrwt>
</event>
<event>
 5    1  0.9399923E-003  0.6196117E+02  0.7546771E-02  0.1526878E+00
          1   -1    0    0  501    0 -0.00000000000E+00  0.00000000000E+00  0.25842500716E+02  0.25842500716E+02  0.00000000000E+00 0. -1.
          2   -1    0    0  502    0  0.00000000000E+00 -0.00000000000E+00 -0.13845446866E+04  0.13845446866E+04  0.00000000000E+00 0. -1.
         25    1    1    2    0    0 -0.38951131348E+02  0.28399875574E+02 -0.73428753960E+03  0.74640936113E+03  0.12500000000E+03 0.  0.
          2    1    1    2  501    0 -0.22481188066E+02 -0.36967836331E+01  0.10876025643E+02  0.25245949376E+02  0.00000000000E+00 0. -1.
          3    1    1    2  502    0  0.61432319414E+02 -0.24703091941E+02 -0.63529067195E+03  0.63873187684E+03  0.00000000000E+00 0. -1.
<mgrwt>
<rscale>  0 0.37572172E+02</rscale>
<asrwt>0</asrwt>
<pdfrwt beam="2">  1        2 0.21300688E+00 0.61961174E+02</pdfrwt>
<pdfrwt beam="1">  1        1 0.39757693E-02 0.22783108E+02</pdfrwt>
<totfact> 0.41568186E+03</totfact>
</mgrwt>
</event>
<event>
 5    1  0.9399923E-003  0.3954512E+02  0.7546771E-02  0.1513976E+00
          2   -1    0    0  502    0  0.00000000000E+00  0.00000000000E+00  0.16501343050E+02  0.16501343050E+02  0.00000000000E+00 0. -1.
          1   -1    0    0  501    0 -0.00000000000E+00 -0.00000000000E+00 -0.13654656903E+04  0.13654656903E+04  0.00000000000E+00 0. -1.
         25    1    1    2    0    0 -0.58258225106E+02 -0.15319783696E+02 -0.56349910247E+03  0.58033176292E+03  0.12500000000E+03 0.  0.
          2    1    1    2  501    0  0.22922690731E+02  0.31615152830E+02 -0.74304805155E+03  0.74407350077E+03  0.00000000000E+00 0. -1.
          1    1    1    2  502    0  0.35335534375E+02 -0.16295369133E+02 -0.42417193216E+02  0.57561769649E+02  0.00000000000E+00 0. -1.
<mgrwt>
<rscale>  0 0.39227254E+02</rscale>
<asrwt>0</asrwt>
<pdfrwt beam="1">  1        2 0.25386676E-02 0.38911940E+02</pdfrwt>
<pdfrwt beam="2">  1        1 0.21007169E+00 0.39545124E+02</pdfrwt>
<totfact> 0.44314230E+03</totfact>
</mgrwt>
</event>
<event>
 5    1  0.9399923E-003  0.6377021E+02  0.7546771E-02  0.1431387E+00
          2   -1    0    0  502    0  0.00000000000E+00  0.00000000000E+00  0.64585039577E+03  0.64585039577E+03  0.00000000000E+00 0. -1.
          1   -1    0    0  501    0 -0.00000000000E+00 -0.00000000000E+00 -0.10050988628E+04  0.10050988628E+04  0.00000000000E+00 0. -1.
         25    1    1    2    0    0  0.79893093535E+02  0.36744722953E+02  0.25509519476E+03  0.29737457768E+03  0.12500000000E+03 0.  0.
          2    1    1    2  501    0 -0.63615148916E+02  0.36193361676E+01 -0.98164147310E+03  0.98370725751E+03  0.00000000000E+00 0. -1.
          1    1    1    2  502    0 -0.16277944619E+02 -0.40364059121E+02  0.36729781126E+03  0.36986742342E+03  0.00000000000E+00 0. -1.
<mgrwt>
<rscale>  0 0.52682580E+02</rscale>
<asrwt>0</asrwt>
<pdfrwt beam="1">  1        2 0.99361600E-01 0.43522738E+02</pdfrwt>
<pdfrwt beam="2">  1        1 0.15463059E+00 0.63770211E+02</pdfrwt>
<totfact> 0.11565640E+02</totfact>
</mgrwt>
</event>
<event>
 5    1  0.9399923E-003  0.8946967E+02  0.7546771E-02  0.1381733E+00
          1   -1    0    0  501    0 -0.00000000000E+00  0.00000000000E+00  0.20989520118E+04  0.20989520118E+04  0.00000000000E+00 0. -1.
          2   -1    0    0  502    0  0.00000000000E+00 -0.00000000000E+00 -0.18754877387E+04  0.18754877387E+04  0.00000000000E+00 0. -1.
         25    1    1    2    0    0  0.18776210198E+01  0.12699885192E+03 -0.44688023265E+02  0.18372330628E+03  0.12500000000E+03 0.  0.
          2    1    1    2  501    0 -0.22740014808E+02 -0.86231227032E+02  0.20281566762E+04  0.20301163602E+04  0.00000000000E+00 0. -1.
          1    1    1    2  502    0  0.20862393788E+02 -0.40767624885E+02 -0.17600043799E+04  0.17606000840E+04  0.00000000000E+00 0. -1.
<mgrwt>
<rscale>  0 0.64010304E+02</rscale>
<asrwt>0</asrwt>
<pdfrwt beam="2">  1        2 0.28853658E+00 0.45795619E+02</pdfrwt>
<pdfrwt beam="1">  1        1 0.32291569E+00 0.89469674E+02</pdfrwt>
<totfact> 0.47544361E+00</totfact>
</mgrwt>
</event>
<event>
 5    1  0.9399923E-003  0.1276307E+03  0.7546771E-02  0.1378523E+00
          2   -1    0    0  502    0  0.00000000000E+00  0.00000000000E+00  0.39391662040E+03  0.39391662040E+03  0.00000000000E+00 0. -1.
          1   -1    0    0  501    0 -0.00000000000E+00 -0.00000000000E+00 -0.67288160426E+03  0.67288160426E+03  0.00000000000E+00 0. -1.
         25    1    1    2    0    0  0.97901679862E+02 -0.50072250171E+02 -0.11380330856E+03  0.20166348751E+03  0.12500000000E+03 0.  0.
          2    1    1    2  501    0 -0.12684092348E+03  0.34307997803E+02 -0.50596148685E+03  0.52274533452E+03  0.00000000000E+00 0. -1.
          1    1    1    2  502    0  0.28939243616E+02  0.15764252367E+02  0.34079981155E+03  0.34238940262E+03  0.00000000000E+00 0. -1.
<mgrwt>
<rscale>  0 0.64853624E+02</rscale>
<asrwt>0</asrwt>
<pdfrwt beam="1">  1        2 0.60602558E-01 0.32954385E+02</pdfrwt>
<pdfrwt beam="2">  1        1 0.10352025E+00 0.12763074E+03</pdfrwt>
<totfact> 0.34330946E+02</totfact>
</mgrwt>
</event>
<event>
 5    1  0.9399923E-003  0.4967830E+02  0.7546771E-02  0.1503962E+00
          1   -1    0    0  501    0 -0.00000000000E+00  0.00000000000E+00  0.16023835527E+03  0.16023835527E+03  0.00000000000E+00 0. -1.
          2   -1    0    0  502    0  0.00000000000E+00 -0.00000000000E+00 -0.24150262027E+04  0.24150262027E+04  0.00000000000E+00 0. -1.
         25    1    1    2    0    0  0.12037941473E+01 -0.48806653664E+02 -0.35443652381E+03  0.37899048533E+03  0.12500000000E+03 0.  0.
          2    1    1    2  501    0  0.31319479159E+02  0.10873665345E+02  0.14579538704E+03  0.14951736105E+03  0.00000000000E+00 0. -1.
          1    1    1    2  502    0 -0.32523273307E+02  0.37932988319E+02 -0.20461467107E+04  0.20467567116E+04  0.00000000000E+00 0. -1.
<mgrwt>
<rscale>  0 0.40583291E+02</rscale>
<asrwt>0</asrwt>
<pdfrwt beam="2">  1        2 0.37154247E+00 0.49678303E+02</pdfrwt>
<pdfrwt beam="1">  1        1 0.24652056E-01 0.33153376E+02</pdfrwt>
<totfact> 0.13931084E+02</totfact>
</mgrwt>
</event>
<event>
 5    1  0.9399923E-003  0.7552275E+02  0.7546771E-02  0.1476595E+00
          1   -1    0    0  501    0 -0.00000000000E+00  0.00000000000E+00  0.12031522649E+02  0.12031522649E+02  0.00000000000E+00 0. -1.
          2   -1    0    0  502    0  0.00000000000E+00 -0.00000000000E+00 -0.27803828960E+04  0.27803828960E+04  0.00000000000E+00 0. -1.
         25    1    1    2    0    0 -0.66469454166E+02  0.17169314118E+01 -0.14267733978E+04  0.14337811774E+04  0.12500000000E+03 0.  0.
          2    1    1    2  501    0 -0.83697454326E+01  0.25024480160E+02 -0.16387124909E+02  0.31061473060E+02  0.00000000000E+00 0. -1.
          1    1    1    2  502    0  0.74839199598E+02 -0.26741411572E+02 -0.13251908507E+04  0.13275717682E+04  0.00000000000E+00 0. -1.
<mgrwt>
<rscale>  0 0.44641056E+02</rscale>
<asrwt>0</asrwt>
<pdfrwt beam="2">  1        2 0.42775119E+00 0.75522753E+02</pdfrwt>
<pdfrwt beam="1">  1        1 0.18510036E-02 0.26387066E+02</pdfrwt>
<totfact> 0.22172768E+03</totfact>
</mgrwt>
</event>
<event>
 5    1  0.9399923E-003  0.1670132E+03  0.7546771E-02  0.1345516E+00
          2   -1    0    0  502    0  0.00000000000E+00  0.00000000000E+00  0.23469157125E+03  0.23469157125E+03  0.00000000000E+00 0. -1.
         -2   -1    0    0    0  501 -0.00000000000E+00 -0.00000000000E+00 -0.10484193053E+04  0.10484193053E+04  0.00000000000E+00 0.  1.
         25    1    1    2    0    0  0.49602409177E+02 -0.18738177266E+03 -0.17027151873E+03  0.28668749155E+03  0.12500000000E+03 0.  0.
          1    1    1    2  502    0 -0.51658577732E+02  0.15423864552E+03  0.13857661153E+03  0.21368585749E+03  0.00000000000E+00 0. -1.
         -1    1    1    2    0  501  0.20561685547E+01  0.33143127132E+02 -0.78203282689E+03  0.78273752755E+03  0.00000000000E+00 0.  1.
<mgrwt>
<rscale>  0 0.74471348E+02</rscale>
<asrwt>0</asrwt>
<pdfrwt beam="1">  1        2 0.36106396E-01 0.16701320E+03</pdfrwt>
<pdfrwt beam="2">  1       -2 0.16129528E+00 0.33206847E+02</pdfrwt>
<totfact> 0.41830520E+01</totfact>
</mgrwt>
</event>
<event>
 5    1  0.9399923E-003  0.5154153E+02  0.7546771E-02  0.1491596E+00
         -2   -1    0    0    0  501 -0.00000000000E+00  0.00000000000E+00  0.29615354668E+02  0.29615354668E+02  0.00000000000E+00 0.  1.
          2   -1    0    0  502    0  0.00000000000E+00 -0.00000000000E+00 -0.35978387829E+04  0.35978387829E+04  0.00000000000E+00 0. -1.
         25    1    1    2    0    0  0.34129789995E+02 -0.34858463379E+02 -0.77251780164E+03  0.78408463120E+03  0.12500000000E+03 0.  0.
          1    1    1    2  502    0 -0.51888313261E+02  0.49330476841E+01 -0.28064628335E+04  0.28069468053E+04  0.00000000000E+00 0. -1.
         -1    1    1    2    0  501  0.17758523266E+02  0.29925415695E+02  0.10757206896E+02  0.36422701071E+02  0.00000000000E+00 0.  1.
<mgrwt>
<rscale>  0 0.42350186E+02</rscale>
<asrwt>0</asrwt>
<pdfrwt beam="2">  1        2 0.55351335E+00 0.51541527E+02</pdfrwt>
<pdfrwt beam="1">  1       -2 0.45562109E-02 0.34797926E+02</pdfrwt>
<totfact> 0.21941762E+02</totfact>
</mgrwt>
</event>
<event>
 5    1  0.9399923E-003  0.5323414E+02  0.7546771E-02  0.1507761E+00
          1   -1    0    0  501    0 -0.00000000000E+00  0.00000000000E+00  0.88765052649E+03  0.88765052649E+03  0.00000000000E+00 0. -1.
          2   -1    0    0  502    0  0.00000000000E+00 -0.00000000000E+00 -0.25652962925E+02  0.25652962925E+02  0.00000000000E+00 0. -1.
         25    1    1    2    0    0 -0.13381522093E+02  0.24688691051E+02  0.23808283260E+03  0.27036462746E+03  0.12500000000E+03 0.  0.
          2    1    1    2  501    0  0.40680728732E+02 -0.37481593047E+02  0.60462011873E+03  0.60714518814E+03  0.00000000000E+00 0. -1.
          1    1    1    2  502    0 -0.27299206638E+02  0.12792901996E+02  0.19294612240E+02  0.35793673828E+02  0.00000000000E+00 0. -1.
<mgrwt>
<rscale>  0 0.40061275E+02</rscale>
<asrwt>0</asrwt>
<pdfrwt beam="2">  1        2 0.39466104E-02 0.30148052E+02</pdfrwt>
<pdfrwt beam="1">  1        1 0.13656160E+00 0.53234144E+02</pdfrwt>
<totfact> 0.49757336E+03</totfact>
</mgrwt>
</event>
<event>
 5    1  0.1047091E-002  0.1516190E+03  0.7546771E-02  0.1367456E+00
          2   -1    0    0  502    0  0.00000000000E+00  0.00000000000E+00  0.13248391914E+04  0.13248391914E+04  0.00000000000E+00 0. -1.
          1   -1    0    0  501    0 -0.00000000000E+00 -0.00000000000E+00 -0.22835110822E+04  0.22835110822E+04  0.00000000000E+00 0. -1.
         25    1    1    2    0    0 -0.79934817081E+02 -0.14791194010E+03 -0.14034216093E+04  0.14189731253E+04  0.12500000000E+03 0.  0.
          2    1    1    2  501    0 -0.12430525370E+02  0.27730825160E+02 -0.86768582895E+03  0.86821783810E+03  0.00000000000E+00 0. -1.
          1    1    1    2  502    0  0.92365342451E+02  0.12018111494E+03  0.13124355474E+04  0.13211593102E+04  0.00000000000E+00 0. -1.
<mgrwt>
<rscale>  0 0.67879405E+02</rscale>
<asrwt>0</asrwt>
<pdfrwt beam="1">  1        2 0.20382141E+00 0.15161902E+03</pdfrwt>
<pdfrwt beam="2">  1        1 0.35130940E+00 0.30389416E+02</pdfrwt>
<totfact> 0.73099839E+00</totfact>
</mgrwt>
</event>
<event>
 5    1  0.9399923E-003  0.1507950E+03  0.7546771E-02  0.1297155E+00
          2   -1    0    0  502    0  0.00000000000E+00  0.00000000000E+00  0.28559128070E+04  0.28559128070E+04  0.00000000000E+00 0. -1.
          1   -1    0    0  501    0 -0.00000000000E+00 -0.00000000000E+00 -0.25230441597E+03  0.25230441597E+03  0.00000000000E+00 0. -1.
         25    1    1    2    0    0  0.62204969030E+02 -0.89252684413E+02  0.48754247435E+02  0.17273527865E+03  0.12500000000E+03 0.  0.
          2    1    1    2  501    0 -0.82837038295E+02  0.14197068863E+03 -0.15447207187E+03  0.22556434189E+03  0.00000000000E+00 0. -1.
          1    1    1    2  502    0  0.20632069265E+02 -0.52718004220E+02  0.27093262155E+04  0.27099176025E+04  0.00000000000E+00 0. -1.
<mgrwt>
<rscale>  0 0.92394504E+02</rscale>
<asrwt>0</asrwt>
<pdfrwt beam="1">  1        2 0.43937118E+00 0.56611573E+02</pdfrwt>
<pdfrwt beam="2">  1        1 0.38816066E-01 0.15079504E+03</pdfrwt>
<totfact> 0.47697524E+01</totfact>
</mgrwt>
</event>
<event>
 5    1  0.9399923E-003  0.8376526E+02  0.7546771E-02  0.1447707E+00
          1   -1    0    0  501    0 -0.00000000000E+00  0.00000000000E+00  0.21249825819E+03  0.21249825819E+03  0.00000000000E+00 0. -1.
          2   -1    0    0  502    0  0.00000000000E+00 -0.00000000000E+00 -0.15823293862E+03  0.15823293862E+03  0.00000000000E+00 0. -1.
         25    1    1    2    0    0  0.55743318245E+02  0.20705158310E+02  0.47993848316E+02  0.14650744208E+03  0.12500000000E+03 0.  0.
          2    1    1    2  501    0  0.24752623487E+02  0.15728801538E+02  0.94748143372E+02  0.99183155020E+02  0.00000000000E+00 0. -1.
          1    1    1    2  502    0 -0.80495941732E+02 -0.36433959848E+02 -0.88476672119E+02  0.12504059971E+03  0.00000000000E+00 0. -1.
<mgrwt>
<rscale>  0 0.49564146E+02</rscale>
<asrwt>0</asrwt>
<pdfrwt beam="2">  1        2 0.24343529E-01 0.83765257E+02</pdfrwt>
<pdfrwt beam="1">  1        1 0.32692040E-01 0.29327250E+02</pdfrwt>
<totfact> 0.37955085E+03</totfact>
</mgrwt>
</event>
<event>
 5    1  0.9399923E-003  0.6358059E+02  0.7546771E-02  0.1475041E+00
          2   -1    0    0  502    0  0.00000000000E+00  0.00000000000E+00  0.61948665820E+03  0.61948665820E+03  0.00000000000E+00 0. -1.
         -2   -1    0    0    0  501 -0.00000000000E+00 -0.00000000000E+00 -0.46041964445E+02  0.46041964445E+02  0.00000000000E+00 0.  1.
         25    1    1    2    0    0  0.52571005924E+02 -0.11233048620E+02  0.41226407507E+03  0.43413887137E+03  0.12500000000E+03 0.  0.
          1    1    1    2  502    0 -0.38454740134E+01 -0.31457005056E+02  0.16352348820E+03  0.16656608908E+03  0.00000000000E+00 0. -1.
         -1    1    1    2    0  501 -0.48725531910E+02  0.42690053676E+02 -0.23428695128E+01  0.64823662195E+02  0.00000000000E+00 0.  1.
<mgrwt>
<rscale>  0 0.44888127E+02</rscale>
<asrwt>0</asrwt>
<pdfrwt beam="1">  1        2 0.95305634E-01 0.31691179E+02</pdfrwt>
<pdfrwt beam="2">  1       -2 0.70833796E-02 0.63580594E+02</pdfrwt>
<totfact> 0.52196761E+03</totfact>
</mgrwt>
</event>
<event>
 5    1  0.9399923E-003  0.6629481E+02  0.7546771E-02  0.1446340E+00
          1   -1    0    0  501    0 -0.00000000000E+00  0.00000000000E+00  0.52263451047E+03  0.52263451047E+03  0.00000000000E+00 0. -1.
          2   -1    0    0  502    0  0.00000000000E+00 -0.00000000000E+00 -0.94249752034E+02  0.94249752034E+02  0.00000000000E+00 0. -1.
         25    1    1    2    0    0 -0.23135498441E+01  0.22753771930E+02  0.41701741191E+03  0.43594908933E+03  0.12500000000E+03 0.  0.
          2    1    1    2  501    0  0.65289713273E+02 -0.43466190016E+02  0.59968823548E+02  0.98733561323E+02  0.00000000000E+00 0. -1.
          1    1    1    2  502    0 -0.62976163429E+02  0.20712418086E+02 -0.48601477020E+02  0.82201611855E+02  0.00000000000E+00 0. -1.
<mgrwt>
<rscale>  0 0.49815336E+02</rscale>
<asrwt>0</asrwt>
<pdfrwt beam="2">  1        2 0.14499962E-01 0.66294807E+02</pdfrwt>
<pdfrwt beam="1">  1        1 0.80405308E-01 0.37432308E+02</pdfrwt>
<totfact> 0.23054968E+03</totfact>
</mgrwt>
</event>
<event>
 5    1  0.9399923E-003  0.6911831E+02  0.7546771E-02  0.1507938E+00
          2   -1    0    0  502    0  0.00000000000E+00  0.00000000000E+00  0.18972711931E+04  0.18972711931E+04  0.00000000000E+00 0. -1.
          1   -1    0    0  501    0 -0.00000000000E+00 -0.00000000000E+00 -0.35564422393E+03  0.35564422393E+03  0.00000000000E+00 0. -1.
         25    1    1    2    0    0  0.47451567542E+02 -0.51363774509E+00  0.15143309647E+03  0.20201212288E+03  0.12500000000E+03 0.  0.
          2    1    1    2  501    0 -0.69150116353E+02 -0.76738461704E+01 -0.32661231880E+03  0.33394046371E+03  0.00000000000E+00 0. -1.
          1    1    1    2  502    0  0.21698548811E+02  0.81874839155E+01  0.17168061915E+04  0.17169628304E+04  0.00000000000E+00 0. -1.
<mgrwt>
<rscale>  0 0.40037251E+02</rscale>
<asrwt>0</asrwt>
<pdfrwt beam="1">  1        2 0.29188787E+00 0.23191850E+02</pdfrwt>
<pdfrwt beam="2">  1        1 0.54714497E-01 0.69118308E+02</pdfrwt>
<totfact> 0.10692777E+02</totfact>
</mgrwt>
</event>
<event>
 5    1  0.9399923E-003  0.8896642E+02  0.7546771E-02  0.1306045E+00
         -1   -1    0    0    0  501 -0.00000000000E+00  0.00000000000E+00  0.10858866895E+03  0.10858866895E+03  0.00000000000E+00 0.  1.
          1   -1    0    0  502    0  0.00000000000E+00 -0.00000000000E+00 -0.69033850673E+03  0.69033850673E+03  0.00000000000E+00 0. -1.
         25    1    1    2    0    0  0.57404766251E+02  0.33526390900E+02 -0.79441801416E+02  0.16234323481E+03  0.12500000000E+03 0.  0.
          2    1    1    2  502    0  0.79808658343E+01 -0.93856666369E+02 -0.53392208374E+03  0.54216746449E+03  0.00000000000E+00 0. -1.
         -2    1    1    2    0  501 -0.65385632085E+02  0.60330275469E+02  0.31614047380E+02  0.94416476385E+02  0.00000000000E+00 0.  1.
<mgrwt>
<rscale>  0 0.88694376E+02</rscale>
<asrwt>0</asrwt>
<pdfrwt beam="2">  1        1 0.10620593E+00 0.88423168E+02</pdfrwt>
<pdfrwt beam="1">  1       -1 0.16705949E-01 0.88966415E+02</pdfrwt>
<totfact> 0.78204377E+02</totfact>
</mgrwt>
</event>
<event>
 5    1  0.9399923E-003  0.8030382E+02  0.7546771E-02  0.1394086E+00
         -1   -1    0    0    0  501 -0.00000000000E+00  0.00000000000E+00  0.39217301540E+02  0.39217301540E+02  0.00000000000E+00 0.  1.
          1   -1    0    0  502    0  0.00000000000E+00 -0.00000000000E+00 -0.28291293541E+04  0.28291293541E+04  0.00000000000E+00 0. -1.
         25    1    1    2    0    0  0.40687497905E+02  0.37511958550E+02 -0.73436517269E+03  0.74698047256E+03  0.12500000000E+03 0.  0.
          2    1    1    2  502    0 -0.18823944471E+02  0.42177456759E+02 -0.20359059941E+04  0.20364298406E+04  0.00000000000E+00 0. -1.
         -2    1    1    2    0  501 -0.21863553433E+02 -0.79689415309E+02 -0.19640885730E+02  0.84936342477E+02  0.00000000000E+00 0.  1.
<mgrwt>
<rscale>  0 0.60901782E+02</rscale>
<asrwt>0</asrwt>
<pdfrwt beam="2">  1        1 0.43525067E+00 0.46187431E+02</pdfrwt>
<pdfrwt beam="1">  1       -1 0.60334310E-02 0.80303818E+02</pdfrwt>
<totfact> 0.15266596E+02</totfact>
</mgrwt>
</event>
<event>
 5    1  0.9399923E-003  0.1215783E+03  0.7546771E-02  0.1339170E+00
          2   -1    0    0  502    0  0.00000000000E+00  0.00000000000E+00  0.32874718145E+03  0.32874718145E+03  0.00000000000E+00 0. -1.
          1   -1    0    0  501    0 -0.00000000000E+00 -0.00000000000E+00 -0.11459733471E+04  0.11459733471E+04  0.00000000000E+00 0. -1.
         25    1    1    2    0    0 -0.39714869749E+02  0.12693375284E+03  0.14195817741E+03  0.23122839926E+03  0.12500000000E+03 0.  0.
          2    1    1    2  501    0 -0.33862953289E+02 -0.34279234279E+02 -0.10760867182E+04  0.10771649783E+04  0.00000000000E+00 0. -1.
          1    1    1    2  502    0  0.73577823038E+02 -0.92654518563E+02  0.11690237509E+03  0.16632715099E+03  0.00000000000E+00 0. -1.
<mgrwt>
<rscale>  0 0.76538983E+02</rscale>
<asrwt>0</asrwt>
<pdfrwt beam="1">  1        2 0.50576489E-01 0.12157834E+03</pdfrwt>
<pdfrwt beam="2">  1        1 0.17630359E+00 0.48184702E+02</pdfrwt>
<totfact> 0.19207545E+02</totfact>
</mgrwt>
</event>
<event>
 5    1  0.9399923E-003  0.8091901E+02  0.7546771E-02  0.1389304E+00
         -1   -1    0    0    0  501 -0.00000000000E+00  0.00000000000E+00  0.11852118080E+03  0.11852118080E+03  0.00000000000E+00 0.  1.
          1   -1    0    0  502    0  0.00000000000E+00 -0.00000000000E+00 -0.14312831420E+04  0.14312831420E+04  0.00000000000E+00 0. -1.
         25    1    1    2    0    0  0.36196555933E+02  0.15599593187E+00 -0.14861809675E+03  0.19754127082E+03  0.12500000000E+03 0.  0.
          2    1    1    2  502    0 -0.82975531129E+02 -0.91054828525E+01 -0.12506926266E+04  0.12534751273E+04  0.00000000000E+00 0. -1.
         -2    1    1    2    0  501  0.46778975196E+02  0.89494869207E+01  0.86548762126E+02  0.98787924677E+02  0.00000000000E+00 0.  1.
<mgrwt>
<rscale>  0 0.62080264E+02</rscale>
<asrwt>0</asrwt>
<pdfrwt beam="2">  1        1 0.22019741E+00 0.80919010E+02</pdfrwt>
<pdfrwt beam="1">  1       -1 0.18234027E-01 0.47627364E+02</pdfrwt>
<totfact> 0.19530389E+02</totfact>
</mgrwt>
</event>
<event>
 5    1  0.9399923E-003  0.5083637E+02  0.7546771E-02  0.1538137E+00
          2   -1    0    0  502    0  0.00000000000E+00  0.00000000000E+00  0.74399870512E+03  0.74399870512E+03  0.00000000000E+00 0. -1.
          1   -1    0    0  501    0 -0.00000000000E+00 -0.00000000000E+00 -0.45788743167E+03  0.45788743167E+03  0.00000000000E+00 0. -1.
         25    1    1    2    0    0  0.26468494164E+02 -0.30238202647E+02  0.27614370510E+03  0.30576997228E+03  0.12500000000E+03 0.  0.
          2    1    1    2  501    0 -0.98486237598E+01  0.49955467706E+02 -0.44124211753E+03  0.44417018183E+03  0.00000000000E+00 0. -1.
          1    1    1    2  502    0 -0.16619870404E+02 -0.19717265059E+02  0.45120968588E+03  0.45194598268E+03  0.00000000000E+00 0. -1.
<mgrwt>
<rscale>  0 0.36206885E+02</rscale>
<asrwt>0</asrwt>
<pdfrwt beam="1">  1        2 0.11446134E+00 0.25787412E+02</pdfrwt>
<pdfrwt beam="2">  1        1 0.70444220E-01 0.50836374E+02</pdfrwt>
<totfact> 0.30159717E+02</totfact>
</mgrwt>
</event>
<event>
 5    1  0.9399923E-003  0.1032434E+03  0.7546771E-02  0.1410417E+00
          2   -1    0    0  502    0  0.00000000000E+00  0.00000000000E+00  0.27078556939E+04  0.27078556939E+04  0.00000000000E+00 0. -1.
          1   -1    0    0  501    0 -0.00000000000E+00 -0.00000000000E+00 -0.90972313399E+02  0.90972313399E+02  0.00000000000E+00 0. -1.
         25    1    1    2    0    0  0.19461646926E+02 -0.79151248100E+02  0.98935525694E+03  0.10005461010E+04  0.12500000000E+03 0.  0.
          2    1    1    2  501    0  0.16199714540E-01  0.10401002763E+03 -0.53496014663E+02  0.11696114609E+03  0.00000000000E+00 0. -1.
          1    1    1    2  502    0 -0.19477846640E+02 -0.24858779532E+02  0.16810241383E+04  0.16813207602E+04  0.00000000000E+00 0. -1.
<mgrwt>
<rscale>  0 0.57100835E+02</rscale>
<asrwt>0</asrwt>
<pdfrwt beam="1">  1        2 0.41659312E+00 0.31580776E+02</pdfrwt>
<pdfrwt beam="2">  1        1 0.13995743E-01 0.10324336E+03</pdfrwt>
<totfact> 0.22549629E+02</totfact>
</mgrwt>
</event>
<event>
 5    1  0.9399923E-003  0.1516811E+03  0.7546771E-02  0.1246733E+00
          2   -1    0    0  502    0  0.00000000000E+00  0.00000000000E+00  0.71249374212E+03  0.71249374212E+03  0.00000000000E+00 0. -1.
          1   -1    0    0  501    0 -0.00000000000E+00 -0.00000000000E+00 -0.79301095394E+02  0.79301095394E+02  0.00000000000E+00 0. -1.
         25    1    1    2    0    0 -0.11271895321E+03  0.50868580085E+01  0.20048303482E+03  0.26182033112E+03  0.12500000000E+03 0.  0.
          2    1    1    2  501    0  0.18838989088E+03  0.46393422919E+02  0.19421698089E+03  0.27452383566E+03  0.00000000000E+00 0. -1.
          1    1    1    2  502    0 -0.75670937677E+02 -0.51480280928E+02  0.23849263102E+03  0.25545067075E+03  0.00000000000E+00 0. -1.
<mgrwt>
<rscale>  0 0.11782270E+03</rscale>
<asrwt>0</asrwt>
<pdfrwt beam="1">  1        2 0.10961442E+00 0.91522184E+02</pdfrwt>
<pdfrwt beam="2">  1        1 0.12200169E-01 0.15168114E+03</pdfrwt>
<totfact> 0.27428410E+03</totfact>
</mgrwt>
</event>
<event>
 5    1  0.9399923E-003  0.1923723E+03  0.7546771E-02  0.1215664E+00
          2   -1    0    0  502    0  0.00000000000E+00  0.00000000000E+00  0.17575354777E+04  0.17575354777E+04  0.00000000000E+00 0. -1.
         -2   -1    0    0    0  501 -0.00000000000E+00 -0.00000000000E+00 -0.13193082015E+03  0.13193082015E+03  0.00000000000E+00 0.  1.
         25    1    1    2    0    0 -0.16851472165E+03 -0.12935301914E+03  0.42530444545E+03  0.49156717373E+03  0.12500000000E+03 0.  0.
          1    1    1    2  502    0  0.80151259343E+02  0.17486652282E+03  0.12648425642E+04  0.12793862737E+04  0.00000000000E+00 0. -1.
         -1    1    1    2    0  501  0.88363462306E+02 -0.45513503678E+02 -0.64542352114E+02  0.11851285038E+03  0.00000000000E+00 0.  1.
<mgrwt>
<rscale>  0 0.13827890E+03</rscale>
<asrwt>0</asrwt>
<pdfrwt beam="1">  1        2 0.27039006E+00 0.19237231E+03</pdfrwt>
<pdfrwt beam="2">  1       -2 0.20297050E-01 0.99396079E+02</pdfrwt>
<totfact> 0.20534338E+02</totfact>
</mgrwt>
</event>
<event>
 5    1  0.9399923E-003  0.6511926E+02  0.7546771E-02  0.1438029E+00
          2   -1    0    0  502    0  0.00000000000E+00  0.00000000000E+00  0.12459883622E+03  0.12459883622E+03  0.00000000000E+00 0. -1.
          1   -1    0    0  501    0 -0.00000000000E+00 -0.00000000000E+00 -0.16611599803E+04  0.16611599803E+04  0.00000000000E+00 0. -1.
         25    1    1    2    0    0  0.43959668848E+02  0.85042752456E+02 -0.10843292877E+03  0.19117380122E+03  0.12500000000E+03 0.  0.
          2    1    1    2  501    0 -0.46855695108E+02 -0.44604157972E+02 -0.15056833049E+04  0.15070723944E+04  0.00000000000E+00 0. -1.
          1    1    1    2  502    0  0.28960262596E+01 -0.40438594484E+02  0.77555089644E+02  0.87512620927E+02  0.00000000000E+00 0. -1.
<mgrwt>
<rscale>  0 0.51381665E+02</rscale>
<asrwt>0</asrwt>
<pdfrwt beam="1">  1        2 0.19169052E-01 0.40542162E+02</pdfrwt>
<pdfrwt beam="2">  1        1 0.25556307E+00 0.65119258E+02</pdfrwt>
<totfact> 0.23929093E+02</totfact>
</mgrwt>
</event>
<event>
 5    1  0.9399923E-003  0.4202399E+02  0.7546771E-02  0.1518067E+00
          2   -1    0    0  502    0  0.00000000000E+00  0.00000000000E+00  0.15895020126E+04  0.15895020126E+04  0.00000000000E+00 0. -1.
         -2   -1    0    0    0  501 -0.00000000000E+00 -0.00000000000E+00 -0.87477076513E+01  0.87477076513E+01  0.00000000000E+00 0.  1.
         25    1    1    2    0    0  0.17303942931E+02  0.12285086888E+02  0.73985454751E+03  0.75063979462E+03  0.12500000000E+03 0.  0.
          1    1    1    2  502    0 -0.47634371586E+01  0.35303585969E+02  0.63153390313E+03  0.63253782837E+03  0.00000000000E+00 0. -1.
         -1    1    1    2    0  501 -0.12540505772E+02 -0.47588672857E+02  0.20936585435E+03  0.21507209730E+03  0.00000000000E+00 0.  1.
<mgrwt>
<rscale>  0 0.38691621E+02</rscale>
<asrwt>0</asrwt>
<pdfrwt beam="1">  1        2 0.24453854E+00 0.35623497E+02</pdfrwt>
<pdfrwt beam="2">  1       -2 0.13458024E-02 0.42023993E+02</pdfrwt>
<totfact> 0.15341895E+04</totfact>
</mgrwt>
</event>
<event>
 5    1  0.9399923E-003  0.8504304E+02  0.7546771E-02  0.1339413E+00
          2   -1    0    0  502    0  0.00000000000E+00  0.00000000000E+00  0.73624007586E+03  0.73624007586E+03  0.00000000000E+00 0. -1.
         -2   -1    0    0    0  501 -0.00000000000E+00 -0.00000000000E+00 -0.41495947292E+03  0.41495947292E+03  0.00000000000E+00 0.  1.
         25    1    1    2    0    0  0.34623275432E+02 -0.14615494522E+03  0.30252518710E+03  0.36014792522E+03  0.12500000000E+03 0.  0.
          1    1    1    2  502    0 -0.29357172494E+02  0.62156132203E+02  0.39733099425E+03  0.40323336586E+03  0.00000000000E+00 0. -1.
         -1    1    1    2    0  501 -0.52661029376E+01  0.83998813019E+02 -0.37857557842E+03  0.38781825770E+03  0.00000000000E+00 0.  1.
<mgrwt>
<rscale>  0 0.76458378E+02</rscale>
<asrwt>0</asrwt>
<pdfrwt beam="1">  1        2 0.11326770E+00 0.68740296E+02</pdfrwt>
<pdfrwt beam="2">  1       -2 0.63839919E-01 0.85043036E+02</pdfrwt>
<totfact> 0.98143570E+01</totfact>
</mgrwt>
</event>
<event>
 5    1  0.9399923E-003  0.9226139E+02  0.7546771E-02  0.1430467E+00
          2   -1    0    0  502    0  0.00000000000E+00  0.00000000000E+00  0.98117222474E+03  0.98117222474E+03  0.00000000000E+00 0. -1.
         -2   -1    0    0    0  501 -0.00000000000E+00 -0.00000000000E+00 -0.68546505703E+02  0.68546505703E+02  0.00000000000E+00 0.  1.
         25    1    1    2    0    0 -0.58581599845E+02  0.10347840175E+03  0.30069678424E+03  0.34667439987E+03  0.12500000000E+03 0.  0.
          1    1    1    2  502    0  0.13417203226E+02 -0.27159413585E+02  0.61359977091E+03  0.61434707938E+03  0.00000000000E+00 0. -1.
         -1    1    1    2    0  501  0.45164396619E+02 -0.76318988164E+02 -0.16708361110E+01  0.88697251196E+02  0.00000000000E+00 0.  1.
<mgrwt>
<rscale>  0 0.52866417E+02</rscale>
<asrwt>0</asrwt>
<pdfrwt beam="1">  1        2 0.15094956E+00 0.30292822E+02</pdfrwt>
<pdfrwt beam="2">  1       -2 0.10545617E-01 0.92261394E+02</pdfrwt>
<totfact> 0.17249503E+03</totfact>
</mgrwt>
</event>
<event>
 5    1  0.9399923E-003  0.3490451E+02  0.7546771E-02  0.1601475E+00
          2   -1    0    0  502    0  0.00000000000E+00  0.00000000000E+00  0.14702770090E+04  0.14702770090E+04  0.00000000000E+00 0. -1.
         -2   -1    0    0    0  501 -0.00000000000E+00 -0.00000000000E+00 -0.25609100364E+03  0.25609100364E+03  0.00000000000E+00 0.  1.
         25    1    1    2    0    0 -0.10991424942E+01 -0.14289597587E+02  0.78596210493E+02  0.14835014330E+03  0.12500000000E+03 0.  0.
          1    1    1    2  502    0  0.23458137624E+02  0.26052658645E+02  0.13558551623E+04  0.13563083154E+04  0.00000000000E+00 0. -1.
         -1    1    1    2    0  501 -0.22358995130E+02 -0.11763061058E+02 -0.22026536739E+03  0.22170955401E+03  0.00000000000E+00 0.  1.
<mgrwt>
<rscale>  0 0.29695868E+02</rscale>
<asrwt>0</asrwt>
<pdfrwt beam="1">  1        2 0.22619646E+00 0.34904512E+02</pdfrwt>
<pdfrwt beam="2">  1       -2 0.39398617E-01 0.25264486E+02</pdfrwt>
<totfact> 0.10030722E+02</totfact>
</mgrwt>
</event>
<event>
 5    1  0.9399923E-003  0.5205989E+02  0.7546771E-02  0.1464108E+00
         -2   -1    0    0    0  501 -0.00000000000E+00  0.00000000000E+00  0.16650703840E+04  0.16650703840E+04  0.00000000000E+00 0.  1.
          2   -1    0    0  502    0  0.00000000000E+00 -0.00000000000E+00 -0.70727240566E+03  0.70727240566E+03  0.00000000000E+00 0. -1.
         25    1    1    2    0    0  0.49283558396E+02  0.13656259424E+02 -0.91525598780E+02  0.16314808544E+03  0.12500000000E+03 0.  0.
          1    1    1    2  502    0 -0.25871283477E+02  0.32906899352E+02 -0.57876269542E+03  0.58027445657E+03  0.00000000000E+00 0. -1.
         -1    1    1    2    0  501 -0.23412274919E+02 -0.46563158776E+02  0.16280862725E+04  0.16289202476E+04  0.00000000000E+00 0.  1.
<mgrwt>
<rscale>  0 0.46681712E+02</rscale>
<asrwt>0</asrwt>
<pdfrwt beam="2">  1        2 0.10881114E+00 0.41859137E+02</pdfrwt>
<pdfrwt beam="1">  1       -2 0.25616467E+00 0.52059894E+02</pdfrwt>
<totfact> 0.34188562E+00</totfact>
</mgrwt>
</event>
<event>
 5    1  0.9399923E-003  0.4367127E+02  0.7546771E-02  0.1552451E+00
          2   -1    0    0  502    0  0.00000000000E+00  0.00000000000E+00  0.14920286649E+03  0.14920286649E+03  0.00000000000E+00 0. -1.
          1   -1    0    0  501    0 -0.00000000000E+00 -0.00000000000E+00 -0.27246712225E+03  0.27246712225E+03  0.00000000000E+00 0. -1.
         25    1    1    2    0    0  0.85845929440E+01  0.29876758371E+02  0.48846367005E+02  0.13775806146E+03  0.12500000000E+03 0.  0.
          2    1    1    2  501    0  0.16448493182E+02 -0.40932555448E+02 -0.22236022989E+03  0.22669384390E+03  0.00000000000E+00 0. -1.
          1    1    1    2  502    0 -0.25033086126E+02  0.11055797076E+02  0.50249607127E+02  0.57218083387E+02  0.00000000000E+00 0. -1.
<mgrwt>
<rscale>  0 0.34570196E+02</rscale>
<asrwt>0</asrwt>
<pdfrwt beam="1">  1        2 0.22954287E-01 0.27365782E+02</pdfrwt>
<pdfrwt beam="2">  1        1 0.41918019E-01 0.43671270E+02</pdfrwt>
<totfact> 0.29048600E+03</totfact>
</mgrwt>
</event>
<event>
 5    1  0.9399923E-003  0.1253012E+03  0.7546771E-02  0.1333302E+00
          1   -1    0    0  501    0 -0.00000000000E+00  0.00000000000E+00  0.68914637865E+03  0.68914637865E+03  0.00000000000E+00 0. -1.
          2   -1    0    0  502    0  0.00000000000E+00 -0.00000000000E+00 -0.23574782629E+03  0.23574782629E+03  0.00000000000E+00 0. -1.
         25    1    1    2    0    0  0.15769222687E+02 -0.89693922915E+02  0.22832684023E+03  0.27577493389E+03  0.12500000000E+03 0.  0.
          2    1    1    2  501    0 -0.31797102983E+02 -0.37551711389E+02  0.41611794640E+03  0.41901710240E+03  0.00000000000E+00 0. -1.
          3    1    1    2  502    0  0.16027880296E+02  0.12724563430E+03 -0.19104623426E+03  0.23010216866E+03  0.00000000000E+00 0. -1.
<mgrwt>
<rscale>  0 0.78520809E+02</rscale>
<asrwt>0</asrwt>
<pdfrwt beam="2">  1        2 0.36268896E-01 0.12530124E+03</pdfrwt>
<pdfrwt beam="1">  1        1 0.10602252E+00 0.49205556E+02</pdfrwt>
<totfact> 0.59320477E+02</totfact>
</mgrwt>
</event>
<event>
 5    1  0.9399923E-003  0.9696568E+02  0.7546771E-02  0.1365506E+00
          1   -1    0    0  501    0 -0.00000000000E+00  0.00000000000E+00  0.50625852367E+03  0.50625852367E+03  0.00000000000E+00 0. -1.
          2   -1    0    0  502    0  0.00000000000E+00 -0.00000000000E+00 -0.16617954118E+04  0.16617954118E+04  0.00000000000E+00 0. -1.
         25    1    1    2    0    0  0.78883159098E+01  0.63554102685E+02  0.71969640467E+02  0.15781628131E+03  0.12500000000E+03 0.  0.
          2    1    1    2  501    0  0.23911012866E+02 -0.99903401956E+02  0.38425684652E+03  0.39775086468E+03  0.00000000000E+00 0. -1.
          1    1    1    2  502    0 -0.31799328776E+02  0.36349299271E+02 -0.16117633751E+04  0.16124867895E+04  0.00000000000E+00 0. -1.
<mgrwt>
<rscale>  0 0.68432592E+02</rscale>
<asrwt>0</asrwt>
<pdfrwt beam="2">  1        2 0.25566084E+00 0.48295640E+02</pdfrwt>
<pdfrwt beam="1">  1        1 0.77885925E-01 0.96965682E+02</pdfrwt>
<totfact> 0.81679999E+01</totfact>
</mgrwt>
</event>
<event>
 5    1  0.9399923E-003  0.3438158E+02  0.7546771E-02  0.1639528E+00
         -2   -1    0    0    0  501 -0.00000000000E+00  0.00000000000E+00  0.89778436622E+03  0.89778436622E+03  0.00000000000E+00 0.  1.
          2   -1    0    0  502    0  0.00000000000E+00 -0.00000000000E+00 -0.93558930203E+03  0.93558930203E+03  0.00000000000E+00 0. -1.
         25    1    1    2    0    0 -0.52220379699E+02 -0.16556607236E+02 -0.11321558014E+03  0.17732415765E+03  0.12500000000E+03 0.  0.
          1    1    1    2  502    0  0.19930859591E+02  0.48860649894E+01 -0.78984570307E+03  0.79011223725E+03  0.00000000000E+00 0. -1.
         -1    1    1    2    0  501  0.32289520108E+02  0.11670542247E+02  0.86525634740E+03  0.86593727335E+03  0.00000000000E+00 0.  1.
<mgrwt>
<rscale>  0 0.26562108E+02</rscale>
<asrwt>0</asrwt>
<pdfrwt beam="2">  1        2 0.14393682E+00 0.20521033E+02</pdfrwt>
<pdfrwt beam="1">  1       -2 0.13812067E+00 0.34381581E+02</pdfrwt>
<totfact> 0.14143501E+01</totfact>
</mgrwt>
</event>
<event>
 5    1  0.9399923E-003  0.6383969E+02  0.7546771E-02  0.1411442E+00
          2   -1    0    0  502    0  0.00000000000E+00  0.00000000000E+00  0.90556434182E+03  0.90556434182E+03  0.00000000000E+00 0. -1.
          1   -1    0    0  501    0 -0.00000000000E+00 -0.00000000000E+00 -0.14054393783E+03  0.14054393783E+03  0.00000000000E+00 0. -1.
         25    1    1    2    0    0 -0.71651381402E+02  0.42632082880E+02  0.12631460115E+03  0.19629516910E+03  0.12500000000E+03 0.  0.
          2    1    1    2  501    0  0.83609600641E+01 -0.49972396560E+02 -0.98018207532E+02  0.11033909135E+03  0.00000000000E+00 0. -1.
          1    1    1    2  502    0  0.63290421338E+02  0.73403136800E+01  0.73672401037E+03  0.73947401921E+03  0.00000000000E+00 0. -1.
<mgrwt>
<rscale>  0 0.56873246E+02</rscale>
<asrwt>0</asrwt>
<pdfrwt beam="1">  1        2 0.13931759E+00 0.63839685E+02</pdfrwt>
<pdfrwt beam="2">  1        1 0.21622145E-01 0.50667012E+02</pdfrwt>
<totfact> 0.95729996E+02</totfact>
</mgrwt>
</event>
<event>
 5    1  0.9399923E-003  0.5032562E+02  0.7546771E-02  0.1465748E+00
         -2   -1    0    0    0  501 -0.00000000000E+00  0.00000000000E+00  0.98292599946E+01  0.98292599946E+01  0.00000000000E+00 0.  1.
          2   -1    0    0  502    0  0.00000000000E+00 -0.00000000000E+00 -0.36329408152E+04  0.36329408152E+04  0.00000000000E+00 0. -1.
         25    1    1    2    0    0 -0.33525305090E+01 -0.18410309997E+01 -0.19300392913E+04  0.19340866823E+04  0.12500000000E+03 0.  0.
          1    1    1    2  502    0 -0.12461724107E+02  0.49617355777E+02 -0.16149155570E+04  0.16157256676E+04  0.00000000000E+00 0. -1.
         -1    1    1    2    0  501  0.15814254616E+02 -0.47776324777E+02 -0.78156706928E+02  0.92957725317E+02  0.00000000000E+00 0.  1.
<mgrwt>
<rscale>  0 0.46406427E+02</rscale>
<asrwt>0</asrwt>
<pdfrwt beam="2">  1        2 0.55891440E+00 0.42792449E+02</pdfrwt>
<pdfrwt beam="1">  1       -2 0.15121927E-02 0.50325618E+02</pdfrwt>
<totfact> 0.10922973E+03</totfact>
</mgrwt>
</event>
<event>
 5    1  0.9399923E-003  0.7350606E+02  0.7546771E-02  0.1495384E+00
          2   -1    0    0  502    0  0.00000000000E+00  0.00000000000E+00  0.45194853645E+03  0.45194853645E+03  0.00000000000E+00 0. -1.
          1   -1    0    0  501    0 -0.00000000000E+00 -0.00000000000E+00 -0.13477098927E+03  0.13477098927E+03  0.00000000000E+00 0. -1.
         25    1    1    2    0    0  0.60524808606E+02 -0.20787468246E+02  0.82523490357E+02  0.16288185213E+03  0.12500000000E+03 0.  0.
          2    1    1    2  501    0 -0.60320227405E+02  0.44554089589E+02 -0.79208762920E+02  0.10907623415E+03  0.00000000000E+00 0. -1.
          1    1    1    2  502    0 -0.20458120063E+00 -0.23766621343E+02  0.31386281974E+03  0.31476143944E+03  0.00000000000E+00 0. -1.
<mgrwt>
<rscale>  0 0.41797792E+02</rscale>
<asrwt>0</asrwt>
<pdfrwt beam="1">  1        2 0.69530543E-01 0.23767502E+02</pdfrwt>
<pdfrwt beam="2">  1        1 0.20733999E-01 0.73506059E+02</pdfrwt>
<totfact> 0.22562059E+03</totfact>
</mgrwt>
</event>
<event>
 5    1  0.9399923E-003  0.8366906E+02  0.7546771E-02  0.1501551E+00
          1   -1    0    0  501    0 -0.00000000000E+00  0.00000000000E+00  0.13173912111E+04  0.13173912111E+04  0.00000000000E+00 0. -1.
          2   -1    0    0  502    0  0.00000000000E+00 -0.00000000000E+00 -0.33056568490E+02  0.33056568490E+02  0.00000000000E+00 0. -1.
         25    1    1    2    0    0  0.75983356335E+02  0.11456240121E+02  0.23782390454E+03  0.27944574688E+03  0.12500000000E+03 0.  0.
          2    1    1    2  501    0  0.12453095333E+02 -0.15665724173E+02  0.89714224078E+03  0.89736541870E+03  0.00000000000E+00 0. -1.
          1    1    1    2  502    0 -0.88436451669E+02  0.42094840513E+01  0.14936849727E+03  0.17363661398E+03  0.00000000000E+00 0. -1.
<mgrwt>
<rscale>  0 0.40919620E+02</rscale>
<asrwt>0</asrwt>
<pdfrwt beam="2">  1        2 0.50856269E-02 0.83669064E+02</pdfrwt>
<pdfrwt beam="1">  1        1 0.20267553E+00 0.20012359E+02</pdfrwt>
<totfact> 0.22633720E+03</totfact>
</mgrwt>
</event>
<event>
 5    1  0.9399923E-003  0.1086346E+03  0.7546771E-02  0.1267149E+00
          2   -1    0    0  502    0  0.00000000000E+00  0.00000000000E+00  0.20390529503E+04  0.20390529503E+04  0.00000000000E+00 0. -1.
          1   -1    0    0  501    0 -0.00000000000E+00 -0.00000000000E+00 -0.25055433315E+03  0.25055433315E+03  0.00000000000E+00 0. -1.
         25    1    1    2    0    0 -0.10272464673E+03 -0.41482883991E+02  0.58799897374E+03  0.61126178993E+03  0.12500000000E+03 0.  0.
          2    1    1    2  501    0  0.12639803868E+02  0.10789679625E+03 -0.22426527811E+03  0.24919148912E+03  0.00000000000E+00 0. -1.
          1    1    1    2  502    0  0.90084842858E+02 -0.66413912263E+02  0.14247649216E+04  0.14291540044E+04  0.00000000000E+00 0. -1.
<mgrwt>
<rscale>  0 0.10652241E+03</rscale>
<asrwt>0</asrwt>
<pdfrwt beam="1">  1        2 0.31370044E+00 0.10445126E+03</pdfrwt>
<pdfrwt beam="2">  1        1 0.38546822E-01 0.10863463E+03</pdfrwt>
<totfact> 0.11739696E+02</totfact>
</mgrwt>
</event>
<event>
 5    1  0.9399923E-003  0.1048637E+03  0.7546771E-02  0.1407641E+00
          2   -1    0    0  502    0  0.00000000000E+00  0.00000000000E+00  0.51053693893E+03  0.51053693893E+03  0.00000000000E+00 0. -1.
          1   -1    0    0  501    0 -0.00000000000E+00 -0.00000000000E+00 -0.14593354903E+03  0.14593354903E+03  0.00000000000E+00 0. -1.
         25    1    1    2    0    0  0.98093100437E+02 -0.77447939343E+02 -0.56819774015E+02  0.18567155512E+03  0.12500000000E+03 0.  0.
          2    1    1    2  501    0 -0.31673954339E+02 -0.25275826785E+01 -0.47513013015E+01  0.32127914992E+02  0.00000000000E+00 0. -1.
          1    1    1    2  502    0 -0.66419146098E+02  0.79975522021E+02  0.42617446522E+03  0.43867101784E+03  0.00000000000E+00 0. -1.
<mgrwt>
<rscale>  0 0.57723546E+02</rscale>
<asrwt>0</asrwt>
<pdfrwt beam="1">  1        2 0.78544143E-01 0.10486373E+03</pdfrwt>
<pdfrwt beam="2">  1        1 0.22451316E-01 0.31774645E+02</pdfrwt>
<totfact> 0.17176404E+03</totfact>
</mgrwt>
</event>
<event>
 5    1  0.9399923E-003  0.7820023E+02  0.7546771E-02  0.1349338E+00
          2   -1    0    0  502    0  0.00000000000E+00  0.00000000000E+00  0.11485324737E+04  0.11485324737E+04  0.00000000000E+00 0. -1.
          1   -1    0    0  501    0 -0.00000000000E+00 -0.00000000000E+00 -0.29789485724E+03  0.29789485724E+03  0.00000000000E+00 0. -1.
         25    1    1    2    0    0 -0.20927408528E+02 -0.34981642415E+02  0.32111403064E+03  0.34698831739E+03  0.12500000000E+03 0.  0.
          2    1    1    2  501    0  0.79143528910E+02 -0.13753852133E+01 -0.27797666504E+03  0.28902701631E+03  0.00000000000E+00 0. -1.
          1    1    1    2  502    0 -0.58216120382E+02  0.36357027628E+02  0.80750025089E+03  0.81041199727E+03  0.00000000000E+00 0. -1.
<mgrwt>
<rscale>  0 0.73262402E+02</rscale>
<asrwt>0</asrwt>
<pdfrwt beam="1">  1        2 0.17669730E+00 0.68636362E+02</pdfrwt>
<pdfrwt beam="2">  1        1 0.45829979E-01 0.78200235E+02</pdfrwt>
<totfact> 0.28082447E+02</totfact>
</mgrwt>
</event>
<event>
 5    1  0.9399923E-003  0.6358014E+02  0.7546771E-02  0.1469188E+00
          2   -1    0    0  502    0  0.00000000000E+00  0.00000000000E+00  0.37722113057E+03  0.37722113057E+03  0.00000000000E+00 0. -1.
         -2   -1    0    0    0  501 -0.00000000000E+00 -0.00000000000E+00 -0.20789845271E+03  0.20789845271E+03  0.00000000000E+00 0.  1.
         25    1    1    2    0    0 -0.89230476004E+02 -0.17009703076E+02  0.10247016650E+03  0.18540912294E+03  0.12500000000E+03 0.  0.
          1    1    1    2  502    0  0.61076152185E+02 -0.28943766088E+00  0.22757384945E+03  0.23562732672E+03  0.00000000000E+00 0. -1.
         -1    1    1    2    0  501  0.28154323819E+02  0.17299140737E+02 -0.16072133809E+03  0.16408313362E+03  0.00000000000E+00 0.  1.
<mgrwt>
<rscale>  0 0.45836247E+02</rscale>
<asrwt>0</asrwt>
<pdfrwt beam="1">  1        2 0.58034020E-01 0.63580135E+02</pdfrwt>
<pdfrwt beam="2">  1       -2 0.31984377E-01 0.33044307E+02</pdfrwt>
<totfact> 0.74670129E+02</totfact>
</mgrwt>
</event>
<event>
 5    1  0.9399923E-003  0.2093882E+03  0.7546771E-02  0.1339380E+00
          2   -1    0    0  502    0  0.00000000000E+00  0.00000000000E+00  0.14007242231E+04  0.14007242231E+04  0.00000000000E+00 0. -1.
          1   -1    0    0  501    0 -0.00000000000E+00 -0.00000000000E+00 -0.22629758915E+03  0.22629758915E+03  0.00000000000E+00 0. -1.
         25    1    1    2    0    0  0.72692500676E+02  0.18753312774E+03  0.60255989492E+03  0.64742281441E+03  0.12500000000E+03 0.  0.
          2    1    1    2  501    0 -0.50244337698E+02 -0.20414626742E+03 -0.14932145204E+03  0.25787029300E+03  0.00000000000E+00 0. -1.
          1    1    1    2  502    0 -0.22448162978E+02  0.16613139681E+02  0.72118819103E+03  0.72172870479E+03  0.00000000000E+00 0. -1.
<mgrwt>
<rscale>  0 0.76469485E+02</rscale>
<asrwt>0</asrwt>
<pdfrwt beam="1">  1        2 0.21549603E+00 0.27926984E+02</pdfrwt>
<pdfrwt beam="2">  1        1 0.34815015E-01 0.20938825E+03</pdfrwt>
<totfact> 0.31404705E+02</totfact>
</mgrwt>
</event>
<event>
 5    1  0.9399923E-003  0.3588748E+03  0.7546771E-02  0.1184090E+00
          2   -1    0    0  502    0  0.00000000000E+00  0.00000000000E+00  0.10978969975E+04  0.10978969975E+04  0.00000000000E+00 0. -1.
          1   -1    0    0  501    0 -0.00000000000E+00 -0.00000000000E+00 -0.21519036486E+03  0.21519036486E+03  0.00000000000E+00 0. -1.
         25    1    1    2    0    0 -0.35736114964E+03  0.81696051958E+02  0.47995643512E+03  0.61673690970E+03  0.12500000000E+03 0.  0.
          2    1    1    2  501    0  0.16685083448E+01 -0.75063696805E+02 -0.71377364142E+02  0.10359570749E+03  0.00000000000E+00 0. -1.
          1    1    1    2  502    0  0.35569264129E+03 -0.66323551532E+01  0.47412756167E+03  0.59275474519E+03  0.00000000000E+00 0. -1.
<mgrwt>
<rscale>  0 0.16414970E+03</rscale>
<asrwt>0</asrwt>
<pdfrwt beam="1">  1        2 0.16890723E+00 0.35887479E+03</pdfrwt>
<pdfrwt beam="2">  1        1 0.33106210E-01 0.75082238E+02</pdfrwt>
<totfact> 0.40531716E+02</totfact>
</mgrwt>
</event>
<event>
 5    1  0.9399923E-003  0.5912068E+02  0.7546771E-02  0.1550884E+00
         -1   -1    0    0    0  501 -0.00000000000E+00  0.00000000000E+00  0.11814703257E+03  0.11814703257E+03  0.00000000000E+00 0.  1.
          1   -1    0    0  502    0  0.00000000000E+00 -0.00000000000E+00 -0.15336228106E+03  0.15336228106E+03  0.00000000000E+00 0. -1.
         25    1    1    2    0    0  0.33103665532E+02  0.41399645209E+02 -0.81026424946E+02  0.15811408803E+03  0.12500000000E+03 0.  0.
          2    1    1    2  502    0 -0.53271039370E+02 -0.38206404050E+02  0.26051022949E+01  0.65607312885E+02  0.00000000000E+00 0. -1.
         -2    1    1    2    0  501  0.20167373838E+02 -0.31932411585E+01  0.43206074164E+02  0.47787912711E+02  0.00000000000E+00 0.  1.
<mgrwt>
<rscale>  0 0.34744240E+02</rscale>
<asrwt>0</asrwt>
<pdfrwt beam="2">  1        1 0.23594197E-01 0.59120678E+02</pdfrwt>
<pdfrwt beam="1">  1       -1 0.18176466E-01 0.20418613E+02</pdfrwt>
<totfact> 0.41168401E+03</totfact>
</mgrwt>
</event>
<event>
 5    1  0.9399923E-003  0.9673634E+02  0.7546771E-02  0.1320289E+00
          1   -1    0    0  501    0 -0.00000000000E+00  0.00000000000E+00  0.76038734780E+02  0.76038734780E+02  0.00000000000E+00 0. -1.
          2   -1    0    0  502    0  0.00000000000E+00 -0.00000000000E+00 -0.15388656472E+04  0.15388656472E+04  0.00000000000E+00 0. -1.
         25    1    1    2    0    0  0.11115769980E+03 -0.51044630748E+02 -0.16734891024E+03  0.24205835311E+03  0.12500000000E+03 0.  0.
          2    1    1    2  501    0 -0.63478396901E+02 -0.32918466377E+02  0.22396289472E+01  0.71541234540E+02  0.00000000000E+00 0. -1.
          1    1    1    2  502    0 -0.47679302895E+02  0.83963097125E+02 -0.12977176311E+04  0.13013047943E+04  0.00000000000E+00 0. -1.
<mgrwt>
<rscale>  0 0.83169975E+02</rscale>
<asrwt>0</asrwt>
<pdfrwt beam="2">  1        2 0.23674854E+00 0.96736335E+02</pdfrwt>
<pdfrwt beam="1">  1        1 0.11698268E-01 0.71506170E+02</pdfrwt>
<totfact> 0.92923203E+02</totfact>
</mgrwt>
</event>
<event>
 5    1  0.9399923E-003  0.1138420E+03  0.7546771E-02  0.1298669E+00
          2   -1    0    0  502    0  0.00000000000E+00  0.00000000000E+00  0.14375378972E+04  0.14375378972E+04  0.00000000000E+00 0. -1.
          1   -1    0    0  501    0 -0.00000000000E+00 -0.00000000000E+00 -0.14884248419E+04  0.14884248419E+04  0.00000000000E+00 0. -1.
         25    1    1    2    0    0  0.25017447668E+02 -0.16256457663E+03  0.29950245469E+02  0.20874657235E+03  0.12500000000E+03 0.  0.
          2    1    1    2  501    0 -0.58649385075E+02  0.96710688166E+02 -0.13957001772E+04  0.14002755772E+04  0.00000000000E+00 0. -1.
          1    1    1    2  502    0  0.33631937407E+02  0.65853888464E+02  0.13148629870E+04  0.13169405896E+04  0.00000000000E+00 0. -1.
<mgrwt>
<rscale>  0 0.91749841E+02</rscale>
<asrwt>0</asrwt>
<pdfrwt beam="1">  1        2 0.22115968E+00 0.73944857E+02</pdfrwt>
<pdfrwt beam="2">  1        1 0.22898843E+00 0.11384204E+03</pdfrwt>
<totfact> 0.17680094E+01</totfact>
</mgrwt>
</event>
<event>
 5    1  0.9399923E-003  0.2993256E+02  0.7546771E-02  0.1659751E+00
          2   -1    0    0  502    0  0.00000000000E+00  0.00000000000E+00  0.34118310807E+03  0.34118310807E+03  0.00000000000E+00 0. -1.
         -2   -1    0    0    0  501 -0.00000000000E+00 -0.00000000000E+00 -0.12557131416E+03  0.12557131416E+03  0.00000000000E+00 0.  1.
         25    1    1    2    0    0  0.18762072474E+02 -0.10035950203E+02 -0.22478451908E+02  0.12877506148E+03  0.12500000000E+03 0.  0.
          1    1    1    2  502    0 -0.28893022526E+02 -0.83888708266E+01  0.28499431451E+03  0.28657798102E+03  0.00000000000E+00 0. -1.
         -1    1    1    2    0  501  0.10130950052E+02  0.18424821030E+02 -0.46904068683E+02  0.51401379728E+02  0.00000000000E+00 0.  1.
<mgrwt>
<rscale>  0 0.25087337E+02</rscale>
<asrwt>0</asrwt>
<pdfrwt beam="1">  1        2 0.52489709E-01 0.29932561E+02</pdfrwt>
<pdfrwt beam="2">  1       -2 0.19318664E-01 0.21026416E+02</pdfrwt>
<totfact> 0.18698410E+03</totfact>
</mgrwt>
</event>
<event>
 5    1  0.9399923E-003  0.5269728E+02  0.7546771E-02  0.1554029E+00
         -2   -1    0    0    0  501 -0.00000000000E+00  0.00000000000E+00  0.45090326949E+02  0.45090326949E+02  0.00000000000E+00 0.  1.
          2   -1    0    0  502    0  0.00000000000E+00 -0.00000000000E+00 -0.19676886333E+04  0.19676886333E+04  0.00000000000E+00 0. -1.
         25    1    1    2    0    0  0.26805103192E+02 -0.25357689426E+02 -0.61667411573E+03  0.63029635172E+03  0.12500000000E+03 0.  0.
          1    1    1    2  502    0 -0.25422007042E+02  0.47765787182E+02 -0.13403180501E+04  0.13414098271E+04  0.00000000000E+00 0. -1.
         -1    1    1    2    0  501 -0.13830961504E+01 -0.22408097756E+02  0.34393859503E+02  0.41072781395E+02  0.00000000000E+00 0.  1.
<mgrwt>
<rscale>  0 0.34396120E+02</rscale>
<asrwt>0</asrwt>
<pdfrwt beam="2">  1        2 0.30272121E+00 0.52697283E+02</pdfrwt>
<pdfrwt beam="1">  1       -2 0.69369762E-02 0.22450742E+02</pdfrwt>
<totfact> 0.86804349E+02</totfact>
</mgrwt>
</event>
<event>
 5    1  0.9399923E-003  0.8468475E+02  0.7546771E-02  0.1420271E+00
         -1   -1    0    0    0  502 -0.00000000000E+00  0.00000000000E+00  0.71965731129E+03  0.71965731129E+03  0.00000000000E+00 0.  1.
         -2   -1    0    0    0  501  0.00000000000E+00 -0.00000000000E+00 -0.19586417505E+03  0.19586417505E+03  0.00000000000E+00 0.  1.
         25    1    1    2    0    0 -0.93741411833E+02 -0.16801333109E+02  0.53031330545E+03  0.55310662537E+03  0.12500000000E+03 0.  0.
         -2    1    1    2    0  502  0.67572622943E+02  0.41045628150E+02  0.16726337240E+03  0.18500767202E+03  0.00000000000E+00 0.  1.
         -1    1    1    2    0  501  0.26168788890E+02 -0.24244295041E+02 -0.17378354161E+03  0.17740718894E+03  0.00000000000E+00 0.  1.
<mgrwt>
<rscale>  0 0.54963558E+02</rscale>
<asrwt>0</asrwt>
<pdfrwt beam="2">  1       -2 0.30132950E-01 0.35673398E+02</pdfrwt>
<pdfrwt beam="1">  1       -1 0.11071651E+00 0.84684747E+02</pdfrwt>
<totfact> 0.61068249E+01</totfact>
</mgrwt>
</event>
<event>
 5    1  0.9399923E-003  0.1235988E+03  0.7546771E-02  0.1276690E+00
          1   -1    0    0  501    0 -0.00000000000E+00  0.00000000000E+00  0.88162451817E+03  0.88162451817E+03  0.00000000000E+00 0. -1.
          2   -1    0    0  502    0  0.00000000000E+00 -0.00000000000E+00 -0.14188011858E+04  0.14188011858E+04  0.00000000000E+00 0. -1.
         25    1    1    2    0    0 -0.41915704240E+02  0.19686581242E+03  0.20526823880E+02  0.23782225477E+03  0.12500000000E+03 0.  0.
          2    1    1    2  501    0  0.37236315560E+02 -0.75003782037E+02  0.74726842530E+03  0.75194561636E+03  0.00000000000E+00 0. -1.
          1    1    1    2  502    0  0.46793886799E+01 -0.12186203039E+03 -0.13049719168E+04  0.13106578328E+04  0.00000000000E+00 0. -1.
<mgrwt>
<rscale>  0 0.10173475E+03</rscale>
<asrwt>0</asrwt>
<pdfrwt beam="2">  1        2 0.21827710E+00 0.12359881E+03</pdfrwt>
<pdfrwt beam="1">  1        1 0.13563454E+00 0.83738346E+02</pdfrwt>
<totfact> 0.46371492E+01</totfact>
</mgrwt>
</event>
<event>
 5    1  0.9399923E-003  0.1294627E+03  0.7546771E-02  0.1295496E+00
          1   -1    0    0  501    0 -0.00000000000E+00  0.00000000000E+00  0.17116419131E+03  0.17116419131E+03  0.00000000000E+00 0. -1.
          2   -1    0    0  502    0  0.00000000000E+00 -0.00000000000E+00 -0.66488148766E+03  0.66488148766E+03  0.00000000000E+00 0. -1.
         25    1    1    2    0    0 -0.11923578388E+02  0.18387623659E+03 -0.18488487429E+03  0.28941330108E+03  0.12500000000E+03 0.  0.
          2    1    1    2  501    0  0.28396745710E+02 -0.11897262743E+03  0.83840771158E+02  0.14829071499E+03  0.00000000000E+00 0. -1.
          1    1    1    2  502    0 -0.16473167322E+02 -0.64903609164E+02 -0.39267319322E+03  0.39834166290E+03  0.00000000000E+00 0. -1.
<mgrwt>
<rscale>  0 0.93107575E+02</rscale>
<asrwt>0</asrwt>
<pdfrwt beam="2">  1        2 0.10228946E+00 0.66961509E+02</pdfrwt>
<pdfrwt beam="1">  1        1 0.26332952E-01 0.12946274E+03</pdfrwt>
<totfact> 0.11123991E+03</totfact>
</mgrwt>
</event>
<event>
 5    1  0.9399923E-003  0.6531381E+02  0.7546771E-02  0.1411980E+00
          2   -1    0    0  502    0  0.00000000000E+00  0.00000000000E+00  0.37577017349E+03  0.37577017349E+03  0.00000000000E+00 0. -1.
          1   -1    0    0  501    0 -0.00000000000E+00 -0.00000000000E+00 -0.14038567886E+04  0.14038567886E+04  0.00000000000E+00 0. -1.
         25    1    1    2    0    0 -0.20608251102E+02 -0.97014695761E+02 -0.30176291090E+03  0.34135378363E+03  0.12500000000E+03 0.  0.
          2    1    1    2  501    0  0.35950434112E+02  0.33759521214E+02 -0.10787550232E+04  0.10798817246E+04  0.00000000000E+00 0. -1.
          1    1    1    2  502    0 -0.15342183010E+02  0.63255174546E+02  0.35243131894E+03  0.35839145394E+03  0.00000000000E+00 0. -1.
<mgrwt>
<rscale>  0 0.56754407E+02</rscale>
<asrwt>0</asrwt>
<pdfrwt beam="1">  1        2 0.57810796E-01 0.65313805E+02</pdfrwt>
<pdfrwt beam="2">  1        1 0.21597797E+00 0.49316721E+02</pdfrwt>
<totfact> 0.11361007E+02</totfact>
</mgrwt>
</event>
<event>
 5    1  0.9399923E-003  0.4378536E+02  0.7546771E-02  0.1522824E+00
          2   -1    0    0  502    0  0.00000000000E+00  0.00000000000E+00  0.11985530208E+04  0.11985530208E+04  0.00000000000E+00 0. -1.
          1   -1    0    0  501    0 -0.00000000000E+00 -0.00000000000E+00 -0.76128660623E+03  0.76128660623E+03  0.00000000000E+00 0. -1.
         25    1    1    2    0    0 -0.20325558951E+00 -0.62760795184E+02  0.23070386715E+03  0.26979294476E+03  0.12500000000E+03 0.  0.
          2    1    1    2  501    0  0.21759592434E+02  0.24969752232E+02 -0.74087289068E+03  0.74161284275E+03  0.00000000000E+00 0. -1.
          1    1    1    2  502    0 -0.21556336844E+02  0.37791042952E+02  0.94743543813E+03  0.94843383956E+03  0.00000000000E+00 0. -1.
<mgrwt>
<rscale>  0 0.38081410E+02</rscale>
<asrwt>0</asrwt>
<pdfrwt beam="1">  1        2 0.18439277E+00 0.43785365E+02</pdfrwt>
<pdfrwt beam="2">  1        1 0.11712102E+00 0.33120513E+02</pdfrwt>
<totfact> 0.84750465E+01</totfact>
</mgrwt>
</event>
<event>
 5    1  0.9399923E-003  0.3345496E+03  0.7546771E-02  0.1180861E+00
          2   -1    0    0  502    0  0.00000000000E+00  0.00000000000E+00  0.54937333128E+03  0.54937333128E+03  0.00000000000E+00 0. -1.
         -2   -1    0    0    0  501 -0.00000000000E+00 -0.00000000000E+00 -0.60467937285E+03  0.60467937285E+03  0.00000000000E+00 0.  1.
         25    1    1    2    0    0 -0.31459144703E+03  0.11589250935E+03 -0.72924532271E+02  0.36516001927E+03  0.12500000000E+03 0.  0.
          1    1    1    2  502    0  0.36191291621E+02  0.75254888212E+02  0.32298099976E+03  0.33360130994E+03  0.00000000000E+00 0. -1.
         -1    1    1    2    0  501  0.27840015541E+03 -0.19114739756E+03 -0.30536250906E+03  0.45529137491E+03  0.00000000000E+00 0.  1.
<mgrwt>
<rscale>  0 0.16714249E+03</rscale>
<asrwt>0</asrwt>
<pdfrwt beam="1">  1        2 0.84518974E-01 0.83505136E+02</pdfrwt>
<pdfrwt beam="2">  1       -2 0.93027596E-01 0.33454961E+03</pdfrwt>
<totfact> 0.58340274E+01</totfact>
</mgrwt>
</event>
<event>
 5    1  0.9399923E-003  0.8064027E+02  0.7546771E-02  0.1386346E+00
          1   -1    0    0  501    0 -0.00000000000E+00  0.00000000000E+00  0.96402082585E+02  0.96402082585E+02  0.00000000000E+00 0. -1.
          2   -1    0    0  502    0  0.00000000000E+00 -0.00000000000E+00 -0.15337989174E+04  0.15337989174E+04  0.00000000000E+00 0. -1.
         25    1    1    2    0    0  0.31906768473E+02 -0.22025668155E+02 -0.32444255620E+03  0.34984445716E+03  0.12500000000E+03 0.  0.
          2    1    1    2  501    0 -0.47804867194E+02  0.68316724447E+02  0.62298822514E+02  0.10408469366E+03  0.00000000000E+00 0. -1.
          1    1    1    2  502    0  0.15898098721E+02 -0.46291056292E+02 -0.11752531012E+04  0.11762718492E+04  0.00000000000E+00 0. -1.
<mgrwt>
<rscale>  0 0.62824652E+02</rscale>
<asrwt>0</asrwt>
<pdfrwt beam="2">  1        2 0.23596904E+00 0.48944984E+02</pdfrwt>
<pdfrwt beam="1">  1        1 0.14831091E-01 0.80640273E+02</pdfrwt>
<totfact> 0.73627216E+02</totfact>
</mgrwt>
</event>
<event>
 5    1  0.1828586E-002  0.9157657E+02  0.7546771E-02  0.1380895E+00
          1   -1    0    0  501    0 -0.00000000000E+00  0.00000000000E+00  0.19744101100E+04  0.19744101100E+04  0.00000000000E+00 0. -1.
          2   -1    0    0  502    0  0.00000000000E+00 -0.00000000000E+00 -0.73951669029E+03  0.73951669029E+03  0.00000000000E+00 0. -1.
         25    1    1    2    0    0  0.48425692460E+02  0.94875741013E+02  0.71405703247E+03  0.73269973355E+03  0.12500000000E+03 0.  0.
          2    1    1    2  501    0 -0.44920924687E+02 -0.33866310821E+01  0.12477536933E+04  0.12485666334E+04  0.00000000000E+00 0. -1.
          1    1    1    2  502    0 -0.35047677737E+01 -0.91489109931E+02 -0.72691730613E+03  0.73266043334E+03  0.00000000000E+00 0. -1.
<mgrwt>
<rscale>  0 0.64229107E+02</rscale>
<asrwt>0</asrwt>
<pdfrwt beam="2">  1        2 0.11377180E+00 0.91576567E+02</pdfrwt>
<pdfrwt beam="1">  1        1 0.30375540E+00 0.45048404E+02</pdfrwt>
<totfact> 0.24327251E+01</totfact>
</mgrwt>
</event>
<event>
 5    1  0.9399923E-003  0.5769011E+02  0.7546771E-02  0.1499425E+00
          1   -1    0    0  501    0 -0.00000000000E+00  0.00000000000E+00  0.25135364498E+03  0.25135364498E+03  0.00000000000E+00 0. -1.
          2   -1    0    0  502    0  0.00000000000E+00 -0.00000000000E+00 -0.18057273230E+04  0.18057273230E+04  0.00000000000E+00 0. -1.
         25    1    1    2    0    0 -0.68935631719E+02 -0.34511237747E+02  0.18294258854E+03  0.23459782086E+03  0.12500000000E+03 0.  0.
          2    1    1    2  501    0  0.42858583719E+02  0.20823499513E+02  0.29092582613E+02  0.55828798066E+02  0.00000000000E+00 0. -1.
          1    1    1    2  502    0  0.26077048000E+02  0.13687738234E+02 -0.17664088492E+04  0.17666543491E+04  0.00000000000E+00 0. -1.
<mgrwt>
<rscale>  0 0.41219369E+02</rscale>
<asrwt>0</asrwt>
<pdfrwt beam="2">  1        2 0.27780421E+00 0.29451088E+02</pdfrwt>
<pdfrwt beam="1">  1        1 0.38669791E-01 0.57690105E+02</pdfrwt>
<totfact> 0.17422438E+02</totfact>
</mgrwt>
</event>
<event>
 5    1  0.9399923E-003  0.1137816E+03  0.7546771E-02  0.1327369E+00
          2   -1    0    0  502    0  0.00000000000E+00  0.00000000000E+00  0.24022474801E+03  0.24022474801E+03  0.00000000000E+00 0. -1.
          1   -1    0    0  501    0 -0.00000000000E+00 -0.00000000000E+00 -0.53951143048E+03  0.53951143048E+03  0.00000000000E+00 0. -1.
         25    1    1    2    0    0 -0.35989634082E+02 -0.99516865592E+02 -0.81329355945E+02  0.18286148976E+03  0.12500000000E+03 0.  0.
          2    1    1    2  501    0  0.54956213323E+02 -0.15458343936E+02 -0.38720469317E+03  0.39139062354E+03  0.00000000000E+00 0. -1.
          1    1    1    2  502    0 -0.18966579241E+02  0.11497520953E+03  0.16924736664E+03  0.20548406520E+03  0.00000000000E+00 0. -1.
<mgrwt>
<rscale>  0 0.80595710E+02</rscale>
<asrwt>0</asrwt>
<pdfrwt beam="1">  1        2 0.36957654E-01 0.11378158E+03</pdfrwt>
<pdfrwt beam="2">  1        1 0.83001758E-01 0.57088929E+02</pdfrwt>
<totfact> 0.79752355E+02</totfact>
</mgrwt>
</event>
<event>
 5    1  0.9399923E-003  0.2820803E+03  0.7546771E-02  0.1166079E+00
          2   -1    0    0  502    0  0.00000000000E+00  0.00000000000E+00  0.21072573385E+04  0.21072573385E+04  0.00000000000E+00 0. -1.
         -2   -1    0    0    0  501 -0.00000000000E+00 -0.00000000000E+00 -0.48979817587E+03  0.48979817587E+03  0.00000000000E+00 0.  1.
         25    1    1    2    0    0 -0.12075939184E+03 -0.13815726582E+03  0.23346603604E+03  0.32218263579E+03  0.12500000000E+03 0.  0.
          1    1    1    2  502    0 -0.87183807503E+02 -0.78265121421E+02  0.17767275301E+04  0.17805861848E+04  0.00000000000E+00 0. -1.
         -1    1    1    2    0  501  0.20794319934E+03  0.21642238724E+03 -0.39273440353E+03  0.49428669370E+03  0.00000000000E+00 0.  1.
<mgrwt>
<rscale>  0 0.18179248E+03</rscale>
<asrwt>0</asrwt>
<pdfrwt beam="1">  1        2 0.32419343E+00 0.11715991E+03</pdfrwt>
<pdfrwt beam="2">  1       -2 0.75353567E-01 0.28208033E+03</pdfrwt>
<totfact> 0.11794088E+01</totfact>
</mgrwt>
</event>
<event>
 5    1  0.9399923E-003  0.5196612E+02  0.7546771E-02  0.1438339E+00
          2   -1    0    0  502    0  0.00000000000E+00  0.00000000000E+00  0.41495077443E+03  0.41495077443E+03  0.00000000000E+00 0. -1.
          1   -1    0    0  501    0 -0.00000000000E+00 -0.00000000000E+00 -0.94192137909E+02  0.94192137909E+02  0.00000000000E+00 0. -1.
         25    1    1    2    0    0  0.48394036817E+02 -0.85636299699E+01  0.23121340360E+03  0.26739475792E+03  0.12500000000E+03 0.  0.
          2    1    1    2  501    0 -0.27491056912E+02 -0.44098971914E+02 -0.61447219510E+02  0.80475078872E+02  0.00000000000E+00 0. -1.
          1    1    1    2  502    0 -0.20902979905E+02  0.52662601884E+02  0.15099245243E+03  0.16127307555E+03  0.00000000000E+00 0. -1.
<mgrwt>
<rscale>  0 0.51322040E+02</rscale>
<asrwt>0</asrwt>
<pdfrwt beam="1">  1        2 0.63838580E-01 0.50685944E+02</pdfrwt>
<pdfrwt beam="2">  1        1 0.14491098E-01 0.51966119E+02</pdfrwt>
<totfact> 0.37830050E+03</totfact>
</mgrwt>
</event>
<event>
 5    1  0.9399923E-003  0.6686620E+02  0.7546771E-02  0.1442846E+00
          2   -1    0    0  502    0  0.00000000000E+00  0.00000000000E+00  0.14392416002E+03  0.14392416002E+03  0.00000000000E+00 0. -1.
         -2   -1    0    0    0  501 -0.00000000000E+00 -0.00000000000E+00 -0.20966644382E+03  0.20966644382E+03  0.00000000000E+00 0.  1.
         25    1    1    2    0    0  0.34163137816E+02  0.10929905186E+02 -0.65955517487E+02  0.14581396744E+03  0.12500000000E+03 0.  0.
          1    1    1    2  502    0 -0.70711084876E+02 -0.20949548140E+00  0.87524449851E+02  0.11251946825E+03  0.00000000000E+00 0. -1.
         -3    1    1    2    0  501  0.36547947060E+02 -0.10720409705E+02 -0.87311216165E+02  0.95257168164E+02  0.00000000000E+00 0.  1.
<mgrwt>
<rscale>  0 0.50465689E+02</rscale>
<asrwt>0</asrwt>
<pdfrwt beam="1">  1        2 0.22142179E-01 0.66866204E+02</pdfrwt>
<pdfrwt beam="2">  1       -2 0.32256376E-01 0.38087788E+02</pdfrwt>
<totfact> 0.20341527E+03</totfact>
</mgrwt>
</event>
<event>
 5    1  0.9399923E-003  0.1027846E+03  0.7546771E-02  0.1306895E+00
          1   -1    0    0  501    0 -0.00000000000E+00  0.00000000000E+00  0.24654711856E+02  0.24654711856E+02  0.00000000000E+00 0. -1.
          2   -1    0    0  502    0  0.00000000000E+00 -0.00000000000E+00 -0.14582961019E+04  0.14582961019E+04  0.00000000000E+00 0. -1.
         25    1    1    2    0    0 -0.60157322654E+02 -0.99637728520E+02 -0.40367342954E+03  0.43831931070E+03  0.12500000000E+03 0.  0.
          2    1    1    2  501    0  0.93160839609E+02  0.31239957439E+02 -0.60637917567E+03  0.61428867942E+03  0.00000000000E+00 0. -1.
          1    1    1    2  502    0 -0.33003516955E+02  0.68397771081E+02 -0.42358878479E+03  0.43034282360E+03  0.00000000000E+00 0. -1.
<mgrwt>
<rscale>  0 0.88350861E+02</rscale>
<asrwt>0</asrwt>
<pdfrwt beam="2">  1        2 0.22435332E+00 0.75943974E+02</pdfrwt>
<pdfrwt beam="1">  1        1 0.37930314E-02 0.10278465E+03</pdfrwt>
<totfact> 0.48065874E+03</totfact>
</mgrwt>
</event>
<event>
 5    1  0.9399923E-003  0.1005519E+03  0.7546771E-02  0.1364437E+00
         -2   -1    0    0    0  501 -0.00000000000E+00  0.00000000000E+00  0.12901523459E+03  0.12901523459E+03  0.00000000000E+00 0.  1.
          2   -1    0    0  502    0  0.00000000000E+00 -0.00000000000E+00 -0.10526257286E+04  0.10526257286E+04  0.00000000000E+00 0. -1.
         25    1    1    2    0    0  0.24456431677E+02  0.65073326378E+02 -0.10374244739E+03  0.17669224728E+03  0.12500000000E+03 0.  0.
          1    1    1    2  502    0 -0.70148301825E+02 -0.76042915696E+02 -0.90329395200E+03  0.90919924824E+03  0.00000000000E+00 0. -1.
         -3    1    1    2    0  501  0.45691870148E+02  0.10969589318E+02  0.83425905333E+02  0.95749467717E+02  0.00000000000E+00 0.  1.
<mgrwt>
<rscale>  0 0.68738314E+02</rscale>
<asrwt>0</asrwt>
<pdfrwt beam="2">  1        2 0.16194242E+00 0.10055194E+03</pdfrwt>
<pdfrwt beam="1">  1       -2 0.19848498E-01 0.46990200E+02</pdfrwt>
<totfact> 0.51480671E+02</totfact>
</mgrwt>
</event>
<event>
 5    1  0.9399923E-003  0.1191314E+03  0.7546771E-02  0.1288706E+00
         -1   -1    0    0    0  501 -0.00000000000E+00  0.00000000000E+00  0.23330301021E+03  0.23330301021E+03  0.00000000000E+00 0.  1.
          1   -1    0    0  502    0  0.00000000000E+00 -0.00000000000E+00 -0.17859372320E+03  0.17859372320E+03  0.00000000000E+00 0. -1.
         25    1    1    2    0    0  0.10223275281E+03  0.59306613011E+02  0.72019358262E+01  0.17217920308E+03  0.12500000000E+03 0.  0.
          2    1    1    2  502    0 -0.51374872668E+02 -0.11782438832E+03 -0.27936728997E+02  0.13153868196E+03  0.00000000000E+00 0. -1.
         -2    1    1    2    0  501 -0.50857880147E+02  0.58517775305E+02  0.75444080187E+02  0.10817884837E+03  0.00000000000E+00 0.  1.
<mgrwt>
<rscale>  0 0.96105251E+02</rscale>
<asrwt>0</asrwt>
<pdfrwt beam="2">  1        1 0.27475957E-01 0.11913137E+03</pdfrwt>
<pdfrwt beam="1">  1       -1 0.35892771E-01 0.77529698E+02</pdfrwt>
<totfact> 0.12401555E+03</totfact>
</mgrwt>
</event>
<event>
 5    1  0.9399923E-003  0.7299787E+02  0.7546771E-02  0.1503856E+00
          2   -1    0    0  502    0  0.00000000000E+00  0.00000000000E+00  0.46514288748E+03  0.46514288748E+03  0.00000000000E+00 0. -1.
          1   -1    0    0  501    0 -0.00000000000E+00 -0.00000000000E+00 -0.38760109735E+03  0.38760109735E+03  0.00000000000E+00 0. -1.
         25    1    1    2    0    0  0.52034429260E+02 -0.25015259386E+02  0.15812987173E+03  0.20967451291E+03  0.12500000000E+03 0.  0.
          2    1    1    2  501    0  0.89861254295E+01 -0.20713458597E+02 -0.35629612738E+03  0.35701082365E+03  0.00000000000E+00 0. -1.
          1    1    1    2  502    0 -0.61020554689E+02  0.45728717983E+02  0.27570804578E+03  0.28605864828E+03  0.00000000000E+00 0. -1.
<mgrwt>
<rscale>  0 0.40597996E+02</rscale>
<asrwt>0</asrwt>
<pdfrwt beam="1">  1        2 0.71560444E-01 0.72997872E+02</pdfrwt>
<pdfrwt beam="2">  1        1 0.59630938E-01 0.22578703E+02</pdfrwt>
<totfact> 0.60379087E+02</totfact>
</mgrwt>
</event>
<event>
 5    1  0.9399923E-003  0.1009424E+03  0.7546771E-02  0.1358913E+00
          1   -1    0    0  501    0 -0.00000000000E+00  0.00000000000E+00  0.88042749023E+03  0.88042749023E+03  0.00000000000E+00 0. -1.
          2   -1    0    0  502    0  0.00000000000E+00 -0.00000000000E+00 -0.95424152550E+02  0.95424152550E+02  0.00000000000E+00 0. -1.
         25    1    1    2    0    0 -0.64071509858E+02 -0.11284411134E+03  0.46166008145E+03  0.49557439668E+03  0.12500000000E+03 0.  0.
          2    1    1    2  501    0  0.67383234130E+02  0.63929238882E+02  0.38809699977E+03  0.39905730047E+03  0.00000000000E+00 0. -1.
          1    1    1    2  502    0 -0.33117242728E+01  0.48914872460E+02 -0.64753743543E+02  0.81219945631E+02  0.00000000000E+00 0. -1.
<mgrwt>
<rscale>  0 0.70348331E+02</rscale>
<asrwt>0</asrwt>
<pdfrwt beam="2">  1        2 0.14680639E-01 0.49026852E+02</pdfrwt>
<pdfrwt beam="1">  1        1 0.13545038E+00 0.10094239E+03</pdfrwt>
<totfact> 0.10463685E+03</totfact>
</mgrwt>
</event>
<event>
 5    1  0.9399923E-003  0.2834213E+03  0.7546771E-02  0.1223288E+00
          2   -1    0    0  502    0  0.00000000000E+00  0.00000000000E+00  0.50750836972E+03  0.50750836972E+03  0.00000000000E+00 0. -1.
          1   -1    0    0  501    0 -0.00000000000E+00 -0.00000000000E+00 -0.10109081780E+04  0.10109081780E+04  0.00000000000E+00 0. -1.
         25    1    1    2    0    0  0.32211202556E+03  0.21791838577E+02 -0.66594676156E+01  0.34626635665E+03  0.12500000000E+03 0.  0.
          2    1    1    2  501    0 -0.50791510228E+02 -0.36026545745E+02 -0.77835340094E+03  0.78084038463E+03  0.00000000000E+00 0. -1.
          1    1    1    2  502    0 -0.27132051533E+03  0.14234707169E+02  0.28161306025E+03  0.39130980646E+03  0.00000000000E+00 0. -1.
<mgrwt>
<rscale>  0 0.13284938E+03</rscale>
<asrwt>0</asrwt>
<pdfrwt beam="1">  1        2 0.78078212E-01 0.28342133E+03</pdfrwt>
<pdfrwt beam="2">  1        1 0.15552433E+00 0.62271097E+02</pdfrwt>
<totfact> 0.14451484E+02</totfact>
</mgrwt>
</event>
<event>
 5    1  0.9399923E-003  0.5021838E+02  0.7546771E-02  0.1501266E+00
          2   -1    0    0  502    0  0.00000000000E+00  0.00000000000E+00  0.17577337209E+03  0.17577337209E+03  0.00000000000E+00 0. -1.
          1   -1    0    0  501    0 -0.00000000000E+00 -0.00000000000E+00 -0.47716001182E+03  0.47716001182E+03  0.00000000000E+00 0. -1.
         25    1    1    2    0    0 -0.41182451992E+02 -0.22430258385E+02 -0.11309636690E+03  0.17497113776E+03  0.12500000000E+03 0.  0.
          2    1    1    2  501    0 -0.84938600814E+01  0.32310051254E+02 -0.32782319782E+03  0.32952106776E+03  0.00000000000E+00 0. -1.
          1    1    1    2  502    0  0.49676312074E+02 -0.98797928691E+01  0.13953292499E+03  0.14844117840E+03  0.00000000000E+00 0. -1.
<mgrwt>
<rscale>  0 0.40959598E+02</rscale>
<asrwt>0</asrwt>
<pdfrwt beam="1">  1        2 0.27042058E-01 0.50218383E+02</pdfrwt>
<pdfrwt beam="2">  1        1 0.73409231E-01 0.33407859E+02</pdfrwt>
<totfact> 0.12852061E+03</totfact>
</mgrwt>
</event>
<event>
 5    1  0.9399923E-003  0.9729350E+02  0.7546771E-02  0.1313240E+00
          1   -1    0    0  501    0 -0.00000000000E+00  0.00000000000E+00  0.65506185832E+02  0.65506185832E+02  0.00000000000E+00 0. -1.
          2   -1    0    0  502    0  0.00000000000E+00 -0.00000000000E+00 -0.13838987518E+04  0.13838987518E+04  0.00000000000E+00 0. -1.
         25    1    1    2    0    0  0.33181804181E+02 -0.22275941673E+02 -0.31470675971E+03  0.34097301112E+03  0.12500000000E+03 0.  0.
          2    1    1    2  501    0  0.28087919668E+02 -0.70341531302E+02  0.20321474008E+02  0.78420817153E+02  0.00000000000E+00 0. -1.
          1    1    1    2  502    0 -0.61269723849E+02  0.92617472974E+02 -0.10240072802E+04  0.10300111093E+04  0.00000000000E+00 0. -1.
<mgrwt>
<rscale>  0 0.85844111E+02</rscale>
<asrwt>0</asrwt>
<pdfrwt beam="2">  1        2 0.21290749E+00 0.97293495E+02</pdfrwt>
<pdfrwt beam="1">  1        1 0.10077875E-01 0.75742077E+02</pdfrwt>
<totfact> 0.13591541E+03</totfact>
</mgrwt>
</event>
<event>
 5    1  0.9399923E-003  0.7427852E+02  0.7546771E-02  0.1434014E+00
          1   -1    0    0  501    0 -0.00000000000E+00  0.00000000000E+00  0.32663473797E+04  0.32663473797E+04  0.00000000000E+00 0. -1.
          2   -1    0    0  502    0  0.00000000000E+00 -0.00000000000E+00 -0.13891582785E+03  0.13891582785E+03  0.00000000000E+00 0. -1.
         25    1    1    2    0    0 -0.61286964563E+02 -0.64425900351E+01  0.11140896796E+04  0.11227726453E+04  0.12500000000E+03 0.  0.
          2    1    1    2  501    0  0.53857808973E+00 -0.36627725076E+02  0.21374454769E+04  0.21377593520E+04  0.00000000000E+00 0. -1.
          1    1    1    2  502    0  0.60748386473E+02  0.43070315111E+02 -0.12410360468E+03  0.14473121017E+03  0.00000000000E+00 0. -1.
<mgrwt>
<rscale>  0 0.52162701E+02</rscale>
<asrwt>0</asrwt>
<pdfrwt beam="2">  1        2 0.21371668E-01 0.74278521E+02</pdfrwt>
<pdfrwt beam="1">  1        1 0.50251492E+00 0.36631685E+02</pdfrwt>
<totfact> 0.22832838E+01</totfact>
</mgrwt>
</event>
<event>
 5    1  0.9678224E-003  0.7073040E+02  0.7546771E-02  0.1476026E+00
          2   -1    0    0  502    0  0.00000000000E+00  0.00000000000E+00  0.59223164792E+03  0.59223164792E+03  0.00000000000E+00 0. -1.
          1   -1    0    0  501    0 -0.00000000000E+00 -0.00000000000E+00 -0.18590466637E+04  0.18590466637E+04  0.00000000000E+00 0. -1.
         25    1    1    2    0    0 -0.49063561319E+02  0.36473650033E+02 -0.46738661132E+03  0.48766054243E+03  0.12500000000E+03 0.  0.
          2    1    1    2  501    0  0.13604932526E+02  0.24802544874E+02 -0.13792249015E+04  0.13795149834E+04  0.00000000000E+00 0. -1.
          1    1    1    2  502    0  0.35458628793E+02 -0.61276194907E+02  0.57979649704E+03  0.58410278582E+03  0.00000000000E+00 0. -1.
<mgrwt>
<rscale>  0 0.44731235E+02</rscale>
<asrwt>0</asrwt>
<pdfrwt beam="1">  1        2 0.91112564E-01 0.70730399E+02</pdfrwt>
<pdfrwt beam="2">  1        1 0.28600717E+00 0.28288875E+02</pdfrwt>
<totfact> 0.39479876E+01</totfact>
</mgrwt>
</event>
<event>
 5    1  0.9399923E-003  0.1371961E+03  0.7546771E-02  0.1266046E+00
          1   -1    0    0  501    0 -0.00000000000E+00  0.00000000000E+00  0.43560877615E+04  0.43560877615E+04  0.00000000000E+00 0. -1.
          2   -1    0    0  502    0  0.00000000000E+00 -0.00000000000E+00 -0.10320140072E+04  0.10320140072E+04  0.00000000000E+00 0. -1.
         25    1    1    2    0    0 -0.95425985688E+01  0.14050051786E+03  0.26199205624E+04  0.26266785510E+04  0.12500000000E+03 0.  0.
          2    1    1    2  501    0  0.89221023005E+02 -0.11520334118E+03  0.17280182991E+04  0.17341509285E+04  0.00000000000E+00 0. -1.
          1    1    1    2  502    0 -0.79678424436E+02 -0.25297176680E+02 -0.10238651072E+04  0.10272722892E+04  0.00000000000E+00 0. -1.
<mgrwt>
<rscale>  0 0.10709480E+03</rscale>
<asrwt>0</asrwt>
<pdfrwt beam="2">  1        2 0.15877139E+00 0.83597838E+02</pdfrwt>
<pdfrwt beam="1">  1        1 0.67016734E+00 0.13719609E+03</pdfrwt>
<totfact> 0.25917998E-01</totfact>
</mgrwt>
</event>
<event>
 5    1  0.9399923E-003  0.1034219E+03  0.7546771E-02  0.1274095E+00
         -2   -1    0    0    0  501 -0.00000000000E+00  0.00000000000E+00  0.27709213475E+03  0.27709213475E+03  0.00000000000E+00 0.  1.
          2   -1    0    0  502    0  0.00000000000E+00 -0.00000000000E+00 -0.68062495999E+03  0.68062495999E+03  0.00000000000E+00 0. -1.
         25    1    1    2    0    0  0.67398789064E+02 -0.63523298043E+02  0.29839689883E+01  0.15560112542E+03  0.12500000000E+03 0.  0.
          1    1    1    2  502    0  0.28539651261E+02  0.10214845090E+03 -0.58570129184E+03  0.59522669713E+03  0.00000000000E+00 0. -1.
         -1    1    1    2    0  501 -0.95938440325E+02 -0.38625152859E+02  0.17918449760E+03  0.20688927219E+03  0.00000000000E+00 0.  1.
<mgrwt>
<rscale>  0 0.10300767E+03</rscale>
<asrwt>0</asrwt>
<pdfrwt beam="2">  1        2 0.10471153E+00 0.10259511E+03</pdfrwt>
<pdfrwt beam="1">  1       -2 0.42629560E-01 0.10342189E+03</pdfrwt>
<totfact> 0.23649172E+02</totfact>
</mgrwt>
</event>
<event>
 5    1  0.9399923E-003  0.1142159E+03  0.7546771E-02  0.1351371E+00
          2   -1    0    0  502    0  0.00000000000E+00  0.00000000000E+00  0.10531822625E+04  0.10531822625E+04  0.00000000000E+00 0. -1.
          1   -1    0    0  501    0 -0.00000000000E+00 -0.00000000000E+00 -0.19144645855E+04  0.19144645855E+04  0.00000000000E+00 0. -1.
         25    1    1    2    0    0 -0.84883852176E+02  0.50503984391E+02 -0.45087067605E+03  0.47818959349E+03  0.12500000000E+03 0.  0.
          2    1    1    2  501    0  0.18223325043E+02  0.42438448376E+02 -0.14464186039E+04  0.14471557930E+04  0.00000000000E+00 0. -1.
          1    1    1    2  502    0  0.66660527134E+02 -0.92942432767E+02  0.10360069570E+04  0.10423014615E+04  0.00000000000E+00 0. -1.
<mgrwt>
<rscale>  0 0.72630118E+02</rscale>
<asrwt>0</asrwt>
<pdfrwt beam="1">  1        2 0.16202804E+00 0.11421594E+03</pdfrwt>
<pdfrwt beam="2">  1        1 0.29453301E+00 0.46185620E+02</pdfrwt>
<totfact> 0.16589528E+01</totfact>
</mgrwt>
</event>
<event>
 5    1  0.9399923E-003  0.1287991E+03  0.7546771E-02  0.1361250E+00
          2   -1    0    0  502    0  0.00000000000E+00  0.00000000000E+00  0.30690203279E+03  0.30690203279E+03  0.00000000000E+00 0. -1.
         -2   -1    0    0    0  501 -0.00000000000E+00 -0.00000000000E+00 -0.10602905611E+04  0.10602905611E+04  0.00000000000E+00 0.  1.
         25    1    1    2    0    0  0.11496570325E+03 -0.75353627513E+02 -0.88544393626E+03  0.90472716681E+03  0.12500000000E+03 0.  0.
          1    1    1    2  502    0 -0.37025177385E+02 -0.69736757480E+01  0.27638135066E+03  0.27893753227E+03  0.00000000000E+00 0. -1.
         -1    1    1    2    0  501 -0.77940525861E+02  0.82327303261E+02 -0.14432594267E+03  0.18352789478E+03  0.00000000000E+00 0.  1.
<mgrwt>
<rscale>  0 0.69661031E+02</rscale>
<asrwt>0</asrwt>
<pdfrwt beam="1">  1        2 0.47215698E-01 0.37676198E+02</pdfrwt>
<pdfrwt beam="2">  1       -2 0.16312162E+00 0.12879907E+03</pdfrwt>
<totfact> 0.28159663E+01</totfact>
</mgrwt>
</event>
<event>
 5    1  0.9399923E-003  0.6215200E+02  0.7546771E-02  0.1445688E+00
          2   -1    0    0  502    0  0.00000000000E+00  0.00000000000E+00  0.57875779721E+03  0.57875779721E+03  0.00000000000E+00 0. -1.
          1   -1    0    0  501    0 -0.00000000000E+00 -0.00000000000E+00 -0.33482121710E+03  0.33482121710E+03  0.00000000000E+00 0. -1.
         25    1    1    2    0    0 -0.93503374769E+01  0.23208135588E+02  0.72229064512E+02  0.14651991035E+03  0.12500000000E+03 0.  0.
          2    1    1    2  501    0 -0.28425069165E+01  0.40019930585E+02 -0.29409890592E+03  0.29682291211E+03  0.00000000000E+00 0. -1.
          1    1    1    2  502    0  0.12192844393E+02 -0.63228066174E+02  0.46580642152E+03  0.47023619186E+03  0.00000000000E+00 0. -1.
<mgrwt>
<rscale>  0 0.49935807E+02</rscale>
<asrwt>0</asrwt>
<pdfrwt beam="1">  1        2 0.89039661E-01 0.62151997E+02</pdfrwt>
<pdfrwt beam="2">  1        1 0.51510956E-01 0.40120751E+02</pdfrwt>
<totfact> 0.56827403E+02</totfact>
</mgrwt>
</event>
<event>
 5    1  0.9399923E-003  0.5014693E+02  0.7546771E-02  0.1506843E+00
          1   -1    0    0  501    0 -0.00000000000E+00  0.00000000000E+00  0.74486518833E+02  0.74486518833E+02  0.00000000000E+00 0. -1.
          2   -1    0    0  502    0  0.00000000000E+00 -0.00000000000E+00 -0.22633593895E+04  0.22633593895E+04  0.00000000000E+00 0. -1.
         25    1    1    2    0    0 -0.35500578671E+02  0.53998122412E+02 -0.16744899743E+03  0.21872415288E+03  0.12500000000E+03 0.  0.
          2    1    1    2  501    0  0.44074687626E+02 -0.22956017945E+02  0.36051498911E+02  0.61394359863E+02  0.00000000000E+00 0. -1.
          1    1    1    2  502    0 -0.85741089557E+01 -0.31042104467E+02 -0.20574753721E+04  0.20577273956E+04  0.00000000000E+00 0. -1.
<mgrwt>
<rscale>  0 0.40186505E+02</rscale>
<asrwt>0</asrwt>
<pdfrwt beam="2">  1        2 0.34820918E+00 0.32204465E+02</pdfrwt>
<pdfrwt beam="1">  1        1 0.11459463E-01 0.50146933E+02</pdfrwt>
<totfact> 0.46388915E+02</totfact>
</mgrwt>
</event>
<event>
 5    1  0.9399923E-003  0.4772719E+02  0.7546771E-02  0.1562057E+00
         -2   -1    0    0    0  501 -0.00000000000E+00  0.00000000000E+00  0.28714126210E+02  0.28714126210E+02  0.00000000000E+00 0.  1.
          2   -1    0    0  502    0  0.00000000000E+00 -0.00000000000E+00 -0.47448922995E+03  0.47448922995E+03  0.00000000000E+00 0. -1.
         25    1    1    2    0    0  0.56810138813E+02 -0.10636454243E+02 -0.29487080329E+03  0.32544479818E+03  0.12500000000E+03 0.  0.
          1    1    1    2  502    0 -0.45153910002E+02 -0.98332632725E+01 -0.14673070767E+03  0.15383585157E+03  0.00000000000E+00 0. -1.
         -1    1    1    2    0  501 -0.11656228811E+02  0.20469717516E+02 -0.41735927829E+01  0.23922706410E+02  0.00000000000E+00 0.  1.
<mgrwt>
<rscale>  0 0.33529889E+02</rscale>
<asrwt>0</asrwt>
<pdfrwt beam="2">  1        2 0.72998336E-01 0.47727191E+02</pdfrwt>
<pdfrwt beam="1">  1       -2 0.44175583E-02 0.23555827E+02</pdfrwt>
<totfact> 0.12149827E+04</totfact>
</mgrwt>
</event>
<event>
 5    1  0.9399923E-003  0.6136196E+02  0.7546771E-02  0.1492904E+00
         -2   -1    0    0    0  501 -0.00000000000E+00  0.00000000000E+00  0.16387581840E+03  0.16387581840E+03  0.00000000000E+00 0.  1.
          2   -1    0    0  502    0  0.00000000000E+00 -0.00000000000E+00 -0.94658142994E+03  0.94658142994E+03  0.00000000000E+00 0. -1.
         25    1    1    2    0    0 -0.25475002684E+02 -0.69427505604E+02 -0.42473349198E+03  0.44887937523E+03  0.12500000000E+03 0.  0.
          1    1    1    2  502    0  0.27776589451E+02  0.82102327896E+01 -0.50316103044E+03  0.50399401722E+03  0.00000000000E+00 0. -1.
         -1    1    1    2    0  501 -0.23015867667E+01  0.61217272815E+02  0.14518891088E+03  0.15758385589E+03  0.00000000000E+00 0.  1.
<mgrwt>
<rscale>  0 0.42158312E+02</rscale>
<asrwt>0</asrwt>
<pdfrwt beam="2">  1        2 0.14562791E+00 0.28964579E+02</pdfrwt>
<pdfrwt beam="1">  1       -2 0.25211665E-01 0.61361958E+02</pdfrwt>
<totfact> 0.42774626E+02</totfact>
</mgrwt>
</event>
<event>
 5    1  0.9399923E-003  0.1325037E+03  0.7546771E-02  0.1309016E+00
          2   -1    0    0  502    0  0.00000000000E+00  0.00000000000E+00  0.10384414602E+04  0.10384414602E+04  0.00000000000E+00 0. -1.
          1   -1    0    0  501    0 -0.00000000000E+00 -0.00000000000E+00 -0.19966853077E+03  0.19966853077E+03  0.00000000000E+00 0. -1.
         25    1    1    2    0    0  0.78339735649E+02  0.81691404567E+02  0.11019005963E+03  0.20143844967E+03  0.12500000000E+03 0.  0.
          2    1    1    2  501    0 -0.34024309328E+02  0.46705000375E+02 -0.14317471741E+03  0.15439562944E+03  0.00000000000E+00 0. -1.
          1    1    1    2  502    0 -0.44315426322E+02 -0.12839640494E+03  0.87175758717E+03  0.88227591183E+03  0.00000000000E+00 0. -1.
<mgrwt>
<rscale>  0 0.87502098E+02</rscale>
<asrwt>0</asrwt>
<pdfrwt beam="1">  1        2 0.15976022E+00 0.13250371E+03</pdfrwt>
<pdfrwt beam="2">  1        1 0.30718236E-01 0.57784173E+02</pdfrwt>
<totfact> 0.50438652E+02</totfact>
</mgrwt>
</event>
<event>
 5    1  0.9399923E-003  0.5554448E+02  0.7546771E-02  0.1452384E+00
          1   -1    0    0  502    0  0.00000000000E+00  0.00000000000E+00  0.96413196209E+03  0.96413196209E+03  0.00000000000E+00 0. -1.
         -1   -1    0    0    0  501 -0.00000000000E+00 -0.00000000000E+00 -0.70925990384E+02  0.70925990384E+02  0.00000000000E+00 0.  1.
         25    1    1    2    0    0 -0.88834335481E+02 -0.37959220661E+02  0.58251676671E+03  0.60355880003E+03  0.12500000000E+03 0.  0.
          2    1    1    2  502    0  0.41315562360E+02  0.10902044725E+02  0.35717893671E+03  0.35972576097E+03  0.00000000000E+00 0. -1.
         -2    1    1    2    0  501  0.47518773121E+02  0.27057175937E+02 -0.46489731719E+02  0.71773391476E+02  0.00000000000E+00 0.  1.
<mgrwt>
<rscale>  0 0.48717561E+02</rscale>
<asrwt>0</asrwt>
<pdfrwt beam="1">  1        1 0.14832799E+00 0.42729735E+02</pdfrwt>
<pdfrwt beam="2">  1       -1 0.10911691E-01 0.55544475E+02</pdfrwt>
<totfact> 0.92568793E+02</totfact>
</mgrwt>
</event>
<event>
 5    1  0.9399923E-003  0.7064802E+02  0.7546771E-02  0.1405422E+00
         -1   -1    0    0    0  502 -0.00000000000E+00  0.00000000000E+00  0.44466450485E+03  0.44466450485E+03  0.00000000000E+00 0.  1.
         -2   -1    0    0    0  501  0.00000000000E+00 -0.00000000000E+00 -0.40315488117E+03  0.40315488117E+03  0.00000000000E+00 0.  1.
         25    1    1    2    0    0 -0.59827085903E+01 -0.55747134712E+02  0.32058128145E+03  0.34862715592E+03  0.12500000000E+03 0.  0.
         -2    1    1    2    0  502 -0.25082353894E+02  0.92327903286E+02  0.87403803349E+02  0.12958777350E+03  0.00000000000E+00 0.  1.
         -1    1    1    2    0  501  0.31065062485E+02 -0.36580768574E+02 -0.36647546111E+03  0.36960445659E+03  0.00000000000E+00 0.  1.
<mgrwt>
<rscale>  0 0.58228082E+02</rscale>
<asrwt>0</asrwt>
<pdfrwt beam="2">  1       -2 0.62023828E-01 0.47991569E+02</pdfrwt>
<pdfrwt beam="1">  1       -1 0.68409924E-01 0.70648025E+02</pdfrwt>
<totfact> 0.43348383E+01</totfact>
</mgrwt>
</event>
<event>
 5    1  0.9399923E-003  0.6695712E+02  0.7546771E-02  0.1374352E+00
         -1   -1    0    0    0  501 -0.00000000000E+00  0.00000000000E+00  0.45563315902E+02  0.45563315902E+02  0.00000000000E+00 0.  1.
          1   -1    0    0  502    0  0.00000000000E+00 -0.00000000000E+00 -0.18656051366E+04  0.18656051366E+04  0.00000000000E+00 0. -1.
         25    1    1    2    0    0  0.71721182494E+02  0.98496420108E+02 -0.34755580879E+03  0.38892867343E+03  0.12500000000E+03 0.  0.
          2    1    1    2  502    0 -0.54584635343E+02 -0.35794656686E+02 -0.14528805772E+04  0.14543461457E+04  0.00000000000E+00 0. -1.
         -2    1    1    2    0  501 -0.17136547151E+02 -0.62701763423E+02 -0.19605434710E+02  0.67893633389E+02  0.00000000000E+00 0.  1.
<mgrwt>
<rscale>  0 0.65971974E+02</rscale>
<asrwt>0</asrwt>
<pdfrwt beam="2">  1        1 0.28701613E+00 0.66957116E+02</pdfrwt>
<pdfrwt beam="1">  1       -1 0.70097420E-02 0.65001326E+02</pdfrwt>
<totfact> 0.45761915E+02</totfact>
</mgrwt>
</event>
<event>
 5    1  0.9399923E-003  0.2240742E+03  0.7546771E-02  0.1320437E+00
          2   -1    0    0  502    0  0.00000000000E+00  0.00000000000E+00  0.60620643557E+03  0.60620643557E+03  0.00000000000E+00 0. -1.
          1   -1    0    0  501    0 -0.00000000000E+00 -0.00000000000E+00 -0.79216057569E+03  0.79216057569E+03  0.00000000000E+00 0. -1.
         25    1    1    2    0    0 -0.23726365416E+03 -0.77983841930E+02 -0.79344529529E+02  0.29033786449E+03  0.12500000000E+03 0.  0.
          2    1    1    2  501    0  0.20692349955E+03  0.72512266771E+02 -0.58701917805E+03  0.62663137401E+03  0.00000000000E+00 0. -1.
          1    1    1    2  502    0  0.30340154611E+02  0.54715751586E+01  0.48040956745E+03  0.48139777276E+03  0.00000000000E+00 0. -1.
<mgrwt>
<rscale>  0 0.83115062E+02</rscale>
<asrwt>0</asrwt>
<pdfrwt beam="1">  1        2 0.93262529E-01 0.30829582E+02</pdfrwt>
<pdfrwt beam="2">  1        1 0.12187086E+00 0.22407419E+03</pdfrwt>
<totfact> 0.16949429E+02</totfact>
</mgrwt>
</event>
<event>
 5    1  0.9399923E-003  0.1115918E+03  0.7546771E-02  0.1305354E+00
         -2   -1    0    0    0  501 -0.00000000000E+00  0.00000000000E+00  0.40650123305E+03  0.40650123305E+03  0.00000000000E+00 0.  1.
          2   -1    0    0  502    0  0.00000000000E+00 -0.00000000000E+00 -0.22098480937E+03  0.22098480937E+03  0.00000000000E+00 0. -1.
         25    1    1    2    0    0 -0.13014888236E+03  0.11076004743E+03  0.72866406848E+02  0.22392193491E+03  0.12500000000E+03 0.  0.
          1    1    1    2  502    0  0.65915722186E+02 -0.80647404713E+02 -0.12084034702E+03  0.15953455985E+03  0.00000000000E+00 0. -1.
         -1    1    1    2    0  501  0.64233160176E+02 -0.30112642717E+02  0.23349036386E+03  0.24402954766E+03  0.00000000000E+00 0.  1.
<mgrwt>
<rscale>  0 0.88974531E+02</rscale>
<asrwt>0</asrwt>
<pdfrwt beam="2">  1        2 0.33997663E-01 0.11159177E+03</pdfrwt>
<pdfrwt beam="1">  1       -2 0.62538651E-01 0.70941315E+02</pdfrwt>
<totfact> 0.37237880E+02</totfact>
</mgrwt>
</event>
<event>
 5    1  0.9399923E-003  0.4293019E+02  0.7546771E-02  0.1504324E+00
          2   -1    0    0  502    0  0.00000000000E+00  0.00000000000E+00  0.32759644935E+03  0.32759644935E+03  0.00000000000E+00 0. -1.
          1   -1    0    0  501    0 -0.00000000000E+00 -0.00000000000E+00 -0.23688536558E+03  0.23688536558E+03  0.00000000000E+00 0. -1.
         25    1    1    2    0    0 -0.24599378256E+01 -0.52704497677E+01  0.18428290351E+01  0.12514881124E+03  0.12500000000E+03 0.  0.
          2    1    1    2  501    0 -0.11670027728E+02 -0.36447222258E+02 -0.17126932486E+03  0.17549293774E+03  0.00000000000E+00 0. -1.
          1    1    1    2  502    0  0.14129965553E+02  0.41717672026E+02  0.26013757959E+03  0.26384006595E+03  0.00000000000E+00 0. -1.
<mgrwt>
<rscale>  0 0.40533154E+02</rscale>
<asrwt>0</asrwt>
<pdfrwt beam="1">  1        2 0.50399454E-01 0.42930192E+02</pdfrwt>
<pdfrwt beam="2">  1        1 0.36443902E-01 0.38269956E+02</pdfrwt>
<totfact> 0.15498416E+03</totfact>
</mgrwt>
</event>
<event>
 5    1  0.9399923E-003  0.7745239E+02  0.7546771E-02  0.1338080E+00
          1   -1    0    0  501    0 -0.00000000000E+00  0.00000000000E+00  0.24519782627E+03  0.24519782627E+03  0.00000000000E+00 0. -1.
          2   -1    0    0  502    0  0.00000000000E+00 -0.00000000000E+00 -0.85320207445E+03  0.85320207445E+03  0.00000000000E+00 0. -1.
         25    1    1    2    0    0  0.77382866973E+01 -0.53906198680E+00 -0.25013143310E+03  0.27973363311E+03  0.12500000000E+03 0.  0.
          2    1    1    2  501    0 -0.39188142417E+02 -0.69039192264E+02  0.22097599010E+03  0.23480312769E+03  0.00000000000E+00 0. -1.
          1    1    1    2  502    0  0.31449855720E+02  0.69578254251E+02 -0.57884880518E+03  0.58386313991E+03  0.00000000000E+00 0. -1.
<mgrwt>
<rscale>  0 0.76902202E+02</rscale>
<asrwt>0</asrwt>
<pdfrwt beam="2">  1        2 0.13126186E+00 0.76355922E+02</pdfrwt>
<pdfrwt beam="1">  1        1 0.37722743E-01 0.77452391E+02</pdfrwt>
<totfact> 0.52547967E+02</totfact>
</mgrwt>
</event>
<event>
 5    1  0.9399923E-003  0.6215792E+02  0.7546771E-02  0.1495481E+00
          2   -1    0    0  502    0  0.00000000000E+00  0.00000000000E+00  0.12036452391E+03  0.12036452391E+03  0.00000000000E+00 0. -1.
          1   -1    0    0  501    0 -0.00000000000E+00 -0.00000000000E+00 -0.10222169207E+04  0.10222169207E+04  0.00000000000E+00 0. -1.
         25    1    1    2    0    0 -0.20098467841E+02  0.80895241538E+02 -0.42057147340E+03  0.44660200710E+03  0.12500000000E+03 0.  0.
          2    1    1    2  501    0  0.14942450062E+01 -0.59852307118E+02 -0.58523914581E+03  0.58829362501E+03  0.00000000000E+00 0. -1.
          1    1    1    2  502    0  0.18604222835E+02 -0.21042934421E+02  0.10395822244E+03  0.10768581248E+03  0.00000000000E+00 0. -1.
<mgrwt>
<rscale>  0 0.41783690E+02</rscale>
<asrwt>0</asrwt>
<pdfrwt beam="1">  1        2 0.18517618E-01 0.28087759E+02</pdfrwt>
<pdfrwt beam="2">  1        1 0.15726415E+00 0.62157924E+02</pdfrwt>
<totfact> 0.63491120E+02</totfact>
</mgrwt>
</event>
<event>
 5    1  0.9399923E-003  0.6188654E+02  0.7546771E-02  0.1440005E+00
          1   -1    0    0  501    0 -0.00000000000E+00  0.00000000000E+00  0.43702177992E+02  0.43702177992E+02  0.00000000000E+00 0. -1.
          2   -1    0    0  502    0  0.00000000000E+00 -0.00000000000E+00 -0.18481440107E+04  0.18481440107E+04  0.00000000000E+00 0. -1.
         25    1    1    2    0    0  0.20228767412E+02  0.16693235642E+02 -0.25644924042E+03  0.28649446777E+03  0.12500000000E+03 0.  0.
          2    1    1    2  501    0 -0.41038983596E+02 -0.53213815622E+02 -0.11371516241E+02  0.68155848826E+02  0.00000000000E+00 0. -1.
          1    1    1    2  502    0  0.20810216184E+02  0.36520579980E+02 -0.15366210760E+04  0.15371958721E+04  0.00000000000E+00 0. -1.
<mgrwt>
<rscale>  0 0.51003040E+02</rscale>
<asrwt>0</asrwt>
<pdfrwt beam="2">  1        2 0.28432985E+00 0.42033533E+02</pdfrwt>
<pdfrwt beam="1">  1        1 0.67234120E-02 0.61886545E+02</pdfrwt>
<totfact> 0.14428834E+03</totfact>
</mgrwt>
</event>
<event>
 5    1  0.9399923E-003  0.1038732E+03  0.7546771E-02  0.1283266E+00
          2   -1    0    0  502    0  0.00000000000E+00  0.00000000000E+00  0.25325191638E+04  0.25325191638E+04  0.00000000000E+00 0. -1.
         -2   -1    0    0    0  501 -0.00000000000E+00 -0.00000000000E+00 -0.79012308136E+02  0.79012308136E+02  0.00000000000E+00 0.  1.
         25    1    1    2    0    0 -0.53089506867E+02  0.13523496065E+03  0.10552954240E+04  0.10725578876E+04  0.12500000000E+03 0.  0.
          1    1    1    2  502    0  0.88367561642E+02 -0.48542184612E+02  0.14349044645E+04  0.14384422101E+04  0.00000000000E+00 0. -1.
         -1    1    1    2    0  501 -0.35278054775E+02 -0.86692776041E+02 -0.36693032750E+02  0.10053137430E+03  0.00000000000E+00 0.  1.
<mgrwt>
<rscale>  0 0.98600701E+02</rscale>
<asrwt>0</asrwt>
<pdfrwt beam="1">  1        2 0.38961827E+00 0.10387320E+03</pdfrwt>
<pdfrwt beam="2">  1       -2 0.12155742E-01 0.93595826E+02</pdfrwt>
<totfact> 0.20035218E+02</totfact>
</mgrwt>
</event>
<event>
 5    1  0.9399923E-003  0.3914898E+02  0.7546771E-02  0.1577597E+00
          2   -1    0    0  502    0  0.00000000000E+00  0.00000000000E+00  0.21999265598E+04  0.21999265598E+04  0.00000000000E+00 0. -1.
          1   -1    0    0  501    0 -0.00000000000E+00 -0.00000000000E+00 -0.85269067042E+02  0.85269067042E+02  0.00000000000E+00 0. -1.
         25    1    1    2    0    0 -0.45353664491E+02  0.11970287287E+02  0.58098310987E+03  0.59612634283E+03  0.12500000000E+03 0.  0.
          2    1    1    2  501    0  0.83320406412E+01 -0.24688295966E+02 -0.75268126352E+02  0.79650647854E+02  0.00000000000E+00 0. -1.
          3    1    1    2  502    0  0.37021623850E+02  0.12718008679E+02  0.16089425092E+04  0.16094186361E+04  0.00000000000E+00 0. -1.
<mgrwt>
<rscale>  0 0.31938702E+02</rscale>
<asrwt>0</asrwt>
<pdfrwt beam="1">  1        2 0.33845020E+00 0.39148981E+02</pdfrwt>
<pdfrwt beam="2">  1        1 0.13118320E-01 0.26056378E+02</pdfrwt>
<totfact> 0.38998829E+02</totfact>
</mgrwt>
</event>
<event>
 5    1  0.9399923E-003  0.1258349E+03  0.7546771E-02  0.1260793E+00
          1   -1    0    0  501    0 -0.00000000000E+00  0.00000000000E+00  0.55919791323E+03  0.55919791323E+03  0.00000000000E+00 0. -1.
          2   -1    0    0  502    0  0.00000000000E+00 -0.00000000000E+00 -0.23935480854E+04  0.23935480854E+04  0.00000000000E+00 0. -1.
         25    1    1    2    0    0  0.24466446675E+02  0.80317370460E+02  0.12253585469E+03  0.19413789608E+03  0.12500000000E+03 0.  0.
          2    1    1    2  501    0  0.52503003595E+02 -0.13760318329E+03  0.38631815673E+03  0.41344034595E+03  0.00000000000E+00 0. -1.
          1    1    1    2  502    0 -0.76969450270E+02  0.57285812827E+02 -0.23432041836E+04  0.23451677566E+04  0.00000000000E+00 0. -1.
<mgrwt>
<rscale>  0 0.10987980E+03</rscale>
<asrwt>0</asrwt>
<pdfrwt beam="2">  1        2 0.36823817E+00 0.95947697E+02</pdfrwt>
<pdfrwt beam="1">  1        1 0.86030449E-01 0.12583491E+03</pdfrwt>
<totfact> 0.28404223E+01</totfact>
</mgrwt>
</event>
<event>
 5    1  0.9399923E-003  0.5296523E+02  0.7546771E-02  0.1492582E+00
         -1   -1    0    0    0  501 -0.00000000000E+00  0.00000000000E+00  0.54648746318E+03  0.54648746318E+03  0.00000000000E+00 0.  1.
          1   -1    0    0  502    0  0.00000000000E+00 -0.00000000000E+00 -0.12261205690E+03  0.12261205690E+03  0.00000000000E+00 0. -1.
         25    1    1    2    0    0 -0.40214792268E+02 -0.64411926349E+02 -0.19898829337E+02  0.14760450258E+03  0.12500000000E+03 0.  0.
          2    1    1    2  502    0  0.11598550639E+02  0.46743222402E+02 -0.23097854912E+02  0.53413164285E+02  0.00000000000E+00 0. -1.
         -2    1    1    2    0  501  0.28616241628E+02  0.17668703948E+02  0.46687209053E+03  0.46808185321E+03  0.00000000000E+00 0.  1.
<mgrwt>
<rscale>  0 0.42205402E+02</rscale>
<asrwt>0</asrwt>
<pdfrwt beam="2">  1        1 0.18863394E-01 0.52965232E+02</pdfrwt>
<pdfrwt beam="1">  1       -1 0.84074993E-01 0.33631420E+02</pdfrwt>
<totfact> 0.41053710E+02</totfact>
</mgrwt>
</event>
<event>
 5    1  0.9399923E-003  0.3695931E+02  0.7546771E-02  0.1539945E+00
          2   -1    0    0  502    0  0.00000000000E+00  0.00000000000E+00  0.24625491419E+03  0.24625491419E+03  0.00000000000E+00 0. -1.
          1   -1    0    0  501    0 -0.00000000000E+00 -0.00000000000E+00 -0.31868400215E+03  0.31868400215E+03  0.00000000000E+00 0. -1.
         25    1    1    2    0    0  0.65733689815E+02  0.27590043240E+02 -0.15845397759E+03  0.21404390081E+03  0.12500000000E+03 0.  0.
          2    1    1    2  501    0 -0.30577849353E+02 -0.17140564339E+02 -0.12853180462E+03  0.13322623096E+03  0.00000000000E+00 0. -1.
          1    1    1    2  502    0 -0.35155840463E+02 -0.10449478901E+02  0.21455669425E+03  0.21766878457E+03  0.00000000000E+00 0. -1.
<mgrwt>
<rscale>  0 0.35994203E+02</rscale>
<asrwt>0</asrwt>
<pdfrwt beam="1">  1        2 0.37885371E-01 0.36959310E+02</pdfrwt>
<pdfrwt beam="2">  1        1 0.49028308E-01 0.35054298E+02</pdfrwt>
<totfact> 0.14540452E+03</totfact>
</mgrwt>
</event>
<event>
 5    1  0.9399923E-003  0.5751734E+02  0.7546771E-02  0.1489171E+00
         -2   -1    0    0    0  501 -0.00000000000E+00  0.00000000000E+00  0.36054180428E+03  0.36054180428E+03  0.00000000000E+00 0.  1.
          2   -1    0    0  502    0  0.00000000000E+00 -0.00000000000E+00 -0.79534598079E+02  0.79534598079E+02  0.00000000000E+00 0. -1.
         25    1    1    2    0    0 -0.17413780010E+02  0.35867915011E+02  0.88647484099E+02  0.15834495097E+03  0.12500000000E+03 0.  0.
          1    1    1    2  502    0  0.20661587978E+02  0.24059111001E+02 -0.34621023828E+02  0.46950583924E+02  0.00000000000E+00 0. -1.
         -1    1    1    2    0  501 -0.32478079673E+01 -0.59927026012E+02  0.22698074593E+03  0.23478086746E+03  0.00000000000E+00 0.  1.
<mgrwt>
<rscale>  0 0.42709164E+02</rscale>
<asrwt>0</asrwt>
<pdfrwt beam="2">  1        2 0.12236092E-01 0.31713436E+02</pdfrwt>
<pdfrwt beam="1">  1       -2 0.55467969E-01 0.57517345E+02</pdfrwt>
<totfact> 0.13813921E+03</totfact>
</mgrwt>
</event>
<event>
 5    1  0.9399923E-003  0.8346611E+02  0.7546771E-02  0.1465631E+00
          1   -1    0    0  501    0 -0.00000000000E+00  0.00000000000E+00  0.60858958796E+03  0.60858958796E+03  0.00000000000E+00 0. -1.
          2   -1    0    0  502    0  0.00000000000E+00 -0.00000000000E+00 -0.28060365169E+04  0.28060365169E+04  0.00000000000E+00 0. -1.
         25    1    1    2    0    0  0.67451245829E+02  0.75435702380E+02  0.11670463916E+02  0.16124954414E+03  0.12500000000E+03 0.  0.
          2    1    1    2  501    0 -0.47696285823E+00 -0.25818917265E+02  0.52117391315E+03  0.52181327286E+03  0.00000000000E+00 0. -1.
          1    1    1    2  502    0 -0.66974282971E+02 -0.49616785116E+02 -0.27302913060E+04  0.27315632879E+04  0.00000000000E+00 0. -1.
<mgrwt>
<rscale>  0 0.46425986E+02</rscale>
<asrwt>0</asrwt>
<pdfrwt beam="2">  1        2 0.43169792E+00 0.83466107E+02</pdfrwt>
<pdfrwt beam="1">  1        1 0.93629168E-01 0.25823322E+02</pdfrwt>
<totfact> 0.16440608E+01</totfact>
</mgrwt>
</event>
<event>
 5    1  0.9399923E-003  0.4981728E+02  0.7546771E-02  0.1469260E+00
          2   -1    0    0  502    0  0.00000000000E+00  0.00000000000E+00  0.11600801391E+04  0.11600801391E+04  0.00000000000E+00 0. -1.
         -2   -1    0    0    0  501 -0.00000000000E+00 -0.00000000000E+00 -0.30518497821E+03  0.30518497821E+03  0.00000000000E+00 0.  1.
         25    1    1    2    0    0 -0.28644424555E+02 -0.57471846415E+02  0.33811132421E+03  0.36615267819E+03  0.12500000000E+03 0.  0.
          1    1    1    2  502    0 -0.12486205112E+02  0.48251318589E+02  0.80564843778E+03  0.80718863988E+03  0.00000000000E+00 0. -1.
         -3    1    1    2    0  501  0.41130629667E+02  0.92205278267E+01 -0.28886460106E+03  0.29192379926E+03  0.00000000000E+00 0.  1.
<mgrwt>
<rscale>  0 0.45824359E+02</rscale>
<asrwt>0</asrwt>
<pdfrwt beam="1">  1        2 0.17847387E+00 0.49817282E+02</pdfrwt>
<pdfrwt beam="2">  1       -2 0.46951536E-01 0.42151475E+02</pdfrwt>
<totfact> 0.10229923E+02</totfact>
</mgrwt>
</event>
<event>
 5    1  0.9399923E-003  0.1072417E+03  0.7546771E-02  0.1359757E+00
          1   -1    0    0  502    0  0.00000000000E+00  0.00000000000E+00  0.66538799876E+03  0.66538799876E+03  0.00000000000E+00 0. -1.
         -1   -1    0    0    0  501 -0.00000000000E+00 -0.00000000000E+00 -0.13624071486E+03  0.13624071486E+03  0.00000000000E+00 0.  1.
         25    1    1    2    0    0  0.26199761793E+02  0.14133925247E+03  0.28591973529E+03  0.34356703397E+03  0.12500000000E+03 0.  0.
          2    1    1    2  502    0 -0.23278766926E+02 -0.95612022376E+02  0.33840858979E+03  0.35242578432E+03  0.00000000000E+00 0. -1.
         -2    1    1    2    0  501 -0.29209948672E+01 -0.45727230093E+02 -0.95181041174E+02  0.10563589533E+03  0.00000000000E+00 0.  1.
<mgrwt>
<rscale>  0 0.70098947E+02</rscale>
<asrwt>0</asrwt>
<pdfrwt beam="1">  1        1 0.10236738E+00 0.10724174E+03</pdfrwt>
<pdfrwt beam="2">  1       -1 0.20960110E-01 0.45820430E+02</pdfrwt>
<totfact> 0.55602077E+02</totfact>
</mgrwt>
</event>
<event>
 5    1  0.9399923E-003  0.6714362E+02  0.7546771E-02  0.1428981E+00
          2   -1    0    0  502    0  0.00000000000E+00  0.00000000000E+00  0.78501135841E+03  0.78501135841E+03  0.00000000000E+00 0. -1.
          1   -1    0    0  501    0 -0.00000000000E+00 -0.00000000000E+00 -0.16405183707E+03  0.16405183707E+03  0.00000000000E+00 0. -1.
         25    1    1    2    0    0 -0.74876020253E+02  0.70661861239E+02  0.53280359209E+02  0.17047965779E+03  0.12500000000E+03 0.  0.
          2    1    1    2  501    0  0.39442746214E+02 -0.14710375790E+02 -0.99545210335E+02  0.10808040657E+03  0.00000000000E+00 0. -1.
          1    1    1    2  502    0  0.35433274039E+02 -0.55951485449E+02  0.66722437247E+03  0.67050313112E+03  0.00000000000E+00 0. -1.
<mgrwt>
<rscale>  0 0.53165023E+02</rscale>
<asrwt>0</asrwt>
<pdfrwt beam="1">  1        2 0.12077098E+00 0.67143625E+02</pdfrwt>
<pdfrwt beam="2">  1        1 0.25238745E-01 0.42096620E+02</pdfrwt>
<totfact> 0.93700155E+02</totfact>
</mgrwt>
</event>
<event>
 5    1  0.9399923E-003  0.1099409E+03  0.7546771E-02  0.1299111E+00
         -1   -1    0    0    0  501 -0.00000000000E+00  0.00000000000E+00  0.36100878198E+03  0.36100878198E+03  0.00000000000E+00 0.  1.
          1   -1    0    0  502    0  0.00000000000E+00 -0.00000000000E+00 -0.79342248646E+03  0.79342248646E+03  0.00000000000E+00 0. -1.
         25    1    1    2    0    0 -0.13219212858E+03  0.85102087220E+02 -0.33340006608E+03  0.38922709074E+03  0.12500000000E+03 0.  0.
          2    1    1    2  502    0  0.23780579111E+02 -0.72453475379E+02 -0.41963836756E+03  0.42651070510E+03  0.00000000000E+00 0. -1.
         -2    1    1    2    0  501  0.10841154946E+03 -0.12648611841E+02  0.32062472916E+03  0.33869347261E+03  0.00000000000E+00 0.  1.
<mgrwt>
<rscale>  0 0.91562473E+02</rscale>
<asrwt>0</asrwt>
<pdfrwt beam="2">  1        1 0.12206500E+00 0.76256292E+02</pdfrwt>
<pdfrwt beam="1">  1       -1 0.55539813E-01 0.10994091E+03</pdfrwt>
<totfact> 0.85817536E+01</totfact>
</mgrwt>
</event>
<event>
 5    1  0.9399923E-003  0.5263459E+02  0.7546771E-02  0.1440661E+00
          2   -1    0    0  502    0  0.00000000000E+00  0.00000000000E+00  0.61137195426E+03  0.61137195426E+03  0.00000000000E+00 0. -1.
         -2   -1    0    0    0  501 -0.00000000000E+00 -0.00000000000E+00 -0.27253546067E+04  0.27253546067E+04  0.00000000000E+00 0.  1.
         25    1    1    2    0    0 -0.30087978936E+02  0.75069251809E+01 -0.72674685437E+02  0.14787917468E+03  0.12500000000E+03 0.  0.
          1    1    1    2  502    0  0.20761371217E+02  0.44583411386E+02  0.57244752370E+03  0.57455624833E+03  0.00000000000E+00 0. -1.
         -1    1    1    2    0  501  0.93266077184E+01 -0.52090336567E+02 -0.26137554907E+04  0.26142911380E+04  0.00000000000E+00 0.  1.
<mgrwt>
<rscale>  0 0.50878208E+02</rscale>
<asrwt>0</asrwt>
<pdfrwt beam="1">  1        2 0.94057224E-01 0.49180434E+02</pdfrwt>
<pdfrwt beam="2">  1       -2 0.41928532E+00 0.52634592E+02</pdfrwt>
<totfact> 0.45841243E-01</totfact>
</mgrwt>
</event>
<event>
 5    1  0.9399923E-003  0.1097789E+03  0.7546771E-02  0.1382131E+00
          2   -1    0    0  502    0  0.00000000000E+00  0.00000000000E+00  0.12619277305E+04  0.12619277305E+04  0.00000000000E+00 0. -1.
         -2   -1    0    0    0  501 -0.00000000000E+00 -0.00000000000E+00 -0.17592057998E+03  0.17592057998E+03  0.00000000000E+00 0.  1.
         25    1    1    2    0    0  0.97661846266E+02  0.85915150180E+02  0.13507281891E+03  0.22536396264E+03  0.12500000000E+03 0.  0.
          1    1    1    2  502    0 -0.37069980135E+02  0.31434633778E+01  0.10591463502E+04  0.10597995357E+04  0.00000000000E+00 0. -1.
         -1    1    1    2    0  501 -0.60591866132E+02 -0.89058613558E+02 -0.10821201858E+03  0.15268481213E+03  0.00000000000E+00 0.  1.
<mgrwt>
<rscale>  0 0.63907028E+02</rscale>
<asrwt>0</asrwt>
<pdfrwt beam="1">  1        2 0.19414272E+00 0.37203021E+02</pdfrwt>
<pdfrwt beam="2">  1       -2 0.27064705E-01 0.10977894E+03</pdfrwt>
<totfact> 0.25737007E+02</totfact>
</mgrwt>
</event>
<event>
 5    1  0.9399923E-003  0.3253585E+02  0.7546771E-02  0.1643463E+00
         -2   -1    0    0    0  501  0.00000000000E+00  0.00000000000E+00  0.68093714943E+03  0.68093714943E+03  0.00000000000E+00 0.  1.
         -1   -1    0    0    0  502 -0.00000000000E+00 -0.00000000000E+00 -0.38284319803E+03  0.38284319803E+03  0.00000000000E+00 0.  1.
         25    1    1    2    0    0 -0.95900384771E+01 -0.39140529633E+02  0.45051298788E+03  0.46926634457E+03  0.12500000000E+03 0.  0.
         -2    1    1    2    0  502  0.23159841096E+02  0.22847829512E+02 -0.37224693653E+03  0.37366587122E+03  0.00000000000E+00 0.  1.
         -1    1    1    2    0  501 -0.13569802619E+02  0.16292700121E+02  0.21982790005E+03  0.22084813167E+03  0.00000000000E+00 0.  1.
<mgrwt>
<rscale>  0 0.26265496E+02</rscale>
<asrwt>0</asrwt>
<pdfrwt beam="1">  1       -2 0.10475956E+00 0.21203576E+02</pdfrwt>
<pdfrwt beam="2">  1       -1 0.58898954E-01 0.32535845E+02</pdfrwt>
<totfact> 0.19116305E+01</totfact>
</mgrwt>
</event>
<event>
 5    1  0.9399923E-003  0.1877930E+03  0.7546771E-02  0.1220248E+00
          1   -1    0    0  501    0 -0.00000000000E+00  0.00000000000E+00  0.19711976451E+03  0.19711976451E+03  0.00000000000E+00 0. -1.
          2   -1    0    0  502    0  0.00000000000E+00 -0.00000000000E+00 -0.11777312070E+04  0.11777312070E+04  0.00000000000E+00 0. -1.
         25    1    1    2    0    0 -0.60678211353E+02 -0.11159720144E+03 -0.74687168676E+02  0.19323290058E+03  0.12500000000E+03 0.  0.
          2    1    1    2  501    0  0.43123134041E+02 -0.86908842924E+02  0.10980406743E+03  0.14652537286E+03  0.00000000000E+00 0. -1.
          1    1    1    2  502    0  0.17555077312E+02  0.19850604436E+03 -0.10157283413E+04  0.10350926981E+04  0.00000000000E+00 0. -1.
<mgrwt>
<rscale>  0 0.13497983E+03</rscale>
<asrwt>0</asrwt>
<pdfrwt beam="2">  1        2 0.18118941E+00 0.18779301E+03</pdfrwt>
<pdfrwt beam="1">  1        1 0.30326118E-01 0.97019337E+02</pdfrwt>
<totfact> 0.42218696E+02</totfact>
</mgrwt>
</event>
<event>
 5    1  0.9399923E-003  0.6780520E+02  0.7546771E-02  0.1487547E+00
          1   -1    0    0  502    0  0.00000000000E+00  0.00000000000E+00  0.10739164136E+04  0.10739164136E+04  0.00000000000E+00 0. -1.
         -1   -1    0    0    0  501 -0.00000000000E+00 -0.00000000000E+00 -0.30822825754E+02  0.30822825754E+02  0.00000000000E+00 0.  1.
         25    1    1    2    0    0 -0.48650379077E+02 -0.42002786589E+02  0.23942943469E+03  0.27763743923E+03  0.12500000000E+03 0.  0.
          2    1    1    2  502    0 -0.18612278971E+02  0.19846475924E+02  0.70568297232E+03  0.70620730452E+03  0.00000000000E+00 0. -1.
         -2    1    1    2    0  501  0.67262658048E+02  0.22156310665E+02  0.97981180846E+02  0.12089449561E+03  0.00000000000E+00 0.  1.
<mgrwt>
<rscale>  0 0.42951999E+02</rscale>
<asrwt>0</asrwt>
<pdfrwt beam="1">  1        1 0.16521788E+00 0.27208446E+02</pdfrwt>
<pdfrwt beam="2">  1       -1 0.47419740E-02 0.67805203E+02</pdfrwt>
<totfact> 0.27879745E+03</totfact>
</mgrwt>
</event>
<event>
 5    1  0.9399923E-003  0.9659853E+02  0.7546771E-02  0.1422305E+00
          2   -1    0    0  502    0  0.00000000000E+00  0.00000000000E+00  0.18243522455E+04  0.18243522455E+04  0.00000000000E+00 0. -1.
          1   -1    0    0  501    0 -0.00000000000E+00 -0.00000000000E+00 -0.26107559812E+02  0.26107559812E+02  0.00000000000E+00 0. -1.
         25    1    1    2    0    0 -0.43412374089E+01  0.10727950696E+03  0.56258633282E+03  0.58622190409E+03  0.12500000000E+03 0.  0.
          2    1    1    2  501    0  0.27127510298E+02 -0.14562979013E+02  0.66152335963E+01  0.31491959104E+02  0.00000000000E+00 0. -1.
          1    1    1    2  502    0 -0.22786272889E+02 -0.92716527948E+02  0.12290431192E+04  0.12327459421E+04  0.00000000000E+00 0. -1.
<mgrwt>
<rscale>  0 0.54536252E+02</rscale>
<asrwt>0</asrwt>
<pdfrwt beam="1">  1        2 0.28066948E+00 0.96598526E+02</pdfrwt>
<pdfrwt beam="2">  1        1 0.40165491E-02 0.30789319E+02</pdfrwt>
<totfact> 0.24731735E+03</totfact>
</mgrwt>
</event>
<event>
 5    1  0.9399923E-003  0.1367812E+03  0.7546771E-02  0.1280526E+00
         -1   -1    0    0    0  501 -0.00000000000E+00  0.00000000000E+00  0.10375070585E+04  0.10375070585E+04  0.00000000000E+00 0.  1.
          1   -1    0    0  502    0  0.00000000000E+00 -0.00000000000E+00 -0.14029701709E+04  0.14029701709E+04  0.00000000000E+00 0. -1.
         25    1    1    2    0    0  0.10118392684E+03 -0.15078105132E+03 -0.19408400955E+02  0.22130250454E+03  0.12500000000E+03 0.  0.
          2    1    1    2  502    0 -0.30673035102E+02  0.13207567443E+03 -0.12776012644E+04  0.12847761710E+04  0.00000000000E+00 0. -1.
         -2    1    1    2    0  501 -0.70510891734E+02  0.18705376888E+02  0.93154655302E+03  0.93439855384E+03  0.00000000000E+00 0.  1.
<mgrwt>
<rscale>  0 0.99890770E+02</rscale>
<asrwt>0</asrwt>
<pdfrwt beam="2">  1        1 0.21584156E+00 0.13678122E+03</pdfrwt>
<pdfrwt beam="1">  1       -1 0.15961647E+00 0.72949825E+02</pdfrwt>
<totfact> 0.31498020E+00</totfact>
</mgrwt>
</event>
<event>
 5    1  0.9399923E-003  0.1089575E+03  0.7546771E-02  0.1303784E+00
          2   -1    0    0  502    0  0.00000000000E+00  0.00000000000E+00  0.47507269732E+03  0.47507269732E+03  0.00000000000E+00 0. -1.
          1   -1    0    0  501    0 -0.00000000000E+00 -0.00000000000E+00 -0.18862856176E+04  0.18862856176E+04  0.00000000000E+00 0. -1.
         25    1    1    2    0    0 -0.36064474175E+01 -0.66733715746E+02 -0.80826439525E+03  0.82059900555E+03  0.12500000000E+03 0.  0.
          2    1    1    2  501    0  0.10802855532E+02  0.14008943291E+03 -0.10643113703E+04  0.10735457344E+04  0.00000000000E+00 0. -1.
          1    1    1    2  502    0 -0.71964081150E+01 -0.73355717169E+02  0.46136284532E+03  0.46721357491E+03  0.00000000000E+00 0. -1.
<mgrwt>
<rscale>  0 0.89615979E+02</rscale>
<asrwt>0</asrwt>
<pdfrwt beam="1">  1        2 0.73088106E-01 0.73707866E+02</pdfrwt>
<pdfrwt beam="2">  1        1 0.29019779E+00 0.10895749E+03</pdfrwt>
<totfact> 0.40662093E+01</totfact>
</mgrwt>
</event>
<event>
 5    1  0.9399923E-003  0.5387325E+02  0.7546771E-02  0.1542915E+00
         -2   -1    0    0    0  501 -0.00000000000E+00  0.00000000000E+00  0.13876556620E+02  0.13876556620E+02  0.00000000000E+00 0.  1.
          2   -1    0    0  502    0  0.00000000000E+00 -0.00000000000E+00 -0.10565959013E+04  0.10565959013E+04  0.00000000000E+00 0. -1.
         25    1    1    2    0    0  0.38258712387E+02 -0.10575450589E+02 -0.75332852237E+03  0.76465968368E+03  0.12500000000E+03 0.  0.
          1    1    1    2  502    0 -0.60882259762E+02  0.17255480299E+02 -0.26259979431E+03  0.27011673981E+03  0.00000000000E+00 0. -1.
         -1    1    1    2    0  501  0.22623547375E+02 -0.66800297099E+01 -0.26791027996E+02  0.35696034427E+02  0.00000000000E+00 0.  1.
<mgrwt>
<rscale>  0 0.35648615E+02</rscale>
<asrwt>0</asrwt>
<pdfrwt beam="2">  1        2 0.16255325E+00 0.53873246E+02</pdfrwt>
<pdfrwt beam="1">  1       -2 0.21348545E-02 0.23589144E+02</pdfrwt>
<totfact> 0.13192319E+04</totfact>
</mgrwt>
</event>
<event>
 5    1  0.9399923E-003  0.1119949E+03  0.7546771E-02  0.1381024E+00
          2   -1    0    0  502    0  0.00000000000E+00  0.00000000000E+00  0.14903408519E+04  0.14903408519E+04  0.00000000000E+00 0. -1.
         -2   -1    0    0    0  501 -0.00000000000E+00 -0.00000000000E+00 -0.26443423149E+02  0.26443423149E+02  0.00000000000E+00 0.  1.
         25    1    1    2    0    0  0.71974876151E+02  0.95509276716E+02  0.37379478270E+03  0.41188583893E+03  0.12500000000E+03 0.  0.
          1    1    1    2  502    0 -0.36438657011E+02  0.51200387050E+01  0.68458538935E+03  0.68557358893E+03  0.00000000000E+00 0. -1.
         -1    1    1    2    0  501 -0.35536219140E+02 -0.10062931542E+03  0.40551725671E+03  0.41932484720E+03  0.00000000000E+00 0.  1.
<mgrwt>
<rscale>  0 0.64195281E+02</rscale>
<asrwt>0</asrwt>
<pdfrwt beam="1">  1        2 0.22928314E+00 0.36796610E+02</pdfrwt>
<pdfrwt beam="2">  1       -2 0.40682201E-02 0.11199494E+03</pdfrwt>
<totfact> 0.40134875E+03</totfact>
</mgrwt>
</event>
<event>
 5    1  0.9399923E-003  0.7247355E+02  0.7546771E-02  0.1440888E+00
          2   -1    0    0  502    0  0.00000000000E+00  0.00000000000E+00  0.91965657549E+03  0.91965657549E+03  0.00000000000E+00 0. -1.
          1   -1    0    0  501    0 -0.00000000000E+00 -0.00000000000E+00 -0.95954574419E+03  0.95954574419E+03  0.00000000000E+00 0. -1.
         25    1    1    2    0    0 -0.41577770117E+02  0.93486711462E+02 -0.95644911104E+02  0.18772699648E+03  0.12500000000E+03 0.  0.
          2    1    1    2  501    0  0.14752800825E+02 -0.69994871720E+02 -0.81593047311E+03  0.81906011022E+03  0.00000000000E+00 0. -1.
          1    1    1    2  502    0  0.26824969291E+02 -0.23491839743E+02  0.87168621551E+03  0.87241521297E+03  0.00000000000E+00 0. -1.
<mgrwt>
<rscale>  0 0.50835161E+02</rscale>
<asrwt>0</asrwt>
<pdfrwt beam="1">  1        2 0.14148563E+00 0.35657335E+02</pdfrwt>
<pdfrwt beam="2">  1        1 0.14762242E+00 0.72473548E+02</pdfrwt>
<totfact> 0.82697138E+01</totfact>
</mgrwt>
</event>
<event>
 5    1  0.9399923E-003  0.6368786E+02  0.7546771E-02  0.1438046E+00
          1   -1    0    0  502    0  0.00000000000E+00  0.00000000000E+00  0.50902003335E+03  0.50902003335E+03  0.00000000000E+00 0. -1.
         -1   -1    0    0    0  501 -0.00000000000E+00 -0.00000000000E+00 -0.27045908806E+03  0.27045908806E+03  0.00000000000E+00 0.  1.
         25    1    1    2    0    0  0.57553541476E+02  0.86090147611E+02  0.14715492424E+02  0.16298916949E+03  0.12500000000E+03 0.  0.
          2    1    1    2  502    0 -0.31251963824E+02 -0.54056507636E+02  0.41562169586E+03  0.42028583766E+03  0.00000000000E+00 0. -1.
         -2    1    1    2    0  501 -0.26301577652E+02 -0.32033639975E+02 -0.19177624300E+03  0.19620411427E+03  0.00000000000E+00 0.  1.
<mgrwt>
<rscale>  0 0.51378273E+02</rscale>
<asrwt>0</asrwt>
<pdfrwt beam="1">  1        1 0.78310774E-01 0.63687859E+02</pdfrwt>
<pdfrwt beam="2">  1       -1 0.41609091E-01 0.41447884E+02</pdfrwt>
<totfact> 0.26358244E+02</totfact>
</mgrwt>
</event>
<event>
 5    1  0.9399923E-003  0.7211455E+02  0.7546771E-02  0.1450827E+00
          1   -1    0    0  502    0  0.00000000000E+00  0.00000000000E+00  0.48818265044E+03  0.48818265044E+03  0.00000000000E+00 0. -1.
         -1   -1    0    0    0  501 -0.00000000000E+00 -0.00000000000E+00 -0.44400635683E+03  0.44400635683E+03  0.00000000000E+00 0.  1.
         25    1    1    2    0    0 -0.43715015368E+02  0.13888169933E+02  0.37663601584E+03  0.39947912619E+03  0.12500000000E+03 0.  0.
          2    1    1    2  502    0 -0.13443389826E+02  0.30455342269E+02  0.94226528451E+02  0.99934434840E+02  0.00000000000E+00 0. -1.
         -2    1    1    2    0  501  0.57158405194E+02 -0.44343512203E+02 -0.42668625067E+03  0.43277544624E+03  0.00000000000E+00 0.  1.
<mgrwt>
<rscale>  0 0.48997185E+02</rscale>
<asrwt>0</asrwt>
<pdfrwt beam="1">  1        1 0.75105023E-01 0.33290428E+02</pdfrwt>
<pdfrwt beam="2">  1       -1 0.68308670E-01 0.72114546E+02</pdfrwt>
<totfact> 0.11457755E+02</totfact>
</mgrwt>
</event>
<event>
 5    1  0.9399923E-003  0.7838193E+02  0.7546771E-02  0.1387621E+00
         -1   -1    0    0    0  502 -0.00000000000E+00  0.00000000000E+00  0.31786393308E+03  0.31786393308E+03  0.00000000000E+00 0.  1.
         -2   -1    0    0    0  501  0.00000000000E+00 -0.00000000000E+00 -0.64547378338E+03  0.64547378338E+03  0.00000000000E+00 0.  1.
         25    1    1    2    0    0  0.68905147079E+00  0.50981487190E+02 -0.15566771887E+03  0.20605102651E+03  0.12500000000E+03 0.  0.
         -2    1    1    2    0  502  0.47478946398E+02 -0.63782017441E+02  0.28589424153E+03  0.29674553651E+03  0.00000000000E+00 0.  1.
         -1    1    1    2    0  501 -0.48167997869E+02  0.12800530251E+02 -0.45783637297E+03  0.46054115343E+03  0.00000000000E+00 0.  1.
<mgrwt>
<rscale>  0 0.62502341E+02</rscale>
<asrwt>0</asrwt>
<pdfrwt beam="2">  1       -2 0.99303657E-01 0.49839839E+02</pdfrwt>
<pdfrwt beam="1">  1       -1 0.48902144E-01 0.78381927E+02</pdfrwt>
<totfact> 0.29513502E+01</totfact>
</mgrwt>
</event>
<event>
 5    1  0.9399923E-003  0.6089883E+02  0.7546771E-02  0.1407754E+00
          2   -1    0    0  502    0  0.00000000000E+00  0.00000000000E+00  0.45592829290E+02  0.45592829290E+02  0.00000000000E+00 0. -1.
          1   -1    0    0  501    0 -0.00000000000E+00 -0.00000000000E+00 -0.61721640426E+03  0.61721640426E+03  0.00000000000E+00 0. -1.
         25    1    1    2    0    0  0.23382995666E+02 -0.21878753554E+02 -0.11546937906E+03  0.17315779464E+03  0.12500000000E+03 0.  0.
          2    1    1    2  501    0  0.39520704768E+02 -0.37768314974E+02 -0.34185291499E+03  0.34619611091E+03  0.00000000000E+00 0. -1.
          1    1    1    2  502    0 -0.62903700434E+02  0.59647068528E+02 -0.11430128091E+03  0.14345532799E+03  0.00000000000E+00 0. -1.
<mgrwt>
<rscale>  0 0.57698122E+02</rscale>
<asrwt>0</asrwt>
<pdfrwt beam="1">  1        2 0.70142821E-02 0.60898831E+02</pdfrwt>
<pdfrwt beam="2">  1        1 0.94956361E-01 0.54665636E+02</pdfrwt>
<totfact> 0.43634203E+03</totfact>
</mgrwt>
</event>
<event>
 5    1  0.9399923E-003  0.7148433E+02  0.7546771E-02  0.1457839E+00
          2   -1    0    0  502    0  0.00000000000E+00  0.00000000000E+00  0.56356166471E+03  0.56356166471E+03  0.00000000000E+00 0. -1.
          1   -1    0    0  501    0 -0.00000000000E+00 -0.00000000000E+00 -0.35756510728E+02  0.35756510728E+02  0.00000000000E+00 0. -1.
         25    1    1    2    0    0 -0.15524058188E+02 -0.44474991800E+02  0.23625068439E+03  0.27140082379E+03  0.12500000000E+03 0.  0.
          2    1    1    2  501    0 -0.80369347529E+01 -0.30874227745E+02  0.70637753931E+01  0.32675788925E+02  0.00000000000E+00 0. -1.
          1    1    1    2  502    0  0.23560992941E+02  0.75349219545E+02  0.28449069421E+03  0.29524156273E+03  0.00000000000E+00 0. -1.
<mgrwt>
<rscale>  0 0.47755362E+02</rscale>
<asrwt>0</asrwt>
<pdfrwt beam="1">  1        2 0.86701788E-01 0.71484334E+02</pdfrwt>
<pdfrwt beam="2">  1        1 0.55010021E-02 0.31903139E+02</pdfrwt>
<totfact> 0.90251839E+03</totfact>
</mgrwt>
</event>
<event>
 5    1  0.9399923E-003  0.3307114E+03  0.7546771E-02  0.1137315E+00
          2   -1    0    0  502    0  0.00000000000E+00  0.00000000000E+00  0.16960788174E+04  0.16960788174E+04  0.00000000000E+00 0. -1.
          1   -1    0    0  501    0 -0.00000000000E+00 -0.00000000000E+00 -0.14245155577E+04  0.14245155577E+04  0.00000000000E+00 0. -1.
         25    1    1    2    0    0  0.41871870292E+03  0.19312786235E+03  0.85786050716E+01  0.47783084439E+03  0.12500000000E+03 0.  0.
          2    1    1    2  501    0 -0.12553931586E+03 -0.62801176364E+02 -0.11679223776E+04  0.11763276702E+04  0.00000000000E+00 0. -1.
          1    1    1    2  502    0 -0.29317938706E+03 -0.13032668598E+03  0.14309070323E+04  0.14664358605E+04  0.00000000000E+00 0. -1.
<mgrwt>
<rscale>  0 0.21545858E+03</rscale>
<asrwt>0</asrwt>
<pdfrwt beam="1">  1        2 0.26093520E+00 0.33071143E+03</pdfrwt>
<pdfrwt beam="2">  1        1 0.21915624E+00 0.14037132E+03</pdfrwt>
<totfact> 0.12403216E+01</totfact>
</mgrwt>
</event>
<event>
 5    1  0.9399923E-003  0.1578474E+03  0.7546771E-02  0.1274077E+00
          1   -1    0    0  501    0 -0.00000000000E+00  0.00000000000E+00  0.28979833676E+03  0.28979833676E+03  0.00000000000E+00 0. -1.
          2   -1    0    0  502    0  0.00000000000E+00 -0.00000000000E+00 -0.28109272331E+04  0.28109272331E+04  0.00000000000E+00 0. -1.
         25    1    1    2    0    0 -0.16016390465E+03 -0.13923347990E+03 -0.10866198383E+04  0.11141840563E+04  0.12500000000E+03 0.  0.
          2    1    1    2  501    0  0.55461802900E+02  0.38001973118E+02  0.26876800311E+03  0.27704945594E+03  0.00000000000E+00 0. -1.
          1    1    1    2  502    0  0.10470210175E+03  0.10123150678E+03 -0.17032770612E+04  0.17094920577E+04  0.00000000000E+00 0. -1.
<mgrwt>
<rscale>  0 0.10301660E+03</rscale>
<asrwt>0</asrwt>
<pdfrwt beam="2">  1        2 0.43245033E+00 0.15784741E+03</pdfrwt>
<pdfrwt beam="1">  1        1 0.44584361E-01 0.67232147E+02</pdfrwt>
<totfact> 0.36280092E+01</totfact>
</mgrwt>
</event>
<event>
 5    1  0.9399923E-003  0.4187410E+02  0.7546771E-02  0.1512103E+00
          2   -1    0    0  502    0  0.00000000000E+00  0.00000000000E+00  0.11049896023E+04  0.11049896023E+04  0.00000000000E+00 0. -1.
          1   -1    0    0  501    0 -0.00000000000E+00 -0.00000000000E+00 -0.61973380829E+03  0.61973380829E+03  0.00000000000E+00 0. -1.
         25    1    1    2    0    0  0.23804148160E+02  0.33647952335E+02  0.15240412011E+03  0.20137238637E+03  0.12500000000E+03 0.  0.
          2    1    1    2  501    0  0.12878967500E+02 -0.39919498746E+02 -0.59413689695E+03  0.59561572050E+03  0.00000000000E+00 0. -1.
          1    1    1    2  502    0 -0.36683115659E+02  0.62715464106E+01  0.92698857085E+03  0.92773530371E+03  0.00000000000E+00 0. -1.
<mgrwt>
<rscale>  0 0.39476069E+02</rscale>
<asrwt>0</asrwt>
<pdfrwt beam="1">  1        2 0.16999840E+00 0.37215363E+02</pdfrwt>
<pdfrwt beam="2">  1        1 0.95343663E-01 0.41874104E+02</pdfrwt>
<totfact> 0.12525653E+02</totfact>
</mgrwt>
</event>
<event>
 5    1  0.9399923E-003  0.3123157E+02  0.7546771E-02  0.1649725E+00
         -1   -1    0    0    0  501 -0.00000000000E+00  0.00000000000E+00  0.36976312045E+02  0.36976312045E+02  0.00000000000E+00 0.  1.
          1   -1    0    0  502    0  0.00000000000E+00 -0.00000000000E+00 -0.38155085978E+03  0.38155085978E+03  0.00000000000E+00 0. -1.
         25    1    1    2    0    0  0.31541881476E+02  0.65326108384E+01 -0.33094808720E+03  0.35523119474E+03  0.12500000000E+03 0.  0.
          2    1    1    2  502    0 -0.36292263795E+01 -0.21007323033E+02 -0.22125668645E+02  0.30724975478E+02  0.00000000000E+00 0. -1.
         -2    1    1    2    0  501 -0.27912655097E+02  0.14474712195E+02  0.84992081083E+01  0.32571001614E+02  0.00000000000E+00 0.  1.
<mgrwt>
<rscale>  0 0.25803305E+02</rscale>
<asrwt>0</asrwt>
<pdfrwt beam="2">  1        1 0.58700129E-01 0.21318511E+02</pdfrwt>
<pdfrwt beam="1">  1       -1 0.56886638E-02 0.31231568E+02</pdfrwt>
<totfact> 0.77571761E+03</totfact>
</mgrwt>
</event>
<event>
 5    1  0.9399923E-003  0.3580966E+02  0.7546771E-02  0.1547641E+00
          2   -1    0    0  502    0  0.00000000000E+00  0.00000000000E+00  0.19440763102E+04  0.19440763102E+04  0.00000000000E+00 0. -1.
          1   -1    0    0  501    0 -0.00000000000E+00 -0.00000000000E+00 -0.22540022172E+02  0.22540022172E+02  0.00000000000E+00 0. -1.
         25    1    1    2    0    0 -0.97523430186E+01 -0.21193511066E+01  0.10001750731E+04  0.10080053456E+04  0.12500000000E+03 0.  0.
          2    1    1    2  501    0  0.19018972813E+02 -0.31030493110E+02 -0.21134656353E+00  0.36395844500E+02  0.00000000000E+00 0. -1.
          1    1    1    2  502    0 -0.92666297945E+01  0.33149844217E+02  0.92157256155E+03  0.92221514236E+03  0.00000000000E+00 0. -1.
<mgrwt>
<rscale>  0 0.35108296E+02</rscale>
<asrwt>0</asrwt>
<pdfrwt beam="1">  1        2 0.29908853E+00 0.34420671E+02</pdfrwt>
<pdfrwt beam="2">  1        1 0.34676972E-02 0.35809657E+02</pdfrwt>
<totfact> 0.29963334E+03</totfact>
</mgrwt>
</event>
<event>
 5    1  0.9399923E-003  0.8438212E+02  0.7546771E-02  0.1431526E+00
          2   -1    0    0  502    0  0.00000000000E+00  0.00000000000E+00  0.41105259740E+03  0.41105259740E+03  0.00000000000E+00 0. -1.
         -2   -1    0    0    0  501 -0.00000000000E+00 -0.00000000000E+00 -0.25726875083E+03  0.25726875083E+03  0.00000000000E+00 0.  1.
         25    1    1    2    0    0  0.33633153250E+02 -0.10841244727E+03  0.48033357971E+02  0.17554672084E+03  0.12500000000E+03 0.  0.
          1    1    1    2  502    0 -0.17030447789E+02  0.80058686433E+02  0.29220247797E+03  0.30344969527E+03  0.00000000000E+00 0. -1.
         -1    1    1    2    0  501 -0.16602705461E+02  0.28353760839E+02 -0.18645198937E+03  0.18932493212E+03  0.00000000000E+00 0.  1.
<mgrwt>
<rscale>  0 0.52654984E+02</rscale>
<asrwt>0</asrwt>
<pdfrwt beam="1">  1        2 0.63238861E-01 0.84382120E+02</pdfrwt>
<pdfrwt beam="2">  1       -2 0.39579808E-01 0.32857048E+02</pdfrwt>
<totfact> 0.46575462E+02</totfact>
</mgrwt>
</event>
<event>
 5    1  0.9399923E-003  0.5291579E+02  0.7546771E-02  0.1497525E+00
          2   -1    0    0  502    0  0.00000000000E+00  0.00000000000E+00  0.29519058842E+03  0.29519058842E+03  0.00000000000E+00 0. -1.
         -2   -1    0    0    0  501 -0.00000000000E+00 -0.00000000000E+00 -0.18841052783E+03  0.18841052783E+03  0.00000000000E+00 0.  1.
         25    1    1    2    0    0 -0.39700421781E+02  0.57008319687E+02 -0.42558270683E+02  0.14920549054E+03  0.12500000000E+03 0.  0.
          1    1    1    2  502    0  0.31953463016E+02 -0.61041536178E+01  0.23348759796E+03  0.23574295937E+03  0.00000000000E+00 0. -1.
         -1    1    1    2    0  501  0.77469587646E+01 -0.50904166069E+02 -0.84149266685E+02  0.98652666345E+02  0.00000000000E+00 0.  1.
<mgrwt>
<rscale>  0 0.41489984E+02</rscale>
<asrwt>0</asrwt>
<pdfrwt beam="1">  1        2 0.45413936E-01 0.32531285E+02</pdfrwt>
<pdfrwt beam="2">  1       -2 0.28986235E-01 0.52915793E+02</pdfrwt>
<totfact> 0.11505035E+03</totfact>
</mgrwt>
</event>
<event>
 5    1  0.9399923E-003  0.5786412E+02  0.7546771E-02  0.1470051E+00
         -2   -1    0    0    0  501 -0.00000000000E+00  0.00000000000E+00  0.32332063829E+02  0.32332063829E+02  0.00000000000E+00 0.  1.
          2   -1    0    0  502    0  0.00000000000E+00 -0.00000000000E+00 -0.22535549392E+04  0.22535549392E+04  0.00000000000E+00 0. -1.
         25    1    1    2    0    0  0.73143737413E+02  0.46577581102E+02 -0.27120637739E+03  0.31096201781E+03  0.12500000000E+03 0.  0.
          1    1    1    2  502    0 -0.34264763196E+02 -0.11314549260E+02 -0.19062276526E+04  0.19065691587E+04  0.00000000000E+00 0. -1.
         -1    1    1    2    0  501 -0.38878974217E+02 -0.35263031842E+02 -0.43788845366E+02  0.68355826594E+02  0.00000000000E+00 0.  1.
<mgrwt>
<rscale>  0 0.45694633E+02</rscale>
<asrwt>0</asrwt>
<pdfrwt beam="2">  1        2 0.34670082E+00 0.36084526E+02</pdfrwt>
<pdfrwt beam="1">  1       -2 0.49741628E-02 0.57864125E+02</pdfrwt>
<totfact> 0.11994472E+03</totfact>
</mgrwt>
</event>
<event>
 5    1  0.9399923E-003  0.9628097E+02  0.7546771E-02  0.1377721E+00
         -2   -1    0    0    0  501 -0.00000000000E+00  0.00000000000E+00  0.46649605879E+03  0.46649605879E+03  0.00000000000E+00 0.  1.
          2   -1    0    0  502    0  0.00000000000E+00 -0.00000000000E+00 -0.75348234441E+03  0.75348234441E+03  0.00000000000E+00 0. -1.
         25    1    1    2    0    0 -0.56042648264E+02 -0.58374715917E+02  0.19930470376E+03  0.24878856651E+03  0.12500000000E+03 0.  0.
          1    1    1    2  502    0  0.17968791864E+02 -0.40132885346E+02 -0.71653366229E+03  0.71788161640E+03  0.00000000000E+00 0. -1.
         -1    1    1    2    0  501  0.38073856399E+02  0.98507601262E+02  0.23024267290E+03  0.25330822030E+03  0.00000000000E+00 0.  1.
<mgrwt>
<rscale>  0 0.65066542E+02</rscale>
<asrwt>0</asrwt>
<pdfrwt beam="2">  1        2 0.11592036E+00 0.43971877E+02</pdfrwt>
<pdfrwt beam="1">  1       -2 0.71768625E-01 0.96280969E+02</pdfrwt>
<totfact> 0.75814999E+01</totfact>
</mgrwt>
</event>
<event>
 5    1  0.9399923E-003  0.5302420E+02  0.7546771E-02  0.1517226E+00
          1   -1    0    0  501    0 -0.00000000000E+00  0.00000000000E+00  0.24458456323E+03  0.24458456323E+03  0.00000000000E+00 0. -1.
          2   -1    0    0  502    0  0.00000000000E+00 -0.00000000000E+00 -0.84423447455E+03  0.84423447455E+03  0.00000000000E+00 0. -1.
         25    1    1    2    0    0  0.26338794205E+02 -0.47870620185E+01 -0.23637942142E+03  0.26873198342E+03  0.12500000000E+03 0.  0.
          2    1    1    2  501    0  0.28267893613E+02 -0.26604654424E+01  0.22623563934E+03  0.22801034274E+03  0.00000000000E+00 0. -1.
          1    1    1    2  502    0 -0.54606687818E+02  0.74475274608E+01 -0.58950612924E+03  0.59207671161E+03  0.00000000000E+00 0. -1.
<mgrwt>
<rscale>  0 0.38800853E+02</rscale>
<asrwt>0</asrwt>
<pdfrwt beam="2">  1        2 0.12988223E+00 0.53024197E+02</pdfrwt>
<pdfrwt beam="1">  1        1 0.37628395E-01 0.28392814E+02</pdfrwt>
<totfact> 0.53388976E+02</totfact>
</mgrwt>
</event>
<event>
 5    1  0.9399923E-003  0.9075612E+02  0.7546771E-02  0.1319272E+00
          1   -1    0    0  502    0  0.00000000000E+00  0.00000000000E+00  0.26822791710E+04  0.26822791710E+04  0.00000000000E+00 0. -1.
         -1   -1    0    0    0  501 -0.00000000000E+00 -0.00000000000E+00 -0.20127682809E+03  0.20127682809E+03  0.00000000000E+00 0.  1.
         25    1    1    2    0    0  0.45861657945E+02  0.11700975748E+03 -0.60573933024E+02  0.18731998392E+03  0.12500000000E+03 0.  0.
          2    1    1    2  502    0 -0.68015330987E+02 -0.35911739072E+02  0.25953177280E+04  0.25964571723E+04  0.00000000000E+00 0. -1.
         -2    1    1    2    0  501  0.22153673042E+02 -0.81098018411E+02 -0.53741452055E+02  0.99778842889E+02  0.00000000000E+00 0.  1.
<mgrwt>
<rscale>  0 0.83548797E+02</rscale>
<asrwt>0</asrwt>
<pdfrwt beam="1">  1        1 0.41265831E+00 0.76913837E+02</pdfrwt>
<pdfrwt beam="2">  1       -1 0.30965668E-01 0.90756121E+02</pdfrwt>
<totfact> 0.13956501E+01</totfact>
</mgrwt>
</event>
<event>
 5    1  0.9399923E-003  0.2950145E+02  0.7546771E-02  0.1625300E+00
          1   -1    0    0  501    0 -0.00000000000E+00  0.00000000000E+00  0.12567855392E+04  0.12567855392E+04  0.00000000000E+00 0. -1.
          2   -1    0    0  502    0  0.00000000000E+00 -0.00000000000E+00 -0.14382379300E+02  0.14382379300E+02  0.00000000000E+00 0. -1.
         25    1    1    2    0    0  0.56045360429E+00 -0.19748433533E+02  0.34290227430E+03  0.36550962293E+03  0.12500000000E+03 0.  0.
          2    1    1    2  501    0  0.25914288590E+02 -0.15886094248E+01  0.80160527823E+03  0.80202562061E+03  0.00000000000E+00 0. -1.
          3    1    1    2  502    0 -0.26474742194E+02  0.21337042958E+02  0.97895607382E+02  0.10363267497E+03  0.00000000000E+00 0. -1.
<mgrwt>
<rscale>  0 0.27675698E+02</rscale>
<asrwt>0</asrwt>
<pdfrwt beam="2">  1        2 0.22126747E-02 0.29501450E+02</pdfrwt>
<pdfrwt beam="1">  1        1 0.19335154E+00 0.25962936E+02</pdfrwt>
<totfact> 0.61701028E+03</totfact>
</mgrwt>
</event>
<event>
 5    1  0.9399923E-003  0.9860676E+02  0.7546771E-02  0.1347073E+00
          2   -1    0    0  502    0  0.00000000000E+00  0.00000000000E+00  0.78495984258E+03  0.78495984258E+03  0.00000000000E+00 0. -1.
         -2   -1    0    0    0  501 -0.00000000000E+00 -0.00000000000E+00 -0.12632258635E+03  0.12632258635E+03  0.00000000000E+00 0.  1.
         25    1    1    2    0    0  0.70807122479E+02 -0.21474590409E+02  0.36989123142E+02  0.14989330158E+03  0.12500000000E+03 0.  0.
          1    1    1    2  502    0 -0.65647873503E+02  0.76731231461E+02  0.67612388585E+03  0.68362331308E+03  0.00000000000E+00 0. -1.
         -1    1    1    2    0  501 -0.51592489753E+01 -0.55256641052E+02 -0.54475752759E+02  0.77765814270E+02  0.00000000000E+00 0.  1.
<mgrwt>
<rscale>  0 0.73975516E+02</rscale>
<asrwt>0</asrwt>
<pdfrwt beam="1">  1        2 0.12076305E+00 0.98606762E+02</pdfrwt>
<pdfrwt beam="2">  1       -2 0.19434244E-01 0.55496975E+02</pdfrwt>
<totfact> 0.78730492E+02</totfact>
</mgrwt>
</event>
<event>
 5    1  0.9399923E-003  0.7300460E+02  0.7546771E-02  0.1416207E+00
          2   -1    0    0  502    0  0.00000000000E+00  0.00000000000E+00  0.82084570548E+03  0.82084570548E+03  0.00000000000E+00 0. -1.
          1   -1    0    0  501    0 -0.00000000000E+00 -0.00000000000E+00 -0.14557011957E+04  0.14557011957E+04  0.00000000000E+00 0. -1.
         25    1    1    2    0    0  0.52189769085E+01 -0.11521042505E+03  0.12060276215E+03  0.20849629732E+03  0.12500000000E+03 0.  0.
          2    1    1    2  501    0 -0.61516861046E+00  0.72761159558E+02 -0.14101209071E+04  0.14119970033E+04  0.00000000000E+00 0. -1.
          1    1    1    2  502    0 -0.46038082980E+01  0.42449265494E+02  0.65466265476E+03  0.65605360050E+03  0.00000000000E+00 0. -1.
<mgrwt>
<rscale>  0 0.55831567E+02</rscale>
<asrwt>0</asrwt>
<pdfrwt beam="1">  1        2 0.12628395E+00 0.42698187E+02</pdfrwt>
<pdfrwt beam="2">  1        1 0.22395403E+00 0.73004595E+02</pdfrwt>
<totfact> 0.43741596E+01</totfact>
</mgrwt>
</event>
<event>
 5    1  0.9399923E-003  0.5689828E+02  0.7546771E-02  0.1413702E+00
         -2   -1    0    0    0  501 -0.00000000000E+00  0.00000000000E+00  0.15536856042E+02  0.15536856042E+02  0.00000000000E+00 0.  1.
          2   -1    0    0  502    0  0.00000000000E+00 -0.00000000000E+00 -0.20906458674E+04  0.20906458674E+04  0.00000000000E+00 0. -1.
         25    1    1    2    0    0 -0.26227807064E+02  0.56108388987E+02 -0.71093564963E+03  0.72449330369E+03  0.12500000000E+03 0.  0.
          1    1    1    2  502    0 -0.32466753593E+02 -0.45453840800E+02 -0.12630313311E+04  0.12642659076E+04  0.00000000000E+00 0. -1.
         -1    1    1    2    0  501  0.58694560657E+02 -0.10654548187E+02 -0.10114203054E+03  0.11742351208E+03  0.00000000000E+00 0.  1.
<mgrwt>
<rscale>  0 0.56375854E+02</rscale>
<asrwt>0</asrwt>
<pdfrwt beam="2">  1        2 0.32163790E+00 0.55858229E+02</pdfrwt>
<pdfrwt beam="1">  1       -2 0.23902850E-02 0.56898276E+02</pdfrwt>
<totfact> 0.39116767E+03</totfact>
</mgrwt>
</event>
<event>
 5    1  0.9399923E-003  0.1037871E+03  0.7546771E-02  0.1309842E+00
         -1   -1    0    0    0  502 -0.00000000000E+00  0.00000000000E+00  0.56392205593E+03  0.56392205593E+03  0.00000000000E+00 0.  1.
         -2   -1    0    0    0  501  0.00000000000E+00 -0.00000000000E+00 -0.65252624540E+02  0.65252624540E+02  0.00000000000E+00 0.  1.
         25    1    1    2    0    0 -0.43448609254E+02  0.14772911465E+03  0.20165910501E+03  0.28284813522E+03  0.12500000000E+03 0.  0.
         -2    1    1    2    0  502  0.55529126761E+02 -0.75511681120E+02  0.22448442646E+03  0.24326684038E+03  0.00000000000E+00 0.  1.
         -1    1    1    2    0  501 -0.12080517507E+02 -0.72217433534E+02  0.72525899917E+02  0.10305970487E+03  0.00000000000E+00 0.  1.
<mgrwt>
<rscale>  0 0.87174451E+02</rscale>
<asrwt>0</asrwt>
<pdfrwt beam="2">  1       -2 0.10038866E-01 0.73220876E+02</pdfrwt>
<pdfrwt beam="1">  1       -1 0.86757236E-01 0.10378714E+03</pdfrwt>
<totfact> 0.63991160E+02</totfact>
</mgrwt>
</event>
<event>
 5    1  0.9399923E-003  0.2950676E+02  0.7546771E-02  0.1660312E+00
          1   -1    0    0  501    0 -0.00000000000E+00  0.00000000000E+00  0.61181548005E+03  0.61181548005E+03  0.00000000000E+00 0. -1.
          2   -1    0    0  502    0  0.00000000000E+00 -0.00000000000E+00 -0.14357214275E+04  0.14357214275E+04  0.00000000000E+00 0. -1.
         25    1    1    2    0    0 -0.74103343660E+01  0.95005438754E+01  0.36606527476E+03  0.38700640663E+03  0.12500000000E+03 0.  0.
          2    1    1    2  501    0  0.71821683263E+01  0.20013432140E+02  0.23464606499E+03  0.23560750587E+03  0.00000000000E+00 0. -1.
          1    1    1    2  502    0  0.22816603974E+00 -0.29513976016E+02 -0.14246172872E+04  0.14249229950E+04  0.00000000000E+00 0. -1.
<mgrwt>
<rscale>  0 0.25048079E+02</rscale>
<asrwt>0</asrwt>
<pdfrwt beam="2">  1        2 0.22088022E+00 0.29506760E+02</pdfrwt>
<pdfrwt beam="1">  1        1 0.94125459E-01 0.21263137E+02</pdfrwt>
<totfact> 0.90225259E+01</totfact>
</mgrwt>
</event>
<event>
 5    1  0.9399923E-003  0.1208388E+03  0.7546771E-02  0.1320243E+00
          2   -1    0    0  502    0  0.00000000000E+00  0.00000000000E+00  0.97719595300E+03  0.97719595300E+03  0.00000000000E+00 0. -1.
          1   -1    0    0  501    0 -0.00000000000E+00 -0.00000000000E+00 -0.47568554213E+03  0.47568554213E+03  0.00000000000E+00 0. -1.
         25    1    1    2    0    0  0.11847729542E+02  0.76141638735E+02  0.45632933707E+02  0.15377022626E+03  0.12500000000E+03 0.  0.
          2    1    1    2  501    0 -0.56756103656E+02 -0.11167688493E+03 -0.41134639053E+03  0.42999864527E+03  0.00000000000E+00 0. -1.
          1    1    1    2  502    0  0.44908374114E+02  0.35535246198E+02  0.86722386770E+03  0.86911262359E+03  0.00000000000E+00 0. -1.
<mgrwt>
<rscale>  0 0.83187028E+02</rscale>
<asrwt>0</asrwt>
<pdfrwt beam="1">  1        2 0.15033784E+00 0.57267057E+02</pdfrwt>
<pdfrwt beam="2">  1        1 0.73182391E-01 0.12083879E+03</pdfrwt>
<totfact> 0.19695176E+02</totfact>
</mgrwt>
</event>
<event>
 5    1  0.9399923E-003  0.2118566E+03  0.7546771E-02  0.1252039E+00
          2   -1    0    0  502    0  0.00000000000E+00  0.00000000000E+00  0.34940163197E+04  0.34940163197E+04  0.00000000000E+00 0. -1.
          1   -1    0    0  501    0 -0.00000000000E+00 -0.00000000000E+00 -0.36156549201E+03  0.36156549201E+03  0.00000000000E+00 0. -1.
         25    1    1    2    0    0  0.19715030421E+03  0.88648989401E+02  0.63278312946E+03  0.68026933983E+03  0.12500000000E+03 0.  0.
          2    1    1    2  501    0 -0.36469895569E+02  0.50312632384E+02 -0.33095058923E+03  0.33673388123E+03  0.00000000000E+00 0. -1.
          1    1    1    2  502    0 -0.16068040864E+03 -0.13896162179E+03  0.28306182874E+04  0.28385785906E+04  0.00000000000E+00 0. -1.
<mgrwt>
<rscale>  0 0.11473808E+03</rscale>
<asrwt>0</asrwt>
<pdfrwt beam="1">  1        2 0.53754095E+00 0.21185659E+03</pdfrwt>
<pdfrwt beam="2">  1        1 0.55625463E-01 0.62140279E+02</pdfrwt>
<totfact> 0.10237133E+01</totfact>
</mgrwt>
</event>
<event>
 5    1  0.9399923E-003  0.1058373E+03  0.7546771E-02  0.1394348E+00
          2   -1    0    0  502    0  0.00000000000E+00  0.00000000000E+00  0.17371251986E+04  0.17371251986E+04  0.00000000000E+00 0. -1.
          1   -1    0    0  501    0 -0.00000000000E+00 -0.00000000000E+00 -0.63401832435E+03  0.63401832435E+03  0.00000000000E+00 0. -1.
         25    1    1    2    0    0 -0.90363225841E+02  0.66264484531E+02  0.10647572741E+03  0.19879279419E+03  0.12500000000E+03 0.  0.
          2    1    1    2  501    0  0.61543289355E+02 -0.86073757628E+02 -0.58290322394E+03  0.59242926725E+03  0.00000000000E+00 0. -1.
          1    1    1    2  502    0  0.28819936486E+02  0.19809273097E+02  0.15795343708E+04  0.15799214616E+04  0.00000000000E+00 0. -1.
<mgrwt>
<rscale>  0 0.60838109E+02</rscale>
<asrwt>0</asrwt>
<pdfrwt beam="1">  1        2 0.26725003E+00 0.34971360E+02</pdfrwt>
<pdfrwt beam="2">  1        1 0.97541282E-01 0.10583733E+03</pdfrwt>
<totfact> 0.57444561E+01</totfact>
</mgrwt>
</event>
<event>
 5    1  0.9399923E-003  0.6441365E+02  0.7546771E-02  0.1488476E+00
          2   -1    0    0  502    0  0.00000000000E+00  0.00000000000E+00  0.93364357261E+03  0.93364357261E+03  0.00000000000E+00 0. -1.
          1   -1    0    0  501    0 -0.00000000000E+00 -0.00000000000E+00 -0.14371728640E+04  0.14371728640E+04  0.00000000000E+00 0. -1.
         25    1    1    2    0    0  0.79790157343E+02  0.46299528238E+02 -0.72785095896E+02  0.17155986042E+03  0.12500000000E+03 0.  0.
          2    1    1    2  501    0 -0.26275292057E+02 -0.10924677719E+02 -0.13136826343E+04  0.13139907926E+04  0.00000000000E+00 0. -1.
          1    1    1    2  502    0 -0.53514865287E+02 -0.35374850519E+02  0.88293843878E+03  0.88526578355E+03  0.00000000000E+00 0. -1.
<mgrwt>
<rscale>  0 0.42812965E+02</rscale>
<asrwt>0</asrwt>
<pdfrwt beam="1">  1        2 0.14363747E+00 0.64413653E+02</pdfrwt>
<pdfrwt beam="2">  1        1 0.22110352E+00 0.28455923E+02</pdfrwt>
<totfact> 0.41416652E+01</totfact>
</mgrwt>
</event>
<event>
 5    1  0.9399923E-003  0.1274634E+03  0.7546771E-02  0.1288226E+00
          1   -1    0    0  501    0 -0.00000000000E+00  0.00000000000E+00  0.49311911095E+03  0.49311911095E+03  0.00000000000E+00 0. -1.
          2   -1    0    0  502    0  0.00000000000E+00 -0.00000000000E+00 -0.56387385823E+03  0.56387385823E+03  0.00000000000E+00 0. -1.
         25    1    1    2    0    0 -0.64160539138E+02 -0.45656026632E+02  0.88540746839E+02  0.17223678876E+03  0.12500000000E+03 0.  0.
          2    1    1    2  501    0  0.91277016173E+02  0.11320575041E+03  0.34543899697E+03  0.37480012838E+03  0.00000000000E+00 0. -1.
          1    1    1    2  502    0 -0.27116477036E+02 -0.67549723780E+02 -0.50473449109E+03  0.50995605203E+03  0.00000000000E+00 0. -1.
<mgrwt>
<rscale>  0 0.96322155E+02</rscale>
<asrwt>0</asrwt>
<pdfrwt beam="2">  1        2 0.86749824E-01 0.72789206E+02</pdfrwt>
<pdfrwt beam="1">  1        1 0.75864479E-01 0.12746337E+03</pdfrwt>
<totfact> 0.35621058E+02</totfact>
</mgrwt>
</event>
<event>
 5    1  0.9399923E-003  0.7150939E+02  0.7546771E-02  0.1498638E+00
         -1   -1    0    0    0  502 -0.00000000000E+00  0.00000000000E+00  0.61107885515E+03  0.61107885515E+03  0.00000000000E+00 0.  1.
         -2   -1    0    0    0  501  0.00000000000E+00 -0.00000000000E+00 -0.29770915853E+02  0.29770915853E+02  0.00000000000E+00 0.  1.
         25    1    1    2    0    0 -0.41774021901E+02  0.32835912894E+02  0.17611620013E+03  0.22240769328E+03  0.12500000000E+03 0.  0.
         -2    1    1    2    0  502  0.50421776773E+02 -0.55104378256E+02  0.35607032929E+03  0.36381991078E+03  0.00000000000E+00 0.  1.
         -1    1    1    2    0  501 -0.86477548719E+01  0.22268465362E+02  0.49121409874E+02  0.54622166946E+02  0.00000000000E+00 0.  1.
<mgrwt>
<rscale>  0 0.41331148E+02</rscale>
<asrwt>0</asrwt>
<pdfrwt beam="2">  1       -2 0.45801413E-02 0.23888663E+02</pdfrwt>
<pdfrwt beam="1">  1       -1 0.94012123E-01 0.71509394E+02</pdfrwt>
<totfact> 0.15505897E+03</totfact>
</mgrwt>
</event>
<event>
 5    1  0.9399923E-003  0.3756417E+02  0.7546771E-02  0.1575405E+00
          1   -1    0    0  501    0 -0.00000000000E+00  0.00000000000E+00  0.67546734558E+03  0.67546734558E+03  0.00000000000E+00 0. -1.
          2   -1    0    0  502    0  0.00000000000E+00 -0.00000000000E+00 -0.29378115129E+03  0.29378115129E+03  0.00000000000E+00 0. -1.
         25    1    1    2    0    0  0.10226292194E+02 -0.42775863283E+02  0.28383755248E+03  0.31324608175E+03  0.12500000000E+03 0.  0.
          2    1    1    2  501    0 -0.26109634540E+02  0.87204932630E+01  0.37515402244E+03  0.37616259858E+03  0.00000000000E+00 0. -1.
          1    1    1    2  502    0  0.15883342346E+02  0.34055370020E+02 -0.27730538063E+03  0.27983981654E+03  0.00000000000E+00 0. -1.
<mgrwt>
<rscale>  0 0.32156579E+02</rscale>
<asrwt>0</asrwt>
<pdfrwt beam="2">  1        2 0.45197100E-01 0.37564173E+02</pdfrwt>
<pdfrwt beam="1">  1        1 0.10391805E+00 0.27527441E+02</pdfrwt>
<totfact> 0.48817449E+02</totfact>
</mgrwt>
</event>
<event>
 5    1  0.9399923E-003  0.3179050E+02  0.7546771E-02  0.1595948E+00
          1   -1    0    0  502    0  0.00000000000E+00  0.00000000000E+00  0.21766530878E+03  0.21766530878E+03  0.00000000000E+00 0. -1.
         -3   -1    0    0    0  501 -0.00000000000E+00 -0.00000000000E+00 -0.97523362902E+02  0.97523362902E+02  0.00000000000E+00 0.  1.
         25    1    1    2    0    0 -0.26489860424E+02 -0.10951081164E+02 -0.37369430549E+02  0.13357811656E+03  0.12500000000E+03 0.  0.
          2    1    1    2  502    0 -0.13230522715E+01  0.31762959114E+02  0.13831597954E+03  0.14192232465E+03  0.00000000000E+00 0. -1.
         -2    1    1    2    0  501  0.27812912695E+02 -0.20811877950E+02  0.19195396895E+02  0.39688230476E+02  0.00000000000E+00 0.  1.
<mgrwt>
<rscale>  0 0.30194602E+02</rscale>
<asrwt>0</asrwt>
<pdfrwt beam="1">  1        1 0.33486970E-01 0.31790502E+02</pdfrwt>
<pdfrwt beam="2">  1       -3 0.15003594E-01 0.28678817E+02</pdfrwt>
<totfact> 0.20328216E+03</totfact>
</mgrwt>
</event>
<event>
 5    1  0.9399923E-003  0.1346482E+03  0.7546771E-02  0.1364632E+00
          1   -1    0    0  502    0  0.00000000000E+00  0.00000000000E+00  0.20526638105E+04  0.20526638105E+04  0.00000000000E+00 0. -1.
         -1   -1    0    0    0  501 -0.00000000000E+00 -0.00000000000E+00 -0.50648486022E+02  0.50648486022E+02  0.00000000000E+00 0.  1.
         25    1    1    2    0    0 -0.12398575664E+03 -0.50925619248E+02  0.10060405569E+04  0.10225988895E+04  0.12500000000E+03 0.  0.
          2    1    1    2  502    0 -0.10047761968E+02  0.33562305606E+02  0.92938664766E+03  0.93004673362E+03  0.00000000000E+00 0. -1.
         -2    1    1    2    0  501  0.13403351860E+03  0.17363313642E+02  0.66588119869E+02  0.15066667341E+03  0.00000000000E+00 0.  1.
<mgrwt>
<rscale>  0 0.68682424E+02</rscale>
<asrwt>0</asrwt>
<pdfrwt beam="1">  1        1 0.31579437E+00 0.35034067E+02</pdfrwt>
<pdfrwt beam="2">  1       -1 0.77920764E-02 0.13464824E+03</pdfrwt>
<totfact> 0.34705312E+02</totfact>
</mgrwt>
</event>
<event>
 5    1  0.9399923E-003  0.1129546E+03  0.7546771E-02  0.1455292E+00
          1   -1    0    0  501    0 -0.00000000000E+00  0.00000000000E+00  0.25685115555E+04  0.25685115555E+04  0.00000000000E+00 0. -1.
          2   -1    0    0  502    0  0.00000000000E+00 -0.00000000000E+00 -0.61539037634E+03  0.61539037634E+03  0.00000000000E+00 0. -1.
         25    1    1    2    0    0  0.84005889001E+02  0.54208036924E+02  0.17170710255E+04  0.17245154123E+04  0.12500000000E+03 0.  0.
          2    1    1    2  501    0  0.19027517263E+02 -0.78128431541E+01  0.84237304214E+03  0.84262413273E+03  0.00000000000E+00 0. -1.
          1    1    1    2  502    0 -0.10303340626E+03 -0.46395193770E+02 -0.60632288843E+03  0.61676238686E+03  0.00000000000E+00 0. -1.
<mgrwt>
<rscale>  0 0.48201362E+02</rscale>
<asrwt>0</asrwt>
<pdfrwt beam="2">  1        2 0.94675444E-01 0.11295457E+03</pdfrwt>
<pdfrwt beam="1">  1        1 0.39515562E+00 0.20569077E+02</pdfrwt>
<totfact> 0.14804796E+01</totfact>
</mgrwt>
</event>
<event>
 5    1  0.9399923E-003  0.1770269E+03  0.7546771E-02  0.1236334E+00
         -2   -1    0    0    0  501  0.00000000000E+00  0.00000000000E+00  0.25566648693E+03  0.25566648693E+03  0.00000000000E+00 0.  1.
         -1   -1    0    0    0  502 -0.00000000000E+00 -0.00000000000E+00 -0.60634571457E+03  0.60634571457E+03  0.00000000000E+00 0.  1.
         25    1    1    2    0    0 -0.11594881412E+03 -0.13903267963E+03 -0.61441572624E+02  0.22841690031E+03  0.12500000000E+03 0.  0.
         -2    1    1    2    0  502  0.16654882012E+03  0.68102365218E+02 -0.43108238826E+03  0.46712789159E+03  0.00000000000E+00 0.  1.
         -1    1    1    2    0  501 -0.50600006003E+02  0.70930314412E+02  0.14184473324E+03  0.16646740960E+03  0.00000000000E+00 0.  1.
<mgrwt>
<rscale>  0 0.12419415E+03</rscale>
<asrwt>0</asrwt>
<pdfrwt beam="1">  1       -2 0.39333306E-01 0.87129043E+02</pdfrwt>
<pdfrwt beam="2">  1       -1 0.93283955E-01 0.17702693E+03</pdfrwt>
<totfact> 0.54524116E+01</totfact>
</mgrwt>
</event>
<event>
 5    1  0.9399923E-003  0.6286644E+02  0.7546771E-02  0.1426399E+00
         -3   -1    0    0    0  501 -0.00000000000E+00  0.00000000000E+00  0.46838324891E+02  0.46838324891E+02  0.00000000000E+00 0.  1.
          1   -1    0    0  502    0  0.00000000000E+00 -0.00000000000E+00 -0.91498974289E+03  0.91498974289E+03  0.00000000000E+00 0. -1.
         25    1    1    2    0    0 -0.37135706672E+02  0.98231145146E+02 -0.69380640339E+03  0.71275573935E+03  0.12500000000E+03 0.  0.
          2    1    1    2  502    0  0.25613155609E+02 -0.38031916817E+02 -0.18164883355E+03  0.18734662839E+03  0.00000000000E+00 0. -1.
         -2    1    1    2    0  501  0.11522551063E+02 -0.60199228329E+02  0.73038189487E+01  0.61725700042E+02  0.00000000000E+00 0.  1.
<mgrwt>
<rscale>  0 0.53689749E+02</rscale>
<asrwt>0</asrwt>
<pdfrwt beam="2">  1        1 0.14076765E+00 0.45852595E+02</pdfrwt>
<pdfrwt beam="1">  1       -3 0.72058965E-02 0.62866435E+02</pdfrwt>
<totfact> 0.12228033E+03</totfact>
</mgrwt>
</event>
<event>
 5    1  0.9399923E-003  0.1014133E+03  0.7546771E-02  0.1316465E+00
         -2   -1    0    0    0  501 -0.00000000000E+00  0.00000000000E+00  0.13190268288E+03  0.13190268288E+03  0.00000000000E+00 0.  1.
          2   -1    0    0  502    0  0.00000000000E+00 -0.00000000000E+00 -0.20241722957E+04  0.20241722957E+04  0.00000000000E+00 0. -1.
         25    1    1    2    0    0  0.13394103694E+03  0.62954325551E+02 -0.20634200713E+03  0.28302910167E+03  0.12500000000E+03 0.  0.
          1    1    1    2  502    0 -0.69773349727E+02  0.10672513103E+02 -0.17530939515E+04  0.17545143560E+04  0.00000000000E+00 0. -1.
         -1    1    1    2    0  501 -0.64167687217E+02 -0.73626838653E+02  0.67166345736E+02  0.11853152092E+03  0.00000000000E+00 0.  1.
<mgrwt>
<rscale>  0 0.84606416E+02</rscale>
<asrwt>0</asrwt>
<pdfrwt beam="2">  1        2 0.31141112E+00 0.70584863E+02</pdfrwt>
<pdfrwt beam="1">  1       -2 0.20292721E-01 0.10141333E+03</pdfrwt>
<totfact> 0.16663729E+02</totfact>
</mgrwt>
</event>
<event>
 5    1  0.9399923E-003  0.3542427E+02  0.7546771E-02  0.1545386E+00
         -1   -1    0    0    0  501 -0.00000000000E+00  0.00000000000E+00  0.25219443832E+02  0.25219443832E+02  0.00000000000E+00 0.  1.
          1   -1    0    0  502    0  0.00000000000E+00 -0.00000000000E+00 -0.12145652355E+04  0.12145652355E+04  0.00000000000E+00 0. -1.
         25    1    1    2    0    0 -0.49307730190E+02 -0.15702128407E+02 -0.68218183543E+03  0.69546737212E+03  0.12500000000E+03 0.  0.
          2    1    1    2  502    0  0.31923400173E+02 -0.15078275426E+02 -0.50773632489E+03  0.50896231048E+03  0.00000000000E+00 0. -1.
         -2    1    1    2    0  501  0.17384330017E+02  0.30780403833E+02  0.57236862794E+00  0.35354996763E+02  0.00000000000E+00 0.  1.
<mgrwt>
<rscale>  0 0.35364689E+02</rscale>
<asrwt>0</asrwt>
<pdfrwt beam="2">  1        1 0.18685623E+00 0.35305210E+02</pdfrwt>
<pdfrwt beam="1">  1       -1 0.38799136E-02 0.35424267E+02</pdfrwt>
<totfact> 0.27212180E+03</totfact>
</mgrwt>
</event>
<event>
 5    1  0.9399923E-003  0.4747510E+02  0.7546771E-02  0.1530522E+00
          2   -1    0    0  502    0  0.00000000000E+00  0.00000000000E+00  0.10275091428E+04  0.10275091428E+04  0.00000000000E+00 0. -1.
          1   -1    0    0  501    0 -0.00000000000E+00 -0.00000000000E+00 -0.69551851578E+03  0.69551851578E+03  0.00000000000E+00 0. -1.
         25    1    1    2    0    0  0.50432599036E+02 -0.35784629654E+02 -0.15588493349E+03  0.20916285343E+03  0.12500000000E+03 0.  0.
          2    1    1    2  501    0 -0.46624391831E+02  0.70081130076E+01 -0.51170016548E+03  0.51386769398E+03  0.00000000000E+00 0. -1.
          1    1    1    2  502    0 -0.38082072042E+01  0.28776516647E+02  0.99957572598E+03  0.99999711115E+03  0.00000000000E+00 0. -1.
<mgrwt>
<rscale>  0 0.37122488E+02</rscale>
<asrwt>0</asrwt>
<pdfrwt beam="1">  1        2 0.15807833E+00 0.29027407E+02</pdfrwt>
<pdfrwt beam="2">  1        1 0.10700285E+00 0.47475102E+02</pdfrwt>
<totfact> 0.11940547E+02</totfact>
</mgrwt>
</event>
<event>
 5    1  0.9399923E-003  0.6766716E+02  0.7546771E-02  0.1386961E+00
          1   -1    0    0  501    0 -0.00000000000E+00  0.00000000000E+00  0.16367774657E+04  0.16367774657E+04  0.00000000000E+00 0. -1.
          2   -1    0    0  502    0  0.00000000000E+00 -0.00000000000E+00 -0.47415165743E+02  0.47415165743E+02  0.00000000000E+00 0. -1.
         25    1    1    2    0    0  0.33821871263E+01 -0.11437473220E+02  0.14834944935E+03  0.19435743903E+03  0.12500000000E+03 0.  0.
          2    1    1    2  501    0 -0.31427837294E+02  0.62251257020E+02  0.14288300139E+04  0.14305307185E+04  0.00000000000E+00 0. -1.
          1    1    1    2  502    0  0.28045650167E+02 -0.50813783800E+02  0.12182836725E+02  0.59304473929E+02  0.00000000000E+00 0. -1.
<mgrwt>
<rscale>  0 0.62668791E+02</rscale>
<asrwt>0</asrwt>
<pdfrwt beam="2">  1        2 0.72946421E-02 0.58039634E+02</pdfrwt>
<pdfrwt beam="1">  1        1 0.25181187E+00 0.67667162E+02</pdfrwt>
<totfact> 0.77800889E+02</totfact>
</mgrwt>
</event>
<event>
 5    1  0.9399923E-003  0.4077377E+02  0.7546771E-02  0.1577158E+00
          1   -1    0    0  501    0 -0.00000000000E+00  0.00000000000E+00  0.83563506998E+02  0.83563506998E+02  0.00000000000E+00 0. -1.
          2   -1    0    0  502    0  0.00000000000E+00 -0.00000000000E+00 -0.31890553621E+03  0.31890553621E+03  0.00000000000E+00 0. -1.
         25    1    1    2    0    0 -0.12560210758E+02 -0.15868262662E+02 -0.94588447737E+02  0.15805548108E+03  0.12500000000E+03 0.  0.
          2    1    1    2  501    0  0.10860416087E+02  0.40896895018E+02  0.42192554835E+02  0.59755471240E+02  0.00000000000E+00 0. -1.
          1    1    1    2  502    0  0.16997946715E+01 -0.25028632355E+02 -0.18294613631E+03  0.18465809089E+03  0.00000000000E+00 0. -1.
<mgrwt>
<rscale>  0 0.31982220E+02</rscale>
<asrwt>0</asrwt>
<pdfrwt beam="2">  1        2 0.49062389E-01 0.25086286E+02</pdfrwt>
<pdfrwt beam="1">  1        1 0.12855924E-01 0.40773767E+02</pdfrwt>
<totfact> 0.56221899E+03</totfact>
</mgrwt>
</event>
<event>
 5    1  0.9399923E-003  0.1001182E+03  0.7546771E-02  0.1315681E+00
          2   -1    0    0  502    0  0.00000000000E+00  0.00000000000E+00  0.14900639884E+04  0.14900639884E+04  0.00000000000E+00 0. -1.
          1   -1    0    0  501    0 -0.00000000000E+00 -0.00000000000E+00 -0.34820162520E+03  0.34820162520E+03  0.00000000000E+00 0. -1.
         25    1    1    2    0    0 -0.13085657561E+03  0.62551431821E+02 -0.88578914458E+02  0.21096764939E+03  0.12500000000E+03 0.  0.
          2    1    1    2  501    0  0.70071289272E+02  0.16568822111E+02 -0.19008845212E+03  0.20326861803E+03  0.00000000000E+00 0. -1.
          1    1    1    2  502    0  0.60785286334E+02 -0.79120253932E+02  0.14205297298E+04  0.14240293462E+04  0.00000000000E+00 0. -1.
<mgrwt>
<rscale>  0 0.84905040E+02</rscale>
<asrwt>0</asrwt>
<pdfrwt beam="1">  1        2 0.22924061E+00 0.10011820E+03</pdfrwt>
<pdfrwt beam="2">  1        1 0.53569481E-01 0.72003552E+02</pdfrwt>
<totfact> 0.14954168E+02</totfact>
</mgrwt>
</event>
<event>
 5    1  0.9399923E-003  0.7618597E+02  0.7546771E-02  0.1356814E+00
          2   -1    0    0  502    0  0.00000000000E+00  0.00000000000E+00  0.20371001689E+03  0.20371001689E+03  0.00000000000E+00 0. -1.
          1   -1    0    0  501    0 -0.00000000000E+00 -0.00000000000E+00 -0.19976641530E+03  0.19976641530E+03  0.00000000000E+00 0. -1.
         25    1    1    2    0    0  0.28635729470E+02  0.45921879600E+02  0.15630650019E+02  0.13710631367E+03  0.12500000000E+03 0.  0.
          2    1    1    2  501    0  0.29042408746E+02 -0.78244684982E+02 -0.11597809352E+03  0.14288670481E+03  0.00000000000E+00 0. -1.
          1    1    1    2  502    0 -0.57678138217E+02  0.32322805382E+02  0.10429104509E+03  0.12348341371E+03  0.00000000000E+00 0. -1.
<mgrwt>
<rscale>  0 0.70973447E+02</rscale>
<asrwt>0</asrwt>
<pdfrwt beam="1">  1        2 0.31340002E-01 0.66117557E+02</pdfrwt>
<pdfrwt beam="2">  1        1 0.30733295E-01 0.76185970E+02</pdfrwt>
<totfact> 0.31668254E+03</totfact>
</mgrwt>
</event>
<event>
 5    1  0.9399923E-003  0.9592884E+02  0.7546771E-02  0.1357992E+00
          1   -1    0    0  501    0 -0.00000000000E+00  0.00000000000E+00  0.76727338320E+03  0.76727338320E+03  0.00000000000E+00 0. -1.
          2   -1    0    0  502    0  0.00000000000E+00 -0.00000000000E+00 -0.19484865030E+04  0.19484865030E+04  0.00000000000E+00 0. -1.
         25    1    1    2    0    0  0.60562981266E+02  0.13436162430E+03 -0.38402250007E+03  0.42990603781E+03  0.12500000000E+03 0.  0.
          2    1    1    2  501    0 -0.42155363057E+02 -0.85738707251E+02  0.74082465472E+03  0.74696008568E+03  0.00000000000E+00 0. -1.
          1    1    1    2  502    0 -0.18407618209E+02 -0.48622917045E+02 -0.15380152745E+04  0.15388937628E+04  0.00000000000E+00 0. -1.
<mgrwt>
<rscale>  0 0.70621552E+02</rscale>
<asrwt>0</asrwt>
<pdfrwt beam="2">  1        2 0.29976715E+00 0.51990658E+02</pdfrwt>
<pdfrwt beam="1">  1        1 0.11804206E+00 0.95928844E+02</pdfrwt>
<totfact> 0.33349316E+01</totfact>
</mgrwt>
</event>
<event>
 5    1  0.9399923E-003  0.1269465E+03  0.7546771E-02  0.1298523E+00
          2   -1    0    0  502    0  0.00000000000E+00  0.00000000000E+00  0.86987564444E+03  0.86987564444E+03  0.00000000000E+00 0. -1.
          1   -1    0    0  501    0 -0.00000000000E+00 -0.00000000000E+00 -0.43950946799E+03  0.43950946799E+03  0.00000000000E+00 0. -1.
         25    1    1    2    0    0 -0.98127298785E+02 -0.10793256271E+02  0.14672797960E+03  0.21656306505E+03  0.12500000000E+03 0.  0.
          2    1    1    2  501    0 -0.26358658321E+02  0.60945461663E+02 -0.39525322667E+03  0.40079201758E+03  0.00000000000E+00 0. -1.
          1    1    1    2  502    0  0.12448595711E+03 -0.50152205392E+02  0.67889142352E+03  0.69203002980E+03  0.00000000000E+00 0. -1.
<mgrwt>
<rscale>  0 0.91811791E+02</rscale>
<asrwt>0</asrwt>
<pdfrwt beam="1">  1        2 0.13382702E+00 0.12694645E+03</pdfrwt>
<pdfrwt beam="2">  1        1 0.67616841E-01 0.66401266E+02</pdfrwt>
<totfact> 0.24661000E+02</totfact>
</mgrwt>
</event>
<event>
 5    1  0.9399923E-003  0.3775082E+02  0.7546771E-02  0.1605948E+00
          1   -1    0    0  501    0 -0.00000000000E+00  0.00000000000E+00  0.15599017100E+04  0.15599017100E+04  0.00000000000E+00 0. -1.
          2   -1    0    0  502    0  0.00000000000E+00 -0.00000000000E+00 -0.48238171990E+03  0.48238171990E+03  0.00000000000E+00 0. -1.
         25    1    1    2    0    0 -0.30080733461E+02 -0.48714467062E+02  0.29118125735E+03  0.32200850060E+03  0.12500000000E+03 0.  0.
          2    1    1    2  501    0  0.18853922798E+02  0.12717758903E+02  0.12524422414E+04  0.12526487057E+04  0.00000000000E+00 0. -1.
          1    1    1    2  502    0  0.11226810663E+02  0.35996708160E+02 -0.46610350864E+03  0.46762622364E+03  0.00000000000E+00 0. -1.
<mgrwt>
<rscale>  0 0.29300854E+02</rscale>
<asrwt>0</asrwt>
<pdfrwt beam="2">  1        2 0.74212573E-01 0.37750816E+02</pdfrwt>
<pdfrwt beam="1">  1        1 0.23998488E+00 0.22742291E+02</pdfrwt>
<totfact> 0.76798337E+01</totfact>
</mgrwt>
</event>
<event>
 5    1  0.9399923E-003  0.4792933E+02  0.7546771E-02  0.1533359E+00
          1   -1    0    0  501    0 -0.00000000000E+00  0.00000000000E+00  0.24828382179E+03  0.24828382179E+03  0.00000000000E+00 0. -1.
          2   -1    0    0  502    0  0.00000000000E+00 -0.00000000000E+00 -0.25791415428E+04  0.25791415428E+04  0.00000000000E+00 0. -1.
         25    1    1    2    0    0 -0.20488180997E+02 -0.37853853046E+01 -0.26421432413E+03  0.29303293975E+03  0.12500000000E+03 0.  0.
          2    1    1    2  501    0 -0.24628995587E+02 -0.13777319314E+02  0.23276745155E+03  0.23447193532E+03  0.00000000000E+00 0. -1.
          1    1    1    2  502    0  0.45117176584E+02  0.17562704618E+02 -0.22994108484E+04  0.22999204895E+04  0.00000000000E+00 0. -1.
<mgrwt>
<rscale>  0 0.36777632E+02</rscale>
<asrwt>0</asrwt>
<pdfrwt beam="2">  1        2 0.39679101E+00 0.47929330E+02</pdfrwt>
<pdfrwt beam="1">  1        1 0.38197511E-01 0.28220594E+02</pdfrwt>
<totfact> 0.68621453E+01</totfact>
</mgrwt>
</event>
<event>
 5    1  0.9399923E-003  0.6575028E+02  0.7546771E-02  0.1459289E+00
          2   -1    0    0  502    0  0.00000000000E+00  0.00000000000E+00  0.93093231687E+03  0.93093231687E+03  0.00000000000E+00 0. -1.
          1   -1    0    0  501    0 -0.00000000000E+00 -0.00000000000E+00 -0.81743276416E+02  0.81743276416E+02  0.00000000000E+00 0. -1.
         25    1    1    2    0    0 -0.89443714228E+02  0.36555176047E+02  0.68858507800E+02  0.17234544673E+03  0.12500000000E+03 0.  0.
          2    1    1    2  501    0  0.34248388207E+02 -0.22334606755E+01 -0.18411702852E+02  0.38947801520E+02  0.00000000000E+00 0. -1.
          1    1    1    2  502    0  0.55195326021E+02 -0.34321715372E+02  0.79874223551E+03  0.80138234504E+03  0.00000000000E+00 0. -1.
<mgrwt>
<rscale>  0 0.47503940E+02</rscale>
<asrwt>0</asrwt>
<pdfrwt beam="1">  1        2 0.14322035E+00 0.65750279E+02</pdfrwt>
<pdfrwt beam="2">  1        1 0.12575889E-01 0.34321137E+02</pdfrwt>
<totfact> 0.17649042E+03</totfact>
</mgrwt>
</event>
<event>
 5    1  0.9399923E-003  0.1102952E+03  0.7546771E-02  0.1262757E+00
          1   -1    0    0  501    0 -0.00000000000E+00  0.00000000000E+00  0.24479915926E+03  0.24479915926E+03  0.00000000000E+00 0. -1.
          2   -1    0    0  502    0  0.00000000000E+00 -0.00000000000E+00 -0.36857153848E+03  0.36857153848E+03  0.00000000000E+00 0. -1.
         25    1    1    2    0    0  0.39015393644E+02  0.11155744975E+03 -0.63833610941E+02  0.18348568179E+03  0.12500000000E+03 0.  0.
          2    1    1    2  501    0 -0.10968640032E+03 -0.26877801870E+02  0.15294823786E+03  0.19012281849E+03  0.00000000000E+00 0. -1.
          1    1    1    2  502    0  0.70671006674E+02 -0.84679647882E+02 -0.21288700613E+03  0.23976219746E+03  0.00000000000E+00 0. -1.
<mgrwt>
<rscale>  0 0.10882731E+03</rscale>
<asrwt>0</asrwt>
<pdfrwt beam="2">  1        2 0.56703314E-01 0.11029521E+03</pdfrwt>
<pdfrwt beam="1">  1        1 0.37661409E-01 0.10737894E+03</pdfrwt>
<totfact> 0.13402247E+03</totfact>
</mgrwt>
</event>
<event>
 5    1  0.9399923E-003  0.1439342E+03  0.7546771E-02  0.1267441E+00
         -1   -1    0    0    0  502 -0.00000000000E+00  0.00000000000E+00  0.10286561547E+04  0.10286561547E+04  0.00000000000E+00 0.  1.
         -2   -1    0    0    0  501  0.00000000000E+00 -0.00000000000E+00 -0.10339336409E+04  0.10339336409E+04  0.00000000000E+00 0.  1.
         25    1    1    2    0    0 -0.13475406048E+03  0.12560713738E+03  0.29794744454E+02  0.22460751674E+03  0.12500000000E+03 0.  0.
         -2    1    1    2    0  502  0.78408166187E+02  0.56533750998E+01  0.89427393229E+03  0.89772248894E+03  0.00000000000E+00 0.  1.
         -1    1    1    2    0  501  0.56345894295E+02 -0.13126051248E+03 -0.92934616295E+03  0.94025978992E+03  0.00000000000E+00 0.  1.
<mgrwt>
<rscale>  0 0.10637158E+03</rscale>
<asrwt>0</asrwt>
<pdfrwt beam="2">  1       -2 0.15906671E+00 0.14393419E+03</pdfrwt>
<pdfrwt beam="1">  1       -1 0.15825479E+00 0.78611711E+02</pdfrwt>
<totfact> 0.75500031E-01</totfact>
</mgrwt>
</event>
<event>
 5    1  0.9399923E-003  0.1076802E+03  0.7546771E-02  0.1338559E+00
          2   -1    0    0  502    0  0.00000000000E+00  0.00000000000E+00  0.83083444104E+03  0.83083444104E+03  0.00000000000E+00 0. -1.
          1   -1    0    0  501    0 -0.00000000000E+00 -0.00000000000E+00 -0.15296779621E+03  0.15296779621E+03  0.00000000000E+00 0. -1.
         25    1    1    2    0    0  0.95438252040E+02 -0.87732164676E+02  0.11325036509E+03  0.21273466540E+03  0.12500000000E+03 0.  0.
          2    1    1    2  501    0 -0.10022815694E+03  0.33249232613E+02 -0.74742319968E+02  0.12937391278E+03  0.00000000000E+00 0. -1.
          1    1    1    2  502    0  0.47899048983E+01  0.54482932063E+02  0.63935859970E+03  0.64169365907E+03  0.00000000000E+00 0. -1.
<mgrwt>
<rscale>  0 0.76742195E+02</rscale>
<asrwt>0</asrwt>
<pdfrwt beam="1">  1        2 0.12782068E+00 0.54693081E+02</pdfrwt>
<pdfrwt beam="2">  1        1 0.23533508E-01 0.10768025E+03</pdfrwt>
<totfact> 0.98931793E+02</totfact>
</mgrwt>
</event>
<event>
 5    1  0.9399923E-003  0.1513197E+03  0.7546771E-02  0.1296258E+00
         -1   -1    0    0    0  502 -0.00000000000E+00  0.00000000000E+00  0.16486707817E+04  0.16486707817E+04  0.00000000000E+00 0.  1.
         -2   -1    0    0    0  501  0.00000000000E+00 -0.00000000000E+00 -0.41008117120E+03  0.41008117120E+03  0.00000000000E+00 0.  1.
         25    1    1    2    0    0  0.28065640789E+02 -0.19264870407E+03  0.25449641664E+03  0.34393986314E+03  0.12500000000E+03 0.  0.
         -2    1    1    2    0  502  0.65802775202E+01  0.14753026630E+03  0.13431666134E+04  0.13512605340E+04  0.00000000000E+00 0.  1.
         -1    1    1    2    0  501 -0.34645918309E+02  0.45118437772E+02 -0.35907341951E+03  0.36355155574E+03  0.00000000000E+00 0.  1.
<mgrwt>
<rscale>  0 0.92779128E+02</rscale>
<asrwt>0</asrwt>
<pdfrwt beam="2">  1       -2 0.63089412E-01 0.56885966E+02</pdfrwt>
<pdfrwt beam="1">  1       -1 0.25364166E+00 0.15131969E+03</pdfrwt>
<totfact> 0.14499046E+00</totfact>
</mgrwt>
</event>
<event>
 5    1  0.9399923E-003  0.3332311E+02  0.7546771E-02  0.1583277E+00
         -1   -1    0    0    0  501 -0.00000000000E+00  0.00000000000E+00  0.10929699415E+04  0.10929699415E+04  0.00000000000E+00 0.  1.
          1   -1    0    0  502    0  0.00000000000E+00 -0.00000000000E+00 -0.46445253728E+03  0.46445253728E+03  0.00000000000E+00 0. -1.
         25    1    1    2    0    0  0.34702474655E+01  0.15142902837E+02  0.10638929297E+03  0.16487883970E+03  0.12500000000E+03 0.  0.
          2    1    1    2  502    0 -0.28714917691E+02  0.70068022906E+01 -0.43441087390E+03  0.43541526057E+03  0.00000000000E+00 0. -1.
         -2    1    1    2    0  501  0.25244670226E+02 -0.22149705127E+02  0.95653898520E+03  0.95712837854E+03  0.00000000000E+00 0.  1.
<mgrwt>
<rscale>  0 0.31383840E+02</rscale>
<asrwt>0</asrwt>
<pdfrwt beam="2">  1        1 0.71454237E-01 0.29557432E+02</pdfrwt>
<pdfrwt beam="1">  1       -1 0.16814922E+00 0.33323106E+02</pdfrwt>
<totfact> 0.17090680E+01</totfact>
</mgrwt>
</event>
<event>
 5    1  0.9399923E-003  0.7647230E+02  0.7546771E-02  0.1442607E+00
          2   -1    0    0  502    0  0.00000000000E+00  0.00000000000E+00  0.65528249547E+03  0.65528249547E+03  0.00000000000E+00 0. -1.
          1   -1    0    0  501    0 -0.00000000000E+00 -0.00000000000E+00 -0.84572706598E+02  0.84572706598E+02  0.00000000000E+00 0. -1.
         25    1    1    2    0    0 -0.75102291289E+00  0.10596427760E+03  0.16614855365E+03  0.23336523743E+03  0.12500000000E+03 0.  0.
          2    1    1    2  501    0  0.70762210569E+00 -0.72601603259E+02 -0.24124410329E+02  0.76508043359E+02  0.00000000000E+00 0. -1.
          1    1    1    2  502    0  0.43400807191E-01 -0.33362674339E+02  0.42868564555E+03  0.42998192127E+03  0.00000000000E+00 0. -1.
<mgrwt>
<rscale>  0 0.50510619E+02</rscale>
<asrwt>0</asrwt>
<pdfrwt beam="1">  1        2 0.10081269E+00 0.33362703E+02</pdfrwt>
<pdfrwt beam="2">  1        1 0.13011186E-01 0.76472302E+02</pdfrwt>
<totfact> 0.27559296E+03</totfact>
</mgrwt>
</event>
<event>
 5    1  0.9399923E-003  0.7706055E+02  0.7546771E-02  0.1408819E+00
          2   -1    0    0  502    0  0.00000000000E+00  0.00000000000E+00  0.14856002115E+04  0.14856002115E+04  0.00000000000E+00 0. -1.
          1   -1    0    0  501    0 -0.00000000000E+00 -0.00000000000E+00 -0.49197696396E+03  0.49197696396E+03  0.00000000000E+00 0. -1.
         25    1    1    2    0    0 -0.15217628755E+02 -0.11054492833E+03  0.75460775117E+03  0.77298746143E+03  0.12500000000E+03 0.  0.
          2    1    1    2  501    0  0.15774300271E+02  0.39832607376E+02 -0.48009897461E+03  0.48200673292E+03  0.00000000000E+00 0. -1.
          1    1    1    2  502    0 -0.55667151654E+00  0.70712320955E+02  0.71911447097E+03  0.72258298110E+03  0.00000000000E+00 0. -1.
<mgrwt>
<rscale>  0 0.57458277E+02</rscale>
<asrwt>0</asrwt>
<pdfrwt beam="1">  1        2 0.22855388E+00 0.77060554E+02</pdfrwt>
<pdfrwt beam="2">  1        1 0.75688765E-01 0.42842329E+02</pdfrwt>
<totfact> 0.10118483E+02</totfact>
</mgrwt>
</event>
<event>
 5    1  0.9399923E-003  0.6953958E+02  0.7546771E-02  0.1423699E+00
          1   -1    0    0  501    0 -0.00000000000E+00  0.00000000000E+00  0.13800921639E+04  0.13800921639E+04  0.00000000000E+00 0. -1.
          2   -1    0    0  502    0  0.00000000000E+00 -0.00000000000E+00 -0.13639193996E+03  0.13639193996E+03  0.00000000000E+00 0. -1.
         25    1    1    2    0    0 -0.41792204194E+02  0.97762953649E+02  0.13515784293E+03  0.21259545137E+03  0.12500000000E+03 0.  0.
          2    1    1    2  501    0  0.40490403906E+02 -0.55467220372E+02  0.12006045814E+04  0.12025670236E+04  0.00000000000E+00 0. -1.
          1    1    1    2  502    0  0.13018002882E+01 -0.42295733277E+02 -0.92062200409E+02  0.10132162889E+03  0.00000000000E+00 0. -1.
<mgrwt>
<rscale>  0 0.54245924E+02</rscale>
<asrwt>0</asrwt>
<pdfrwt beam="2">  1        2 0.20983376E-01 0.42315762E+02</pdfrwt>
<pdfrwt beam="1">  1        1 0.21232186E+00 0.69539579E+02</pdfrwt>
<totfact> 0.32459326E+02</totfact>
</mgrwt>
</event>
<event>
 5    1  0.9399923E-003  0.1568726E+03  0.7546771E-02  0.1322990E+00
          2   -1    0    0  502    0  0.00000000000E+00  0.00000000000E+00  0.42832991673E+03  0.42832991673E+03  0.00000000000E+00 0. -1.
          1   -1    0    0  501    0 -0.00000000000E+00 -0.00000000000E+00 -0.22940743345E+03  0.22940743345E+03  0.00000000000E+00 0. -1.
         25    1    1    2    0    0  0.12572650258E+03  0.62657105420E+02  0.12991125572E+02  0.18848563780E+03  0.12500000000E+03 0.  0.
          2    1    1    2  501    0 -0.16155156846E+03 -0.38792282689E+02 -0.90701671143E+02  0.18928957609E+03  0.00000000000E+00 0. -1.
          1    1    1    2  502    0  0.35825065872E+02 -0.23864822731E+02  0.27663302885E+03  0.27996213630E+03  0.00000000000E+00 0. -1.
<mgrwt>
<rscale>  0 0.82175126E+02</rscale>
<asrwt>0</asrwt>
<pdfrwt beam="1">  1        2 0.65896910E-01 0.43046081E+02</pdfrwt>
<pdfrwt beam="2">  1        1 0.35293451E-01 0.15687261E+03</pdfrwt>
<totfact> 0.12488045E+03</totfact>
</mgrwt>
</event>
<event>
 5    1  0.9399923E-003  0.4399135E+02  0.7546771E-02  0.1536589E+00
         -1   -1    0    0    0  502 -0.00000000000E+00  0.00000000000E+00  0.99034186078E+03  0.99034186078E+03  0.00000000000E+00 0.  1.
         -2   -1    0    0    0  501  0.00000000000E+00 -0.00000000000E+00 -0.24860932148E+02  0.24860932148E+02  0.00000000000E+00 0.  1.
         25    1    1    2    0    0 -0.44931134603E+02  0.37854479782E+02  0.76622403943E+03  0.77857308398E+03  0.12500000000E+03 0.  0.
         -2    1    1    2    0  502  0.19017591714E+01 -0.30042722662E+02  0.18942943533E+03  0.19180639416E+03  0.00000000000E+00 0.  1.
         -1    1    1    2    0  501  0.43029375432E+02 -0.78117571196E+01  0.98274538806E+01  0.44823314794E+02  0.00000000000E+00 0.  1.
<mgrwt>
<rscale>  0 0.36390454E+02</rscale>
<asrwt>0</asrwt>
<pdfrwt beam="2">  1       -2 0.38247596E-02 0.43991346E+02</pdfrwt>
<pdfrwt beam="1">  1       -1 0.15236026E+00 0.30102855E+02</pdfrwt>
<totfact> 0.75563810E+02</totfact>
</mgrwt>
</event>
<event>
 5    1  0.9399923E-003  0.6466539E+02  0.7546771E-02  0.1381734E+00
          2   -1    0    0  502    0  0.00000000000E+00  0.00000000000E+00  0.82967365330E+03  0.82967365330E+03  0.00000000000E+00 0. -1.
          1   -1    0    0  501    0 -0.00000000000E+00 -0.00000000000E+00 -0.28789017728E+03  0.28789017728E+03  0.00000000000E+00 0. -1.
         25    1    1    2    0    0 -0.34299827489E+02 -0.35669170887E+02  0.34136442846E+03  0.36688341600E+03  0.12500000000E+03 0.  0.
          2    1    1    2  501    0  0.61473182675E+02 -0.21569961762E+02 -0.26911612430E+03  0.27688933493E+03  0.00000000000E+00 0. -1.
          1    1    1    2  502    0 -0.27173355186E+02  0.57239132649E+02  0.46953517186E+03  0.47379107965E+03  0.00000000000E+00 0. -1.
<mgrwt>
<rscale>  0 0.64010245E+02</rscale>
<asrwt>0</asrwt>
<pdfrwt beam="1">  1        2 0.12764210E+00 0.63361736E+02</pdfrwt>
<pdfrwt beam="2">  1        1 0.44290797E-01 0.64665391E+02</pdfrwt>
<totfact> 0.45077021E+02</totfact>
</mgrwt>
</event>
<event>
 5    1  0.9399923E-003  0.1589851E+03  0.7546771E-02  0.1338164E+00
          2   -1    0    0  502    0  0.00000000000E+00  0.00000000000E+00  0.45102808558E+03  0.45102808558E+03  0.00000000000E+00 0. -1.
         -2   -1    0    0    0  501 -0.00000000000E+00 -0.00000000000E+00 -0.14553424185E+03  0.14553424185E+03  0.00000000000E+00 0.  1.
         25    1    1    2    0    0  0.12303585816E+03  0.13613153336E+03  0.25980754564E+03  0.34175221658E+03  0.12500000000E+03 0.  0.
          1    1    1    2  502    0 -0.47172136230E+01 -0.36870287693E+02  0.87280361965E+02  0.94865862162E+02  0.00000000000E+00 0. -1.
         -1    1    1    2    0  501 -0.11831864454E+03 -0.99261245668E+02 -0.41594063880E+02  0.15994424869E+03  0.00000000000E+00 0.  1.
<mgrwt>
<rscale>  0 0.76873966E+02</rscale>
<asrwt>0</asrwt>
<pdfrwt beam="1">  1        2 0.69388936E-01 0.37170825E+02</pdfrwt>
<pdfrwt beam="2">  1       -2 0.22389884E-01 0.15898508E+03</pdfrwt>
<totfact> 0.12143136E+03</totfact>
</mgrwt>
</event>
<event>
 5    1  0.9399923E-003  0.1274759E+03  0.7546771E-02  0.1326130E+00
         -1   -1    0    0    0  501 -0.00000000000E+00  0.00000000000E+00  0.48513629513E+03  0.48513629513E+03  0.00000000000E+00 0.  1.
          1   -1    0    0  502    0  0.00000000000E+00 -0.00000000000E+00 -0.24484895709E+03  0.24484895709E+03  0.00000000000E+00 0. -1.
         25    1    1    2    0    0  0.10777728625E+03 -0.28505771484E+02  0.28625916470E+03  0.33165921035E+03  0.12500000000E+03 0.  0.
          2    1    1    2  502    0 -0.12758408153E+03 -0.19051887647E+02 -0.19883520355E+03  0.23701500048E+03  0.00000000000E+00 0. -1.
         -2    1    1    2    0  501  0.19806795283E+02  0.47557659131E+02  0.15286337689E+03  0.16131104139E+03  0.00000000000E+00 0.  1.
<mgrwt>
<rscale>  0 0.81038405E+02</rscale>
<asrwt>0</asrwt>
<pdfrwt beam="2">  1        1 0.37669071E-01 0.12747588E+03</pdfrwt>
<pdfrwt beam="1">  1       -1 0.74636353E-01 0.51517376E+02</pdfrwt>
<totfact> 0.22383658E+02</totfact>
</mgrwt>
</event>
<event>
 5    1  0.9399923E-003  0.7699703E+02  0.7546771E-02  0.1495380E+00
         -2   -1    0    0    0  501 -0.00000000000E+00  0.00000000000E+00  0.12848503759E+02  0.12848503759E+02  0.00000000000E+00 0.  1.
          2   -1    0    0  502    0  0.00000000000E+00 -0.00000000000E+00 -0.21518529533E+04  0.21518529533E+04  0.00000000000E+00 0. -1.
         25    1    1    2    0    0  0.34975220818E+02  0.50277229305E+02 -0.42542309511E+03  0.44761688497E+03  0.12500000000E+03 0.  0.
          1    1    1    2  502    0 -0.57426403100E+02 -0.53564127001E+02 -0.15434885229E+04  0.15454849490E+04  0.00000000000E+00 0. -1.
         -1    1    1    2    0  501  0.22451182281E+02  0.32868976956E+01 -0.17009283158E+03  0.17159962306E+03  0.00000000000E+00 0.  1.
<mgrwt>
<rscale>  0 0.41798349E+02</rscale>
<asrwt>0</asrwt>
<pdfrwt beam="2">  1        2 0.33105429E+00 0.76997030E+02</pdfrwt>
<pdfrwt beam="1">  1       -2 0.19766929E-02 0.22690511E+02</pdfrwt>
<totfact> 0.39208463E+03</totfact>
</mgrwt>
</event>
<event>
 5    1  0.9399923E-003  0.7338345E+02  0.7546771E-02  0.1403973E+00
          2   -1    0    0  502    0  0.00000000000E+00  0.00000000000E+00  0.42667221739E+03  0.42667221739E+03  0.00000000000E+00 0. -1.
          1   -1    0    0  501    0 -0.00000000000E+00 -0.00000000000E+00 -0.17201480426E+04  0.17201480426E+04  0.00000000000E+00 0. -1.
         25    1    1    2    0    0 -0.92068111973E+02 -0.31835607311E+02  0.83298112812E+02  0.17903524439E+03  0.12500000000E+03 0.  0.
          2    1    1    2  501    0  0.42167940362E+02 -0.20142863127E+02 -0.16675549705E+04  0.16682096540E+04  0.00000000000E+00 0. -1.
          1    1    1    2  502    0  0.49900171611E+02  0.51978470438E+02  0.29078103239E+03  0.29957536166E+03  0.00000000000E+00 0. -1.
<mgrwt>
<rscale>  0 0.58560634E+02</rscale>
<asrwt>0</asrwt>
<pdfrwt beam="1">  1        2 0.65641880E-01 0.73383453E+02</pdfrwt>
<pdfrwt beam="2">  1        1 0.26463816E+00 0.46731896E+02</pdfrwt>
<totfact> 0.63799882E+01</totfact>
</mgrwt>
</event>
<event>
 5    1  0.9399923E-003  0.5213876E+02  0.7546771E-02  0.1467041E+00
          1   -1    0    0  502    0  0.00000000000E+00  0.00000000000E+00  0.13756996408E+04  0.13756996408E+04  0.00000000000E+00 0. -1.
         -1   -1    0    0    0  501 -0.00000000000E+00 -0.00000000000E+00 -0.65018955452E+02  0.65018955452E+02  0.00000000000E+00 0.  1.
         25    1    1    2    0    0 -0.11705607732E+02  0.28312609441E+02  0.84224128048E+03  0.85201760525E+03  0.12500000000E+03 0.  0.
          2    1    1    2  502    0  0.52315183373E+02 -0.33356564999E+02  0.51954166146E+03  0.52323329102E+03  0.00000000000E+00 0. -1.
         -2    1    1    2    0  501 -0.40609575642E+02  0.50439555577E+01 -0.51102256553E+02  0.65467700023E+02  0.00000000000E+00 0.  1.
<mgrwt>
<rscale>  0 0.46190937E+02</rscale>
<asrwt>0</asrwt>
<pdfrwt beam="1">  1        1 0.21164608E+00 0.52138762E+02</pdfrwt>
<pdfrwt beam="2">  1       -1 0.10002917E-01 0.40921622E+02</pdfrwt>
<totfact> 0.53995124E+02</totfact>
</mgrwt>
</event>
<event>
 5    1  0.9399923E-003  0.8003384E+02  0.7546771E-02  0.1431780E+00
          1   -1    0    0  501    0 -0.00000000000E+00  0.00000000000E+00  0.15389459099E+04  0.15389459099E+04  0.00000000000E+00 0. -1.
          2   -1    0    0  502    0  0.00000000000E+00 -0.00000000000E+00 -0.16734296451E+03  0.16734296451E+03  0.00000000000E+00 0. -1.
         25    1    1    2    0    0  0.70686198670E+02  0.75166529223E+01  0.86062653091E+02  0.16758525893E+03  0.12500000000E+03 0.  0.
          2    1    1    2  501    0 -0.75931522239E+02  0.26658647393E+02  0.14085907927E+04  0.14108877705E+04  0.00000000000E+00 0. -1.
          1    1    1    2  502    0  0.52453235693E+01 -0.34175300315E+02 -0.12305050044E+03  0.12781584499E+03  0.00000000000E+00 0. -1.
<mgrwt>
<rscale>  0 0.52604269E+02</rscale>
<asrwt>0</asrwt>
<pdfrwt beam="2">  1        2 0.25745073E-01 0.34575491E+02</pdfrwt>
<pdfrwt beam="1">  1        1 0.23676090E+00 0.80033835E+02</pdfrwt>
<totfact> 0.20231449E+02</totfact>
</mgrwt>
</event>
<event>
 5    1  0.9399923E-003  0.4948884E+02  0.7546771E-02  0.1468557E+00
          1   -1    0    0  501    0 -0.00000000000E+00  0.00000000000E+00  0.61793862031E+03  0.61793862031E+03  0.00000000000E+00 0. -1.
          2   -1    0    0  502    0  0.00000000000E+00 -0.00000000000E+00 -0.10130447100E+03  0.10130447100E+03  0.00000000000E+00 0. -1.
         25    1    1    2    0    0 -0.70559108983E+01  0.11712091212E+02  0.25519561137E+03  0.28449386465E+03  0.12500000000E+03 0.  0.
          2    1    1    2  501    0  0.88244784744E+01 -0.54321205815E+02  0.34050042595E+03  0.34491912805E+03  0.00000000000E+00 0. -1.
          1    1    1    2  502    0 -0.17685675761E+01  0.42609114603E+02 -0.79061888020E+02  0.89830098607E+02  0.00000000000E+00 0. -1.
<mgrwt>
<rscale>  0 0.45940084E+02</rscale>
<asrwt>0</asrwt>
<pdfrwt beam="2">  1        2 0.15585304E-01 0.42645803E+02</pdfrwt>
<pdfrwt beam="1">  1        1 0.95067478E-01 0.49488841E+02</pdfrwt>
<totfact> 0.16586667E+03</totfact>
</mgrwt>
</event>
<event>
 5    1  0.9399923E-003  0.6337703E+02  0.7546771E-02  0.1391827E+00
         -1   -1    0    0    0  501 -0.00000000000E+00  0.00000000000E+00  0.10043450040E+04  0.10043450040E+04  0.00000000000E+00 0.  1.
          1   -1    0    0  502    0  0.00000000000E+00 -0.00000000000E+00 -0.26936707476E+03  0.26936707476E+03  0.00000000000E+00 0. -1.
         25    1    1    2    0    0 -0.25535905748E+02  0.36171533636E+02 -0.29791507232E+02  0.13591540101E+03  0.12500000000E+03 0.  0.
          2    1    1    2  502    0 -0.35498548638E+02 -0.53243248809E+02 -0.17993158499E+03  0.19097215968E+03  0.00000000000E+00 0. -1.
         -2    1    1    2    0  501  0.61034454387E+02  0.17071715173E+02  0.94470102149E+03  0.94682451810E+03  0.00000000000E+00 0.  1.
<mgrwt>
<rscale>  0 0.61454587E+02</rscale>
<asrwt>0</asrwt>
<pdfrwt beam="2">  1        1 0.41441089E-01 0.59590456E+02</pdfrwt>
<pdfrwt beam="1">  1       -1 0.15451461E+00 0.63377031E+02</pdfrwt>
<totfact> 0.38915429E+01</totfact>
</mgrwt>
</event>
<event>
 5    1  0.9399923E-003  0.1150838E+03  0.7546771E-02  0.1306401E+00
          1   -1    0    0  501    0 -0.00000000000E+00  0.00000000000E+00  0.11607557750E+04  0.11607557750E+04  0.00000000000E+00 0. -1.
          2   -1    0    0  502    0  0.00000000000E+00 -0.00000000000E+00 -0.18500504072E+04  0.18500504072E+04  0.00000000000E+00 0. -1.
         25    1    1    2    0    0 -0.29456810903E+02  0.10810062078E+03  0.60981689841E+02  0.17859791269E+03  0.12500000000E+03 0.  0.
          2    1    1    2  501    0  0.88960805201E+02 -0.74910487787E+02  0.10370665210E+04  0.10435672355E+04  0.00000000000E+00 0. -1.
          1    1    1    2  502    0 -0.59503994298E+02 -0.33190132994E+02 -0.17873428430E+04  0.17886410341E+04  0.00000000000E+00 0. -1.
<mgrwt>
<rscale>  0 0.88550419E+02</rscale>
<asrwt>0</asrwt>
<pdfrwt beam="2">  1        2 0.28462314E+00 0.68134501E+02</pdfrwt>
<pdfrwt beam="1">  1        1 0.17857781E+00 0.11508379E+03</pdfrwt>
<totfact> 0.18258396E+01</totfact>
</mgrwt>
</event>
<event>
 5    1  0.9399923E-003  0.9864842E+02  0.7546771E-02  0.1386909E+00
         -2   -1    0    0    0  501  0.00000000000E+00  0.00000000000E+00  0.74724667376E+03  0.74724667376E+03  0.00000000000E+00 0.  1.
         -1   -1    0    0    0  502 -0.00000000000E+00 -0.00000000000E+00 -0.13051403969E+04  0.13051403969E+04  0.00000000000E+00 0.  1.
         25    1    1    2    0    0 -0.12132781662E+03 -0.29463447941E+02 -0.60709419027E+03  0.63227912326E+03  0.12500000000E+03 0.  0.
         -2    1    1    2    0  502  0.83172683478E+02  0.40887287367E+02 -0.68177636250E+03  0.68804685452E+03  0.00000000000E+00 0.  1.
         -1    1    1    2    0  501  0.38155133137E+02 -0.11423839425E+02  0.73097682962E+03  0.73206109290E+03  0.00000000000E+00 0.  1.
<mgrwt>
<rscale>  0 0.62681971E+02</rscale>
<asrwt>0</asrwt>
<pdfrwt beam="1">  1       -2 0.11496103E+00 0.39828611E+02</pdfrwt>
<pdfrwt beam="2">  1       -1 0.20079083E+00 0.98648416E+02</pdfrwt>
<totfact> 0.88817452E-01</totfact>
</mgrwt>
</event>
<event>
 5    1  0.9399923E-003  0.9154540E+02  0.7546771E-02  0.1383824E+00
         -2   -1    0    0    0  501 -0.00000000000E+00  0.00000000000E+00  0.37591054051E+03  0.37591054051E+03  0.00000000000E+00 0.  1.
          2   -1    0    0  502    0  0.00000000000E+00 -0.00000000000E+00 -0.14349920207E+04  0.14349920207E+04  0.00000000000E+00 0. -1.
         25    1    1    2    0    0  0.13237403483E+03  0.49672592900E+01 -0.10429173181E+04  0.10587016063E+04  0.12500000000E+03 0.  0.
          1    1    1    2  502    0 -0.42513353645E+02  0.11355558421E+02 -0.37721742013E+03  0.37977534938E+03  0.00000000000E+00 0. -1.
         -1    1    1    2    0  501 -0.89860681180E+02 -0.16322817711E+02  0.36105325812E+03  0.37242560546E+03  0.00000000000E+00 0.  1.
<mgrwt>
<rscale>  0 0.63469243E+02</rscale>
<asrwt>0</asrwt>
<pdfrwt beam="2">  1        2 0.22076800E+00 0.44003795E+02</pdfrwt>
<pdfrwt beam="1">  1       -2 0.57832392E-01 0.91545396E+02</pdfrwt>
<totfact> 0.49742843E+01</totfact>
</mgrwt>
</event>
<event>
 5    1  0.9399923E-003  0.2487136E+03  0.7546771E-02  0.1221192E+00
          2   -1    0    0  502    0  0.00000000000E+00  0.00000000000E+00  0.36538120963E+03  0.36538120963E+03  0.00000000000E+00 0. -1.
          1   -1    0    0  501    0 -0.00000000000E+00 -0.00000000000E+00 -0.36305342867E+04  0.36305342867E+04  0.00000000000E+00 0. -1.
         25    1    1    2    0    0  0.66754076679E+02  0.30074909854E+03 -0.53832147471E+03  0.63270936232E+03  0.12500000000E+03 0.  0.
          2    1    1    2  501    0 -0.43979906416E+02 -0.57678936891E+02 -0.29976863577E+04  0.29985637547E+04  0.00000000000E+00 0. -1.
          1    1    1    2  502    0 -0.22774170263E+02 -0.24307016165E+03  0.27085475532E+03  0.36464237932E+03  0.00000000000E+00 0. -1.
<mgrwt>
<rscale>  0 0.13431320E+03</rscale>
<asrwt>0</asrwt>
<pdfrwt beam="1">  1        2 0.56212495E-01 0.24871356E+03</pdfrwt>
<pdfrwt beam="2">  1        1 0.55854372E+00 0.72533385E+02</pdfrwt>
<totfact> 0.38869355E+00</totfact>
</mgrwt>
</event>
<event>
 5    1  0.9399923E-003  0.4380177E+02  0.7546771E-02  0.1503081E+00
         -2   -1    0    0    0  501 -0.00000000000E+00  0.00000000000E+00  0.10732672038E+04  0.10732672038E+04  0.00000000000E+00 0.  1.
          2   -1    0    0  502    0  0.00000000000E+00 -0.00000000000E+00 -0.11580646610E+02  0.11580646610E+02  0.00000000000E+00 0. -1.
         25    1    1    2    0    0 -0.35473369798E+01 -0.15600401821E+02  0.51169107867E+03  0.52698075499E+03  0.12500000000E+03 0.  0.
          1    1    1    2  502    0 -0.11828215872E+01 -0.37810000949E+02  0.28515818018E+03  0.28765636263E+03  0.00000000000E+00 0. -1.
         -1    1    1    2    0  501  0.47301585670E+01  0.53410402770E+02  0.26483729838E+03  0.27021073283E+03  0.00000000000E+00 0.  1.
<mgrwt>
<rscale>  0 0.40705712E+02</rscale>
<asrwt>0</asrwt>
<pdfrwt beam="2">  1        2 0.17816388E-02 0.37828498E+02</pdfrwt>
<pdfrwt beam="1">  1       -2 0.16511795E+00 0.43801766E+02</pdfrwt>
<totfact> 0.13447027E+03</totfact>
</mgrwt>
</event>
<event>
 5    1  0.9399923E-003  0.6839531E+02  0.7546771E-02  0.1411526E+00
          1   -1    0    0  501    0 -0.00000000000E+00  0.00000000000E+00  0.58678839920E+03  0.58678839920E+03  0.00000000000E+00 0. -1.
          2   -1    0    0  502    0  0.00000000000E+00 -0.00000000000E+00 -0.20590368823E+03  0.20590368823E+03  0.00000000000E+00 0. -1.
         25    1    1    2    0    0 -0.13789581798E+02 -0.81519848182E+02 -0.11045681201E+03  0.18617557717E+03  0.12500000000E+03 0.  0.
          2    1    1    2  501    0  0.41854390650E+02  0.21951325046E+02  0.52870022451E+03  0.53080841938E+03  0.00000000000E+00 0. -1.
          1    1    1    2  502    0 -0.28064808852E+02  0.59568523136E+02 -0.37358701526E+02  0.75708090877E+02  0.00000000000E+00 0. -1.
<mgrwt>
<rscale>  0 0.56854780E+02</rscale>
<asrwt>0</asrwt>
<pdfrwt beam="2">  1        2 0.31677491E-01 0.68395312E+02</pdfrwt>
<pdfrwt beam="1">  1        1 0.90275138E-01 0.47261514E+02</pdfrwt>
<totfact> 0.83927182E+02</totfact>
</mgrwt>
</event>
<event>
 5    1  0.9399923E-003  0.8912375E+02  0.7546771E-02  0.1370093E+00
          1   -1    0    0  501    0 -0.00000000000E+00  0.00000000000E+00  0.52515631320E+03  0.52515631320E+03  0.00000000000E+00 0. -1.
          2   -1    0    0  502    0  0.00000000000E+00 -0.00000000000E+00 -0.11020608966E+04  0.11020608966E+04  0.00000000000E+00 0. -1.
         25    1    1    2    0    0 -0.78663046277E+02 -0.14010830969E+02  0.20867814599E+03  0.25603856515E+03  0.12500000000E+03 0.  0.
          2    1    1    2  501    0  0.14762700987E+02 -0.48378736814E+02  0.28874679228E+03  0.29314356477E+03  0.00000000000E+00 0. -1.
          1    1    1    2  502    0  0.63900345290E+02  0.62389567784E+02 -0.10743295216E+04  0.10780350798E+04  0.00000000000E+00 0. -1.
<mgrwt>
<rscale>  0 0.67141419E+02</rscale>
<asrwt>0</asrwt>
<pdfrwt beam="2">  1        2 0.16954783E+00 0.89123752E+02</pdfrwt>
<pdfrwt beam="1">  1        1 0.80793279E-01 0.50581019E+02</pdfrwt>
<totfact> 0.14677077E+02</totfact>
</mgrwt>
</event>
<event>
 5    1  0.9399923E-003  0.1632941E+03  0.7546771E-02  0.1310964E+00
          2   -1    0    0  502    0  0.00000000000E+00  0.00000000000E+00  0.19091077011E+04  0.19091077011E+04  0.00000000000E+00 0. -1.
         -2   -1    0    0    0  501 -0.00000000000E+00 -0.00000000000E+00 -0.23497476477E+03  0.23497476477E+03  0.00000000000E+00 0.  1.
         25    1    1    2    0    0 -0.15855263362E+03 -0.52121037031E+01  0.46182827235E+03  0.50405997341E+03  0.12500000000E+03 0.  0.
          1    1    1    2  502    0 -0.26664638848E+00  0.46066032063E+02  0.13942898324E+04  0.13950506396E+04  0.00000000000E+00 0. -1.
         -1    1    1    2    0  501  0.15881928001E+03 -0.40853928360E+02 -0.18198516840E+03  0.24497185284E+03  0.00000000000E+00 0.  1.
<mgrwt>
<rscale>  0 0.86731974E+02</rscale>
<asrwt>0</asrwt>
<pdfrwt beam="1">  1        2 0.29370887E+00 0.46066804E+02</pdfrwt>
<pdfrwt beam="2">  1       -2 0.36149965E-01 0.16329406E+03</pdfrwt>
<totfact> 0.72543422E+01</totfact>
</mgrwt>
</event>
<event>
 5    1  0.9399923E-003  0.1840948E+03  0.7546771E-02  0.1295670E+00
          2   -1    0    0  502    0  0.00000000000E+00  0.00000000000E+00  0.64099192957E+03  0.64099192957E+03  0.00000000000E+00 0. -1.
          1   -1    0    0  501    0 -0.00000000000E+00 -0.00000000000E+00 -0.85301936673E+02  0.85301936673E+02  0.00000000000E+00 0. -1.
         25    1    1    2    0    0  0.76937243541E+02 -0.17083734978E+03  0.33728315730E+03  0.40557325814E+03  0.12500000000E+03 0.  0.
          2    1    1    2  501    0 -0.31212598195E+02  0.18177211974E+03  0.15007146142E+03  0.23777462719E+03  0.00000000000E+00 0. -1.
          1    1    1    2  502    0 -0.45724645346E+02 -0.10934769954E+02  0.68335374174E+02  0.82945980912E+02  0.00000000000E+00 0. -1.
<mgrwt>
<rscale>  0 0.93032397E+02</rscale>
<asrwt>0</asrwt>
<pdfrwt beam="1">  1        2 0.98614140E-01 0.47013959E+02</pdfrwt>
<pdfrwt beam="2">  1        1 0.13123375E-01 0.18409483E+03</pdfrwt>
<totfact> 0.28882125E+03</totfact>
</mgrwt>
</event>
<event>
 5    1  0.9399923E-003  0.8889052E+02  0.7546771E-02  0.1380215E+00
          1   -1    0    0  501    0 -0.00000000000E+00  0.00000000000E+00  0.17020555328E+03  0.17020555328E+03  0.00000000000E+00 0. -1.
          2   -1    0    0  502    0  0.00000000000E+00 -0.00000000000E+00 -0.14640431844E+03  0.14640431844E+03  0.00000000000E+00 0. -1.
         25    1    1    2    0    0  0.53816722066E+02 -0.28572405866E+02  0.12976452384E+02  0.13966391899E+03  0.12500000000E+03 0.  0.
          2    1    1    2  501    0 -0.10043347974E+03  0.26392785571E+02  0.50703103585E+02  0.11556066673E+03  0.00000000000E+00 0. -1.
          1    1    1    2  502    0  0.46616757672E+02  0.21796202948E+01 -0.39878321132E+02  0.61385285996E+02  0.00000000000E+00 0. -1.
<mgrwt>
<rscale>  0 0.64407413E+02</rscale>
<asrwt>0</asrwt>
<pdfrwt beam="2">  1        2 0.22523741E-01 0.46667685E+02</pdfrwt>
<pdfrwt beam="1">  1        1 0.26185470E-01 0.88890520E+02</pdfrwt>
<totfact> 0.54331312E+03</totfact>
</mgrwt>
</event>
<event>
 5    1  0.9399923E-003  0.6044926E+02  0.7546771E-02  0.1519535E+00
          2   -1    0    0  502    0  0.00000000000E+00  0.00000000000E+00  0.17740557768E+04  0.17740557768E+04  0.00000000000E+00 0. -1.
          1   -1    0    0  501    0 -0.00000000000E+00 -0.00000000000E+00 -0.35435983139E+02  0.35435983139E+02  0.00000000000E+00 0. -1.
         25    1    1    2    0    0 -0.44521877443E+02  0.69428893216E+02  0.27453283645E+03  0.31272327555E+03  0.12500000000E+03 0.  0.
          2    1    1    2  501    0  0.59161842814E+01 -0.23798540477E+02 -0.61779876975E+01  0.25289114205E+02  0.00000000000E+00 0. -1.
          1    1    1    2  502    0  0.38605693161E+02 -0.45630352739E+02  0.14702649449E+04  0.14714793702E+04  0.00000000000E+00 0. -1.
<mgrwt>
<rscale>  0 0.38501820E+02</rscale>
<asrwt>0</asrwt>
<pdfrwt beam="1">  1        2 0.27293159E+00 0.60449261E+02</pdfrwt>
<pdfrwt beam="2">  1        1 0.54516911E-02 0.24522882E+02</pdfrwt>
<totfact> 0.17937546E+03</totfact>
</mgrwt>
</event>
<event>
 5    1  0.9399923E-003  0.1436508E+03  0.7546771E-02  0.1298970E+00
         -2   -1    0    0    0  501 -0.00000000000E+00  0.00000000000E+00  0.93353634531E+03  0.93353634531E+03  0.00000000000E+00 0.  1.
          2   -1    0    0  502    0  0.00000000000E+00 -0.00000000000E+00 -0.38560599748E+03  0.38560599748E+03  0.00000000000E+00 0. -1.
         25    1    1    2    0    0  0.38835648920E+02  0.94920287329E+02  0.25347780086E+03  0.30065605616E+03  0.12500000000E+03 0.  0.
          1    1    1    2  502    0  0.18216421372E+02  0.55526340639E+02 -0.34969649190E+03  0.35454569375E+03  0.00000000000E+00 0. -1.
         -1    1    1    2    0  501 -0.57052070292E+02 -0.15044662797E+03  0.64414903887E+03  0.66394059288E+03  0.00000000000E+00 0.  1.
<mgrwt>
<rscale>  0 0.91622487E+02</rscale>
<asrwt>0</asrwt>
<pdfrwt beam="2">  1        2 0.59324000E-01 0.58438108E+02</pdfrwt>
<pdfrwt beam="1">  1       -2 0.14362097E+00 0.14365078E+03</pdfrwt>
<totfact> 0.30880490E+01</totfact>
</mgrwt>
</event>
<event>
 5    1  0.9399923E-003  0.5963994E+02  0.7546771E-02  0.1511832E+00
          2   -1    0    0  502    0  0.00000000000E+00  0.00000000000E+00  0.11627063372E+04  0.11627063372E+04  0.00000000000E+00 0. -1.
         -2   -1    0    0    0  501 -0.00000000000E+00 -0.00000000000E+00 -0.58943938460E+03  0.58943938460E+03  0.00000000000E+00 0.  1.
         25    1    1    2    0    0 -0.46607865445E+02 -0.38919853288E+02 -0.40825176700E+03  0.43125578646E+03  0.12500000000E+03 0.  0.
          3    1    1    2  502    0  0.57679523429E+02  0.15199195526E+02  0.11494167777E+04  0.11509634537E+04  0.00000000000E+00 0. -1.
         -1    1    1    2    0  501 -0.11071657983E+02  0.23720657762E+02 -0.16789805814E+03  0.16992648158E+03  0.00000000000E+00 0.  1.
<mgrwt>
<rscale>  0 0.39512186E+02</rscale>
<asrwt>0</asrwt>
<pdfrwt beam="1">  1        2 0.17887790E+00 0.59639941E+02</pdfrwt>
<pdfrwt beam="2">  1       -2 0.90682982E-01 0.26177303E+02</pdfrwt>
<totfact> 0.26400800E+01</totfact>
</mgrwt>
</event>
<event>
 5    1  0.9399923E-003  0.1122589E+03  0.7546771E-02  0.1359482E+00
          1   -1    0    0  501    0 -0.00000000000E+00  0.00000000000E+00  0.24471371996E+04  0.24471371996E+04  0.00000000000E+00 0. -1.
          2   -1    0    0  502    0  0.00000000000E+00 -0.00000000000E+00 -0.53745666278E+03  0.53745666278E+03  0.00000000000E+00 0. -1.
         25    1    1    2    0    0 -0.69224084624E+02 -0.10218563906E+03  0.13284885669E+04  0.13400525181E+04  0.12500000000E+03 0.  0.
          2    1    1    2  501    0  0.25559150319E+02  0.10646136440E+03  0.11092618408E+04  0.11146520192E+04  0.00000000000E+00 0. -1.
          1    1    1    2  502    0  0.43664934306E+02 -0.42757253403E+01 -0.52806987094E+03  0.52988932515E+03  0.00000000000E+00 0. -1.
<mgrwt>
<rscale>  0 0.70179918E+02</rscale>
<asrwt>0</asrwt>
<pdfrwt beam="2">  1        2 0.82685642E-01 0.43873777E+02</pdfrwt>
<pdfrwt beam="1">  1        1 0.37648264E+00 0.11225887E+03</pdfrwt>
<totfact> 0.15742606E+01</totfact>
</mgrwt>
</event>
<event>
 5    1  0.9399923E-003  0.6332671E+02  0.7546771E-02  0.1432599E+00
          2   -1    0    0  502    0  0.00000000000E+00  0.00000000000E+00  0.13900445245E+04  0.13900445245E+04  0.00000000000E+00 0. -1.
          1   -1    0    0  501    0 -0.00000000000E+00 -0.00000000000E+00 -0.79245059957E+03  0.79245059957E+03  0.00000000000E+00 0. -1.
         25    1    1    2    0    0 -0.31203537520E+02  0.50951352116E+02  0.39377473273E+02  0.14403224097E+03  0.12500000000E+03 0.  0.
          2    1    1    2  501    0 -0.29471348483E+02 -0.31897195533E+02 -0.73870632482E+03  0.73998177396E+03  0.00000000000E+00 0. -1.
          1    1    1    2  502    0  0.60674886003E+02 -0.19054156583E+02  0.12969227764E+04  0.12984811091E+04  0.00000000000E+00 0. -1.
<mgrwt>
<rscale>  0 0.52441895E+02</rscale>
<asrwt>0</asrwt>
<pdfrwt beam="1">  1        2 0.21385300E+00 0.63326706E+02</pdfrwt>
<pdfrwt beam="2">  1        1 0.12191548E+00 0.43428003E+02</pdfrwt>
<totfact> 0.61289307E+01</totfact>
</mgrwt>
</event>
<event>
 5    1  0.9399923E-003  0.8414033E+02  0.7546771E-02  0.1334296E+00
          1   -1    0    0  501    0 -0.00000000000E+00  0.00000000000E+00  0.46874088398E+03  0.46874088398E+03  0.00000000000E+00 0. -1.
          2   -1    0    0  502    0  0.00000000000E+00 -0.00000000000E+00 -0.28346706240E+04  0.28346706240E+04  0.00000000000E+00 0. -1.
         25    1    1    2    0    0  0.93018850689E+02  0.11431085191E+03 -0.22442654842E+03  0.29616170091E+03  0.12500000000E+03 0.  0.
          2    1    1    2  501    0 -0.23567867018E+02 -0.68713113977E+02  0.42914984107E+03  0.43525454907E+03  0.00000000000E+00 0. -1.
          1    1    1    2  502    0 -0.69450983672E+02 -0.45597737933E+02 -0.25706530326E+04  0.25719952580E+04  0.00000000000E+00 0. -1.
<mgrwt>
<rscale>  0 0.78180342E+02</rscale>
<asrwt>0</asrwt>
<pdfrwt beam="2">  1        2 0.43610317E+00 0.84140329E+02</pdfrwt>
<pdfrwt beam="1">  1        1 0.72113983E-01 0.72642525E+02</pdfrwt>
<totfact> 0.21435971E+01</totfact>
</mgrwt>
</event>
<event>
 5    1  0.9399923E-003  0.1414372E+03  0.7546771E-02  0.1337360E+00
         -1   -1    0    0    0  501 -0.00000000000E+00  0.00000000000E+00  0.13002399972E+03  0.13002399972E+03  0.00000000000E+00 0.  1.
          1   -1    0    0  502    0  0.00000000000E+00 -0.00000000000E+00 -0.80077597721E+03  0.80077597721E+03  0.00000000000E+00 0. -1.
         25    1    1    2    0    0 -0.99786828528E+02  0.77170819114E+02 -0.38449096001E+03  0.42352218927E+03  0.12500000000E+03 0.  0.
          2    1    1    2  502    0 -0.34063243655E+02 -0.24699417453E+02 -0.34820174194E+03  0.35073468446E+03  0.00000000000E+00 0. -1.
         -2    1    1    2    0  501  0.13385007218E+03 -0.52471401661E+02  0.61940724461E+02  0.15654310321E+03  0.00000000000E+00 0.  1.
<mgrwt>
<rscale>  0 0.77143184E+02</rscale>
<asrwt>0</asrwt>
<pdfrwt beam="2">  1        1 0.12319630E+00 0.42075715E+02</pdfrwt>
<pdfrwt beam="1">  1       -1 0.20003692E-01 0.14143719E+03</pdfrwt>
<totfact> 0.50198275E+02</totfact>
</mgrwt>
</event>
<event>
 5    1  0.9399923E-003  0.1264122E+03  0.7546771E-02  0.1310786E+00
          2   -1    0    0  502    0  0.00000000000E+00  0.00000000000E+00  0.70676513794E+03  0.70676513794E+03  0.00000000000E+00 0. -1.
          1   -1    0    0  501    0 -0.00000000000E+00 -0.00000000000E+00 -0.11658994956E+04  0.11658994956E+04  0.00000000000E+00 0. -1.
         25    1    1    2    0    0  0.28169972967E+02 -0.11952696641E+03 -0.14569116906E+03  0.22788409295E+03  0.12500000000E+03 0.  0.
          2    1    1    2  501    0  0.54807476329E+02  0.23424580512E+02 -0.97213639936E+03  0.97396188293E+03  0.00000000000E+00 0. -1.
          1    1    1    2  502    0 -0.82977449296E+02  0.96102385902E+02  0.65869321072E+03  0.67081865770E+03  0.00000000000E+00 0. -1.
<mgrwt>
<rscale>  0 0.86802077E+02</rscale>
<asrwt>0</asrwt>
<pdfrwt beam="1">  1        2 0.10873310E+00 0.12641217E+03</pdfrwt>
<pdfrwt beam="2">  1        1 0.17936915E+00 0.59603443E+02</pdfrwt>
<totfact> 0.78947599E+01</totfact>
</mgrwt>
</event>
<event>
 5    1  0.9399923E-003  0.1338864E+03  0.7546771E-02  0.1315010E+00
         -2   -1    0    0    0  501 -0.00000000000E+00  0.00000000000E+00  0.14147521420E+03  0.14147521420E+03  0.00000000000E+00 0.  1.
          2   -1    0    0  502    0  0.00000000000E+00 -0.00000000000E+00 -0.71546786848E+03  0.71546786848E+03  0.00000000000E+00 0. -1.
         25    1    1    2    0    0 -0.79868475144E+02 -0.62268020136E+02 -0.23306397581E+03  0.28319621550E+03  0.12500000000E+03 0.  0.
          1    1    1    2  502    0  0.19943835817E+01 -0.54132520084E+02 -0.41279626176E+03  0.41633527477E+03  0.00000000000E+00 0. -1.
         -1    1    1    2    0  501  0.77874091562E+02  0.11640054022E+03  0.71867583275E+02  0.15741159241E+03  0.00000000000E+00 0.  1.
<mgrwt>
<rscale>  0 0.85161756E+02</rscale>
<asrwt>0</asrwt>
<pdfrwt beam="2">  1        2 0.11007198E+00 0.54169247E+02</pdfrwt>
<pdfrwt beam="1">  1       -2 0.21765418E-01 0.13388639E+03</pdfrwt>
<totfact> 0.76719512E+02</totfact>
</mgrwt>
</event>
<event>
 5    1  0.9399923E-003  0.9410595E+02  0.7546771E-02  0.1406019E+00
          2   -1    0    0  502    0  0.00000000000E+00  0.00000000000E+00  0.12483421398E+04  0.12483421398E+04  0.00000000000E+00 0. -1.
          1   -1    0    0  501    0 -0.00000000000E+00 -0.00000000000E+00 -0.16839454620E+03  0.16839454620E+03  0.00000000000E+00 0. -1.
         25    1    1    2    0    0  0.13683514874E+02 -0.84575674916E+02  0.23029888906E+03  0.27568616518E+03  0.12500000000E+03 0.  0.
          2    1    1    2  501    0 -0.49379208102E+02  0.81147400961E+02 -0.12985545038E+03  0.16089016399E+03  0.00000000000E+00 0. -1.
          1    1    1    2  502    0  0.35695693228E+02  0.34282739552E+01  0.97950415494E+03  0.98016035684E+03  0.00000000000E+00 0. -1.
<mgrwt>
<rscale>  0 0.58091600E+02</rscale>
<asrwt>0</asrwt>
<pdfrwt beam="1">  1        2 0.19205263E+00 0.35859944E+02</pdfrwt>
<pdfrwt beam="2">  1        1 0.25906854E-01 0.94105947E+02</pdfrwt>
<totfact> 0.52318764E+02</totfact>
</mgrwt>
</event>
<event>
 5    1  0.9399923E-003  0.8064086E+02  0.7546771E-02  0.1484802E+00
         -1   -1    0    0    0  501 -0.00000000000E+00  0.00000000000E+00  0.46065818792E+02  0.46065818792E+02  0.00000000000E+00 0.  1.
          1   -1    0    0  502    0  0.00000000000E+00 -0.00000000000E+00 -0.22854002464E+04  0.22854002464E+04  0.00000000000E+00 0. -1.
         25    1    1    2    0    0 -0.31642179306E+02 -0.95643806738E+02 -0.35514918793E+03  0.38974980560E+03  0.12500000000E+03 0.  0.
          2    1    1    2  502    0  0.16392512343E+02  0.77998658137E+02 -0.19072505379E+04  0.19089151682E+04  0.00000000000E+00 0. -1.
         -2    1    1    2    0  501  0.15249666963E+02  0.17645148601E+02  0.23065298237E+02  0.32801091360E+02  0.00000000000E+00 0.  1.
<mgrwt>
<rscale>  0 0.43366869E+02</rscale>
<asrwt>0</asrwt>
<pdfrwt beam="2">  1        1 0.35160007E+00 0.80640861E+02</pdfrwt>
<pdfrwt beam="1">  1       -1 0.70870484E-02 0.23321741E+02</pdfrwt>
<totfact> 0.21594322E+02</totfact>
</mgrwt>
</event>
<event>
 5    1  0.9399923E-003  0.1155293E+03  0.7546771E-02  0.1336654E+00
          1   -1    0    0  501    0 -0.00000000000E+00  0.00000000000E+00  0.24132941487E+04  0.24132941487E+04  0.00000000000E+00 0. -1.
          2   -1    0    0  502    0  0.00000000000E+00 -0.00000000000E+00 -0.17373622044E+03  0.17373622044E+03  0.00000000000E+00 0. -1.
         25    1    1    2    0    0 -0.78367552299E+02 -0.10291132797E+03  0.62279420497E+03  0.64825136824E+03  0.12500000000E+03 0.  0.
          2    1    1    2  501    0  0.51002856254E+02 -0.92163534438E+01  0.17566554427E+04  0.17574198636E+04  0.00000000000E+00 0. -1.
          1    1    1    2  502    0  0.27364696045E+02  0.11212768141E+03 -0.13989171942E+03  0.18135913732E+03  0.00000000000E+00 0. -1.
<mgrwt>
<rscale>  0 0.77380574E+02</rscale>
<asrwt>0</asrwt>
<pdfrwt beam="2">  1        2 0.26728651E-01 0.11552929E+03</pdfrwt>
<pdfrwt beam="1">  1        1 0.37127600E+00 0.51828877E+02</pdfrwt>
<totfact> 0.61082405E+01</totfact>
</mgrwt>
</event>
<event>
 5    1  0.9399923E-003  0.1664249E+03  0.7546771E-02  0.1384765E+00
         -2   -1    0    0    0  501 -0.00000000000E+00  0.00000000000E+00  0.19716857467E+03  0.19716857467E+03  0.00000000000E+00 0.  1.
          2   -1    0    0  502    0  0.00000000000E+00 -0.00000000000E+00 -0.17095691964E+04  0.17095691964E+04  0.00000000000E+00 0. -1.
         25    1    1    2    0    0 -0.13789390921E+03 -0.12497786818E+03 -0.24080011253E+03  0.32900439500E+03  0.12500000000E+03 0.  0.
          1    1    1    2  502    0  0.11920144899E+02  0.20855015166E+02 -0.13809062811E+04  0.13811151938E+04  0.00000000000E+00 0. -1.
         -1    1    1    2    0  501  0.12597376431E+03  0.10412285302E+03  0.10930577189E+03  0.19661818223E+03  0.00000000000E+00 0.  1.
<mgrwt>
<rscale>  0 0.63227669E+02</rscale>
<asrwt>0</asrwt>
<pdfrwt beam="2">  1        2 0.26301065E+00 0.24021272E+02</pdfrwt>
<pdfrwt beam="1">  1       -2 0.30333627E-01 0.16642491E+03</pdfrwt>
<totfact> 0.13396426E+02</totfact>
</mgrwt>
</event>
<event>
 5    1  0.9399923E-003  0.8948247E+02  0.7546771E-02  0.1470081E+00
          2   -1    0    0  502    0  0.00000000000E+00  0.00000000000E+00  0.11597801170E+04  0.11597801170E+04  0.00000000000E+00 0. -1.
          1   -1    0    0  501    0 -0.00000000000E+00 -0.00000000000E+00 -0.44604493250E+03  0.44604493250E+03  0.00000000000E+00 0. -1.
         25    1    1    2    0    0 -0.46307524201E+01 -0.77535757470E+02  0.30049967676E+02  0.15020398834E+03  0.12500000000E+03 0.  0.
          2    1    1    2  501    0 -0.21753849045E+02 -0.84275016407E+01 -0.38372321131E+03  0.38443173078E+03  0.00000000000E+00 0. -1.
          1    1    1    2  502    0  0.26384601465E+02  0.85963259111E+02  0.10674084282E+04  0.10711893304E+04  0.00000000000E+00 0. -1.
<mgrwt>
<rscale>  0 0.45689789E+02</rscale>
<asrwt>0</asrwt>
<pdfrwt beam="1">  1        2 0.17842771E+00 0.89482475E+02</pdfrwt>
<pdfrwt beam="2">  1        1 0.68622298E-01 0.23329225E+02</pdfrwt>
<totfact> 0.16888542E+02</totfact>
</mgrwt>
</event>
<event>
 5    1  0.9399923E-003  0.7426376E+02  0.7546771E-02  0.1421164E+00
          2   -1    0    0  502    0  0.00000000000E+00  0.00000000000E+00  0.69438631585E+03  0.69438631585E+03  0.00000000000E+00 0. -1.
         -2   -1    0    0    0  501 -0.00000000000E+00 -0.00000000000E+00 -0.23809894328E+03  0.23809894328E+03  0.00000000000E+00 0.  1.
         25    1    1    2    0    0  0.25192950587E+02  0.26222512406E+02 -0.10488342570E+03  0.16717606857E+03  0.12500000000E+03 0.  0.
          1    1    1    2  502    0 -0.63008788162E+02 -0.40443176566E+02  0.65703089979E+03  0.66128311727E+03  0.00000000000E+00 0. -1.
         -1    1    1    2    0  501  0.37815837576E+02  0.14220664161E+02 -0.95860101525E+02  0.10402607329E+03  0.00000000000E+00 0.  1.
<mgrwt>
<rscale>  0 0.54775472E+02</rscale>
<asrwt>0</asrwt>
<pdfrwt beam="1">  1        2 0.10682866E+00 0.74263762E+02</pdfrwt>
<pdfrwt beam="2">  1       -2 0.36630607E-01 0.40401298E+02</pdfrwt>
<totfact> 0.30472772E+02</totfact>
</mgrwt>
</event>
<event>
 5    1  0.9399923E-003  0.4963135E+02  0.7546771E-02  0.1512595E+00
         -2   -1    0    0    0  501 -0.00000000000E+00  0.00000000000E+00  0.69810195225E+02  0.69810195225E+02  0.00000000000E+00 0.  1.
          2   -1    0    0  502    0  0.00000000000E+00 -0.00000000000E+00 -0.59974287819E+03  0.59974287819E+03  0.00000000000E+00 0. -1.
         25    1    1    2    0    0 -0.53865781990E+02  0.36386343637E+02 -0.99946484145E+02  0.17274196990E+03  0.12500000000E+03 0.  0.
          1    1    1    2  502    0  0.49024342735E+02 -0.54686646465E+01 -0.45443135096E+03  0.45710080421E+03  0.00000000000E+00 0. -1.
         -1    1    1    2    0  501  0.48414392545E+01 -0.30917678991E+02  0.24445152135E+02  0.39710299308E+02  0.00000000000E+00 0.  1.
<mgrwt>
<rscale>  0 0.39410478E+02</rscale>
<asrwt>0</asrwt>
<pdfrwt beam="2">  1        2 0.92268134E-01 0.49631354E+02</pdfrwt>
<pdfrwt beam="1">  1       -2 0.10740030E-01 0.31294447E+02</pdfrwt>
<totfact> 0.26793586E+03</totfact>
</mgrwt>
</event>
<event>
 5    1  0.9399923E-003  0.1154796E+03  0.7546771E-02  0.1308833E+00
          1   -1    0    0  502    0  0.00000000000E+00  0.00000000000E+00  0.44649276926E+03  0.44649276926E+03  0.00000000000E+00 0. -1.
         -1   -1    0    0    0  501 -0.00000000000E+00 -0.00000000000E+00 -0.17563107287E+03  0.17563107287E+03  0.00000000000E+00 0.  1.
         25    1    1    2    0    0 -0.15179245400E+03  0.80287661246E+02  0.22080039681E+03  0.30637374703E+03  0.12500000000E+03 0.  0.
          2    1    1    2  502    0  0.65453277896E+02 -0.11251982969E+02  0.15168746519E+03  0.16558932877E+03  0.00000000000E+00 0. -1.
         -2    1    1    2    0  501  0.86339176108E+02 -0.69035678277E+02 -0.10162616561E+03  0.15016076633E+03  0.00000000000E+00 0.  1.
<mgrwt>
<rscale>  0 0.87575059E+02</rscale>
<asrwt>0</asrwt>
<pdfrwt beam="1">  1        1 0.68691195E-01 0.66413393E+02</pdfrwt>
<pdfrwt beam="2">  1       -1 0.27020165E-01 0.11547958E+03</pdfrwt>
<totfact> 0.65095329E+02</totfact>
</mgrwt>
</event>
<event>
 5    1  0.9399923E-003  0.1730717E+03  0.7546771E-02  0.1331643E+00
          2   -1    0    0  502    0  0.00000000000E+00  0.00000000000E+00  0.14047031795E+03  0.14047031795E+03  0.00000000000E+00 0. -1.
          1   -1    0    0  501    0 -0.00000000000E+00 -0.00000000000E+00 -0.24500258043E+04  0.24500258043E+04  0.00000000000E+00 0. -1.
         25    1    1    2    0    0 -0.88585033355E+01  0.19104364523E+03 -0.15538553243E+04  0.15705628024E+04  0.12500000000E+03 0.  0.
          2    1    1    2  501    0  0.30202099319E+02 -0.19858293119E+02 -0.83094202149E+03  0.83172781706E+03  0.00000000000E+00 0. -1.
          1    1    1    2  502    0 -0.21343595984E+02 -0.17118535211E+03  0.75241859427E+02  0.18820550278E+03  0.00000000000E+00 0. -1.
<mgrwt>
<rscale>  0 0.79093708E+02</rscale>
<asrwt>0</asrwt>
<pdfrwt beam="1">  1        2 0.21610818E-01 0.17307171E+03</pdfrwt>
<pdfrwt beam="2">  1        1 0.37692705E+00 0.36145797E+02</pdfrwt>
<totfact> 0.78626300E+01</totfact>
</mgrwt>
</event>
<event>
 5    1  0.9399923E-003  0.1557884E+03  0.7546771E-02  0.1396244E+00
          2   -1    0    0  502    0  0.00000000000E+00  0.00000000000E+00  0.23900451277E+03  0.23900451277E+03  0.00000000000E+00 0. -1.
          1   -1    0    0  501    0 -0.00000000000E+00 -0.00000000000E+00 -0.32861989706E+03  0.32861989706E+03  0.00000000000E+00 0. -1.
         25    1    1    2    0    0  0.79944779776E+02  0.14593403983E+03  0.10715162794E+03  0.23408200094E+03  0.12500000000E+03 0.  0.
          2    1    1    2  501    0 -0.13339627466E+02 -0.19227595619E+02 -0.18872536009E+03  0.19017073286E+03  0.00000000000E+00 0. -1.
          1    1    1    2  502    0 -0.66605152311E+02 -0.12670644421E+03 -0.80416521433E+01  0.14337167603E+03  0.00000000000E+00 0. -1.
<mgrwt>
<rscale>  0 0.60379918E+02</rscale>
<asrwt>0</asrwt>
<pdfrwt beam="1">  1        2 0.36769925E-01 0.15578837E+03</pdfrwt>
<pdfrwt beam="2">  1        1 0.50556907E-01 0.23401840E+02</pdfrwt>
<totfact> 0.14794338E+03</totfact>
</mgrwt>
</event>
<event>
 5    1  0.9399923E-003  0.3422682E+02  0.7546771E-02  0.1582993E+00
          1   -1    0    0  501    0 -0.00000000000E+00  0.00000000000E+00  0.52869971841E+03  0.52869971841E+03  0.00000000000E+00 0. -1.
          2   -1    0    0  502    0  0.00000000000E+00 -0.00000000000E+00 -0.36508495536E+03  0.36508495536E+03  0.00000000000E+00 0. -1.
         25    1    1    2    0    0  0.17979730734E+02  0.47621569981E+02  0.16335769371E+03  0.21190049726E+03  0.12500000000E+03 0.  0.
          2    1    1    2  501    0 -0.25096753336E+02 -0.14183391146E+02  0.33960108972E+03  0.34082241087E+03  0.00000000000E+00 0. -1.
          1    1    1    2  502    0  0.71170226019E+01 -0.33438178835E+02 -0.33934402037E+03  0.34106176564E+03  0.00000000000E+00 0. -1.
<mgrwt>
<rscale>  0 0.31411277E+02</rscale>
<asrwt>0</asrwt>
<pdfrwt beam="2">  1        2 0.56166916E-01 0.34226823E+02</pdfrwt>
<pdfrwt beam="1">  1        1 0.81338419E-01 0.28827341E+02</pdfrwt>
<totfact> 0.53397344E+02</totfact>
</mgrwt>
</event>
<event>
 5    1  0.9399923E-003  0.9996055E+02  0.7546771E-02  0.1315380E+00
          2   -1    0    0  502    0  0.00000000000E+00  0.00000000000E+00  0.70664629097E+03  0.70664629097E+03  0.00000000000E+00 0. -1.
          1   -1    0    0  501    0 -0.00000000000E+00 -0.00000000000E+00 -0.71279849232E+03  0.71279849232E+03  0.00000000000E+00 0. -1.
         25    1    1    2    0    0  0.12761244178E+03  0.67286773437E+02 -0.14216579706E+03  0.23800957760E+03  0.12500000000E+03 0.  0.
          2    1    1    2  501    0 -0.97049986061E+02 -0.17503020262E+01 -0.51618903457E+03  0.52523602577E+03  0.00000000000E+00 0. -1.
          1    1    1    2  502    0 -0.30562455723E+02 -0.65536471411E+02  0.65220263028E+03  0.65619917992E+03  0.00000000000E+00 0. -1.
<mgrwt>
<rscale>  0 0.85019960E+02</rscale>
<asrwt>0</asrwt>
<pdfrwt beam="1">  1        2 0.10871481E+00 0.72312466E+02</pdfrwt>
<pdfrwt beam="2">  1        1 0.10966131E+00 0.99960547E+02</pdfrwt>
<totfact> 0.16939064E+02</totfact>
</mgrwt>
</event>
<event>
 5    1  0.9399923E-003  0.1562332E+03  0.7546771E-02  0.1264671E+00
          1   -1    0    0  501    0 -0.00000000000E+00  0.00000000000E+00  0.22938275661E+03  0.22938275661E+03  0.00000000000E+00 0. -1.
          2   -1    0    0  502    0  0.00000000000E+00 -0.00000000000E+00 -0.13133848897E+04  0.13133848897E+04  0.00000000000E+00 0. -1.
         25    1    1    2    0    0  0.15630855123E+02  0.13363813477E+03 -0.24157638970E+03  0.30345943181E+03  0.12500000000E+03 0.  0.
          2    1    1    2  501    0 -0.71729252598E+02  0.19763006462E+02  0.18478036652E+03  0.19919700287E+03  0.00000000000E+00 0. -1.
          1    1    1    2  502    0  0.56098397476E+02 -0.15340114123E+03 -0.10272061099E+04  0.10401112116E+04  0.00000000000E+00 0. -1.
<mgrwt>
<rscale>  0 0.10781497E+03</rscale>
<asrwt>0</asrwt>
<pdfrwt beam="2">  1        2 0.20205922E+00 0.15623321E+03</pdfrwt>
<pdfrwt beam="1">  1        1 0.35289654E-01 0.74402030E+02</pdfrwt>
<totfact> 0.29744029E+02</totfact>
</mgrwt>
</event>
<event>
 5    1  0.9399923E-003  0.5183159E+02  0.7546771E-02  0.1524417E+00
         -1   -1    0    0    0  501 -0.00000000000E+00  0.00000000000E+00  0.79666410184E+03  0.79666410184E+03  0.00000000000E+00 0.  1.
          1   -1    0    0  502    0  0.00000000000E+00 -0.00000000000E+00 -0.88045055334E+03  0.88045055334E+03  0.00000000000E+00 0. -1.
         25    1    1    2    0    0  0.42441006278E+02 -0.77800817113E+01  0.72759454361E+03  0.73951375145E+03  0.12500000000E+03 0.  0.
          2    1    1    2  502    0 -0.38134919907E+02  0.35127112427E+02 -0.87064619867E+03  0.87218862032E+03  0.00000000000E+00 0. -1.
         -2    1    1    2    0  501 -0.43060863715E+01 -0.27347030716E+02  0.59265203563E+02  0.65412283420E+02  0.00000000000E+00 0.  1.
<mgrwt>
<rscale>  0 0.37880134E+02</rscale>
<asrwt>0</asrwt>
<pdfrwt beam="2">  1        1 0.13545393E+00 0.51831594E+02</pdfrwt>
<pdfrwt beam="1">  1       -1 0.12256371E+00 0.27683975E+02</pdfrwt>
<totfact> 0.15678216E+01</totfact>
</mgrwt>
</event>
<event>
 5    1  0.9399923E-003  0.1932676E+03  0.7546771E-02  0.1280353E+00
          2   -1    0    0  502    0  0.00000000000E+00  0.00000000000E+00  0.11043514476E+04  0.11043514476E+04  0.00000000000E+00 0. -1.
         -2   -1    0    0    0  501 -0.00000000000E+00 -0.00000000000E+00 -0.39786025438E+03  0.39786025438E+03  0.00000000000E+00 0.  1.
         25    1    1    2    0    0 -0.61506361923E+02 -0.15287999455E+03  0.88748395114E+02  0.22507021777E+03  0.12500000000E+03 0.  0.
          1    1    1    2  502    0  0.27786912514E+02 -0.43614386172E+02  0.91650759770E+03  0.91796541538E+03  0.00000000000E+00 0. -1.
         -1    1    1    2    0  501  0.33719449409E+02  0.19649438073E+03 -0.29876479961E+03  0.35917606882E+03  0.00000000000E+00 0.  1.
<mgrwt>
<rscale>  0 0.99973099E+02</rscale>
<asrwt>0</asrwt>
<pdfrwt beam="1">  1        2 0.16990022E+00 0.51713897E+02</pdfrwt>
<pdfrwt beam="2">  1       -2 0.61209270E-01 0.19326759E+03</pdfrwt>
<totfact> 0.64485100E+01</totfact>
</mgrwt>
</event>
<event>
 5    1  0.9399923E-003  0.6694805E+02  0.7546771E-02  0.1424247E+00
          1   -1    0    0  501    0 -0.00000000000E+00  0.00000000000E+00  0.90484637187E+03  0.90484637187E+03  0.00000000000E+00 0. -1.
          2   -1    0    0  502    0  0.00000000000E+00 -0.00000000000E+00 -0.43405463749E+03  0.43405463749E+03  0.00000000000E+00 0. -1.
         25    1    1    2    0    0 -0.71151178057E+02  0.13821819638E+02 -0.52938966048E+01  0.14459100310E+03  0.12500000000E+03 0.  0.
          2    1    1    2  501    0  0.25462241574E+02  0.35601777681E+02  0.83146338792E+03  0.83261466344E+03  0.00000000000E+00 0. -1.
          1    1    1    2  502    0  0.45688936483E+02 -0.49423597320E+02 -0.35537775694E+03  0.36169534282E+03  0.00000000000E+00 0. -1.
<mgrwt>
<rscale>  0 0.54132392E+02</rscale>
<asrwt>0</asrwt>
<pdfrwt beam="2">  1        2 0.66777637E-01 0.66948053E+02</pdfrwt>
<pdfrwt beam="1">  1        1 0.13920713E+00 0.43769993E+02</pdfrwt>
<totfact> 0.21238599E+02</totfact>
</mgrwt>
</event>
<event>
 5    1  0.9399923E-003  0.1206312E+03  0.7546771E-02  0.1326546E+00
         -2   -1    0    0    0  501 -0.00000000000E+00  0.00000000000E+00  0.26741644344E+03  0.26741644344E+03  0.00000000000E+00 0.  1.
          2   -1    0    0  502    0  0.00000000000E+00 -0.00000000000E+00 -0.15083128897E+04  0.15083128897E+04  0.00000000000E+00 0. -1.
         25    1    1    2    0    0  0.63703736712E+01  0.88393226934E+02 -0.37553791045E+03  0.40559544674E+03  0.12500000000E+03 0.  0.
          1    1    1    2  502    0 -0.47217462148E+02  0.26693297631E+02 -0.11022679074E+04  0.11036016312E+04  0.00000000000E+00 0. -1.
         -3    1    1    2    0  501  0.40847088477E+02 -0.11508652456E+03  0.23690937150E+03  0.26653225523E+03  0.00000000000E+00 0.  1.
<mgrwt>
<rscale>  0 0.80889344E+02</rscale>
<asrwt>0</asrwt>
<pdfrwt beam="2">  1        2 0.23204813E+00 0.54240399E+02</pdfrwt>
<pdfrwt beam="1">  1       -2 0.41140992E-01 0.12063123E+03</pdfrwt>
<totfact> 0.87586140E+01</totfact>
</mgrwt>
</event>
<event>
 5    1  0.9399923E-003  0.5997346E+02  0.7546771E-02  0.1490541E+00
          1   -1    0    0  501    0 -0.00000000000E+00  0.00000000000E+00  0.17126472164E+02  0.17126472164E+02  0.00000000000E+00 0. -1.
          2   -1    0    0  502    0  0.00000000000E+00 -0.00000000000E+00 -0.31386113756E+04  0.31386113756E+04  0.00000000000E+00 0. -1.
         25    1    1    2    0    0  0.59665418680E+02 -0.50090732018E+02 -0.22928026502E+04  0.22975286802E+04  0.12500000000E+03 0.  0.
          2    1    1    2  501    0 -0.10193536521E+02  0.28348840663E+02 -0.24648849032E+01  0.30226488571E+02  0.00000000000E+00 0. -1.
          1    1    1    2  502    0 -0.49471882159E+02  0.21741891355E+02 -0.82621736841E+03  0.82798267906E+03  0.00000000000E+00 0. -1.
<mgrwt>
<rscale>  0 0.42505876E+02</rscale>
<asrwt>0</asrwt>
<pdfrwt beam="2">  1        2 0.48286313E+00 0.59973457E+02</pdfrwt>
<pdfrwt beam="1">  1        1 0.26348427E-02 0.30125819E+02</pdfrwt>
<totfact> 0.93364487E+02</totfact>
</mgrwt>
</event>
<event>
 5    1  0.9399923E-003  0.7064551E+02  0.7546771E-02  0.1365707E+00
          1   -1    0    0  501    0 -0.00000000000E+00  0.00000000000E+00  0.37353286292E+02  0.37353286292E+02  0.00000000000E+00 0. -1.
          2   -1    0    0  502    0  0.00000000000E+00 -0.00000000000E+00 -0.30823272403E+04  0.30823272403E+04  0.00000000000E+00 0. -1.
         25    1    1    2    0    0  0.61277792240E+02  0.75021870729E+02 -0.40034526914E+03  0.43044695774E+03  0.12500000000E+03 0.  0.
          2    1    1    2  501    0 -0.66020177150E+02 -0.45687970317E+01 -0.28337967281E+02  0.71990124926E+02  0.00000000000E+00 0. -1.
          1    1    1    2  502    0  0.47423849098E+01 -0.70453073697E+02 -0.26162907176E+04  0.26172434439E+04  0.00000000000E+00 0. -1.
<mgrwt>
<rscale>  0 0.68375314E+02</rscale>
<asrwt>0</asrwt>
<pdfrwt beam="2">  1        2 0.47420428E+00 0.70645505E+02</pdfrwt>
<pdfrwt beam="1">  1        1 0.57466584E-02 0.66178076E+02</pdfrwt>
<totfact> 0.38304973E+02</totfact>
</mgrwt>
</event>
<event>
 5    1  0.9399923E-003  0.1339694E+03  0.7546771E-02  0.1281275E+00
          1   -1    0    0  501    0 -0.00000000000E+00  0.00000000000E+00  0.31496525964E+03  0.31496525964E+03  0.00000000000E+00 0. -1.
          2   -1    0    0  502    0  0.00000000000E+00 -0.00000000000E+00 -0.96953605750E+03  0.96953605750E+03  0.00000000000E+00 0. -1.
         25    1    1    2    0    0  0.10481413473E+02 -0.19519652526E+03 -0.12951138446E+03  0.26572493712E+03  0.12500000000E+03 0.  0.
          2    1    1    2  501    0  0.23037992212E+02  0.70272377466E+02  0.23573645921E+03  0.24706402879E+03  0.00000000000E+00 0. -1.
          1    1    1    2  502    0 -0.33519405685E+02  0.12492414779E+03 -0.76079587261E+03  0.77171235123E+03  0.00000000000E+00 0. -1.
<mgrwt>
<rscale>  0 0.99535712E+02</rscale>
<asrwt>0</asrwt>
<pdfrwt beam="2">  1        2 0.14915939E+00 0.13396941E+03</pdfrwt>
<pdfrwt beam="1">  1        1 0.48456194E-01 0.73952391E+02</pdfrwt>
<totfact> 0.32043335E+02</totfact>
</mgrwt>
</event>
<event>
 5    1  0.9399923E-003  0.6213798E+02  0.7546771E-02  0.1497353E+00
          2   -1    0    0  502    0  0.00000000000E+00  0.00000000000E+00  0.30001556124E+03  0.30001556124E+03  0.00000000000E+00 0. -1.
          1   -1    0    0  501    0 -0.00000000000E+00 -0.00000000000E+00 -0.16287379087E+04  0.16287379087E+04  0.00000000000E+00 0. -1.
         25    1    1    2    0    0  0.60874434567E+01 -0.42195808184E+02 -0.27936208565E+03  0.30900763436E+03  0.12500000000E+03 0.  0.
          2    1    1    2  501    0 -0.20691200977E+02 -0.18470564210E+02 -0.13309936408E+04  0.13312825993E+04  0.00000000000E+00 0. -1.
          1    1    1    2  502    0  0.14603757520E+02  0.60666372394E+02  0.28163337900E+03  0.28846323620E+03  0.00000000000E+00 0. -1.
<mgrwt>
<rscale>  0 0.41514589E+02</rscale>
<asrwt>0</asrwt>
<pdfrwt beam="1">  1        2 0.46156240E-01 0.62137982E+02</pdfrwt>
<pdfrwt beam="2">  1        1 0.25057506E+00 0.27736033E+02</pdfrwt>
<totfact> 0.11111350E+02</totfact>
</mgrwt>
</event>
<event>
 5    1  0.9399923E-003  0.6768594E+02  0.7546771E-02  0.1402117E+00
         -2   -1    0    0    0  501 -0.00000000000E+00  0.00000000000E+00  0.13337239420E+04  0.13337239420E+04  0.00000000000E+00 0.  1.
          2   -1    0    0  502    0  0.00000000000E+00 -0.00000000000E+00 -0.11639080397E+04  0.11639080397E+04  0.00000000000E+00 0. -1.
         25    1    1    2    0    0 -0.44566682777E+02 -0.48867570437E+02 -0.62034727644E+02  0.15442647470E+03  0.12500000000E+03 0.  0.
          1    1    1    2  502    0  0.47807229370E+02 -0.18913438615E+02 -0.10541564020E+04  0.10554093847E+04  0.00000000000E+00 0. -1.
         -1    1    1    2    0  501 -0.32405465922E+01  0.67781009053E+02  0.12860070320E+04  0.12877961223E+04  0.00000000000E+00 0.  1.
<mgrwt>
<rscale>  0 0.58990729E+02</rscale>
<asrwt>0</asrwt>
<pdfrwt beam="2">  1        2 0.17906278E+00 0.51412541E+02</pdfrwt>
<pdfrwt beam="1">  1       -2 0.20518830E+00 0.67685939E+02</pdfrwt>
<totfact> 0.34763206E+00</totfact>
</mgrwt>
</event>
<event>
 5    1  0.9399923E-003  0.7854099E+02  0.7546771E-02  0.1445673E+00
          1   -1    0    0  501    0 -0.00000000000E+00  0.00000000000E+00  0.39311307274E+03  0.39311307274E+03  0.00000000000E+00 0. -1.
          2   -1    0    0  502    0  0.00000000000E+00 -0.00000000000E+00 -0.26206034695E+03  0.26206034695E+03  0.00000000000E+00 0. -1.
         25    1    1    2    0    0 -0.27782915585E+02 -0.40181512472E+02  0.20016262657E+03  0.24099070816E+03  0.12500000000E+03 0.  0.
          2    1    1    2  501    0 -0.25891049474E+02 -0.18381355042E+02  0.16444774513E+03  0.16748516810E+03  0.00000000000E+00 0. -1.
          1    1    1    2  502    0  0.53673965059E+02  0.58562867514E+02 -0.23355764591E+03  0.24669754344E+03  0.00000000000E+00 0. -1.
<mgrwt>
<rscale>  0 0.49938683E+02</rscale>
<asrwt>0</asrwt>
<pdfrwt beam="2">  1        2 0.40316977E-01 0.78540990E+02</pdfrwt>
<pdfrwt beam="1">  1        1 0.60478934E-01 0.31752491E+02</pdfrwt>
<totfact> 0.10788748E+03</totfact>
</mgrwt>
</event>
<event>
 5    1  0.9399923E-003  0.8683799E+02  0.7546771E-02  0.1317831E+00
          1   -1    0    0  501    0 -0.00000000000E+00  0.00000000000E+00  0.11589184709E+04  0.11589184709E+04  0.00000000000E+00 0. -1.
          2   -1    0    0  502    0  0.00000000000E+00 -0.00000000000E+00 -0.12922770886E+04  0.12922770886E+04  0.00000000000E+00 0. -1.
         25    1    1    2    0    0  0.76548365683E+02 -0.34939124991E+02  0.30782021775E+01  0.15071453172E+03  0.12500000000E+03 0.  0.
          2    1    1    2  501    0 -0.74495123486E+02 -0.46463274752E+02  0.10788764157E+04  0.10824429221E+04  0.00000000000E+00 0. -1.
          1    1    1    2  502    0 -0.20532421968E+01  0.81402399742E+02 -0.12153132355E+04  0.12180381057E+04  0.00000000000E+00 0. -1.
<mgrwt>
<rscale>  0 0.84089651E+02</rscale>
<asrwt>0</asrwt>
<pdfrwt beam="2">  1        2 0.19881186E+00 0.81428290E+02</pdfrwt>
<pdfrwt beam="1">  1        1 0.17829515E+00 0.86837995E+02</pdfrwt>
<totfact> 0.35208473E+01</totfact>
</mgrwt>
</event>
<event>
 5    1  0.1406648E-002  0.5820095E+02  0.7546771E-02  0.1432805E+00
         -3   -1    0    0    0  501 -0.00000000000E+00  0.00000000000E+00  0.90473281096E+02  0.90473281096E+02  0.00000000000E+00 0.  1.
          3   -1    0    0  502    0  0.00000000000E+00 -0.00000000000E+00 -0.24979811452E+03  0.24979811452E+03  0.00000000000E+00 0. -1.
         25    1    1    2    0    0  0.15143561694E+02 -0.84436719643E+02 -0.14533669525E+03  0.21001581386E+03  0.12500000000E+03 0.  0.
          2    1    1    2  502    0 -0.35149985161E+02  0.31469801456E+02 -0.45426286823E+02  0.65493643929E+02  0.00000000000E+00 0. -1.
         -2    1    1    2    0  501  0.20006423467E+02  0.52966918187E+02  0.31438148640E+02  0.64761937835E+02  0.00000000000E+00 0.  1.
<mgrwt>
<rscale>  0 0.52401048E+02</rscale>
<asrwt>0</asrwt>
<pdfrwt beam="2">  1        3 0.38430479E-01 0.47179125E+02</pdfrwt>
<pdfrwt beam="1">  1       -3 0.13918966E-01 0.58200949E+02</pdfrwt>
<totfact> 0.55491695E+02</totfact>
</mgrwt>
</event>
<event>
 5    1  0.9399923E-003  0.7674945E+02  0.7546771E-02  0.1340069E+00
          2   -1    0    0  502    0  0.00000000000E+00  0.00000000000E+00  0.14851023140E+04  0.14851023140E+04  0.00000000000E+00 0. -1.
         -2   -1    0    0    0  501 -0.00000000000E+00 -0.00000000000E+00 -0.20827111975E+04  0.20827111975E+04  0.00000000000E+00 0.  1.
         25    1    1    2    0    0 -0.23590117475E+02 -0.21341457023E+02  0.10986350036E+03  0.16943122540E+03  0.12500000000E+03 0.  0.
          1    1    1    2  502    0 -0.36212799965E+02  0.69446444434E+02  0.13435968215E+04  0.13458776298E+04  0.00000000000E+00 0. -1.
         -1    1    1    2    0  501  0.59802917441E+02 -0.48104987412E+02 -0.20510692054E+04  0.20525046563E+04  0.00000000000E+00 0.  1.
<mgrwt>
<rscale>  0 0.76241460E+02</rscale>
<asrwt>0</asrwt>
<pdfrwt beam="1">  1        2 0.22847728E+00 0.75736829E+02</pdfrwt>
<pdfrwt beam="2">  1       -2 0.32041711E+00 0.76749454E+02</pdfrwt>
<totfact> 0.50445979E-01</totfact>
</mgrwt>
</event>
<event>
 5    1  0.9399923E-003  0.2679048E+03  0.7546771E-02  0.1204122E+00
          2   -1    0    0  502    0  0.00000000000E+00  0.00000000000E+00  0.77115308535E+03  0.77115308535E+03  0.00000000000E+00 0. -1.
          1   -1    0    0  501    0 -0.00000000000E+00 -0.00000000000E+00 -0.57892123219E+03  0.57892123219E+03  0.00000000000E+00 0. -1.
         25    1    1    2    0    0  0.39225340064E+02  0.22958881807E+03  0.12439454855E+03  0.29214492362E+03  0.12500000000E+03 0.  0.
          2    1    1    2  501    0  0.27971097724E+02 -0.27433974277E+03 -0.45329223999E+03  0.53058319951E+03  0.00000000000E+00 0. -1.
          1    1    1    2  502    0 -0.67196437788E+02  0.44750924699E+02  0.52112954459E+03  0.52734619441E+03  0.00000000000E+00 0. -1.
<mgrwt>
<rscale>  0 0.14706826E+03</rscale>
<asrwt>0</asrwt>
<pdfrwt beam="1">  1        2 0.11863894E+00 0.80734172E+02</pdfrwt>
<pdfrwt beam="2">  1        1 0.89064805E-01 0.26790480E+03</pdfrwt>
<totfact> 0.19661345E+02</totfact>
</mgrwt>
</event>
<event>
 5    1  0.9399923E-003  0.1091078E+03  0.7546771E-02  0.1336849E+00
          2   -1    0    0  502    0  0.00000000000E+00  0.00000000000E+00  0.17843889432E+04  0.17843889432E+04  0.00000000000E+00 0. -1.
         -2   -1    0    0    0  501 -0.00000000000E+00 -0.00000000000E+00 -0.18774844891E+03  0.18774844891E+03  0.00000000000E+00 0.  1.
         25    1    1    2    0    0 -0.10473953214E+02 -0.10087620033E+03  0.62913660436E+03  0.64940247800E+03  0.12500000000E+03 0.  0.
          1    1    1    2  502    0  0.54783141622E+02  0.56701200708E+00  0.11274646860E+04  0.11287949912E+04  0.00000000000E+00 0. -1.
         -1    1    1    2    0  501 -0.44309188408E+02  0.10030918832E+03 -0.15996079601E+03  0.19393992291E+03  0.00000000000E+00 0.  1.
<mgrwt>
<rscale>  0 0.77314862E+02</rscale>
<asrwt>0</asrwt>
<pdfrwt beam="1">  1        2 0.27452136E+00 0.54786076E+02</pdfrwt>
<pdfrwt beam="2">  1       -2 0.28884378E-01 0.10910779E+03</pdfrwt>
<totfact> 0.12238126E+02</totfact>
</mgrwt>
</event>
<event>
 5    1  0.9399923E-003  0.5878365E+02  0.7546771E-02  0.1496054E+00
          2   -1    0    0  502    0  0.00000000000E+00  0.00000000000E+00  0.12051613595E+04  0.12051613595E+04  0.00000000000E+00 0. -1.
         -2   -1    0    0    0  501 -0.00000000000E+00 -0.00000000000E+00 -0.45757152697E+03  0.45757152697E+03  0.00000000000E+00 0.  1.
         25    1    1    2    0    0  0.14099185651E+02  0.26694751784E+02  0.23827173565E+02  0.13078276266E+03  0.12500000000E+03 0.  0.
          1    1    1    2  502    0  0.96939133432E+01  0.27949219323E+02  0.11254634176E+04  0.11258521373E+04  0.00000000000E+00 0. -1.
         -1    1    1    2    0  501 -0.23793098994E+02 -0.54643971107E+02 -0.40170075862E+03  0.40609798647E+03  0.00000000000E+00 0.  1.
<mgrwt>
<rscale>  0 0.41701004E+02</rscale>
<asrwt>0</asrwt>
<pdfrwt beam="1">  1        2 0.18540944E+00 0.29582610E+02</pdfrwt>
<pdfrwt beam="2">  1       -2 0.70395620E-01 0.58783648E+02</pdfrwt>
<totfact> 0.44759652E+01</totfact>
</mgrwt>
</event>
<event>
 5    1  0.9399923E-003  0.4457798E+02  0.7546771E-02  0.1487228E+00
          1   -1    0    0  501    0 -0.00000000000E+00  0.00000000000E+00  0.16673918747E+02  0.16673918747E+02  0.00000000000E+00 0. -1.
          2   -1    0    0  502    0  0.00000000000E+00 -0.00000000000E+00 -0.18012626547E+04  0.18012626547E+04  0.00000000000E+00 0. -1.
         25    1    1    2    0    0  0.60451580724E+02  0.99227792382E+01 -0.44102812822E+03  0.46247558318E+03  0.12500000000E+03 0.  0.
          2    1    1    2  501    0 -0.27073311874E+02 -0.34545985133E+02 -0.80239012571E+02  0.91458670682E+02  0.00000000000E+00 0. -1.
          1    1    1    2  502    0 -0.33378268850E+02  0.24623205895E+02 -0.12633215951E+04  0.12640023196E+04  0.00000000000E+00 0. -1.
<mgrwt>
<rscale>  0 0.42999981E+02</rscale>
<asrwt>0</asrwt>
<pdfrwt beam="2">  1        2 0.27711716E+00 0.41477839E+02</pdfrwt>
<pdfrwt beam="1">  1        1 0.25652199E-02 0.44577982E+02</pdfrwt>
<totfact> 0.52893959E+03</totfact>
</mgrwt>
</event>
<event>
 5    1  0.9399923E-003  0.1328548E+03  0.7546771E-02  0.1274633E+00
          1   -1    0    0  501    0 -0.00000000000E+00  0.00000000000E+00  0.18454546721E+04  0.18454546721E+04  0.00000000000E+00 0. -1.
          2   -1    0    0  502    0  0.00000000000E+00 -0.00000000000E+00 -0.12398043832E+04  0.12398043832E+04  0.00000000000E+00 0. -1.
         25    1    1    2    0    0  0.16988534366E+03  0.53221799653E+02 -0.13999421560E+03  0.25868314663E+03  0.12500000000E+03 0.  0.
          2    1    1    2  501    0 -0.72058070799E+02  0.33477015855E+02  0.17811154567E+04  0.17828868013E+04  0.00000000000E+00 0. -1.
          1    1    1    2  502    0 -0.97827272865E+02 -0.86698815508E+02 -0.10354709522E+04  0.10436891074E+04  0.00000000000E+00 0. -1.
<mgrwt>
<rscale>  0 0.10274222E+03</rscale>
<asrwt>0</asrwt>
<pdfrwt beam="2">  1        2 0.19073914E+00 0.13285484E+03</pdfrwt>
<pdfrwt beam="1">  1        1 0.28391610E+00 0.79454869E+02</pdfrwt>
<totfact> 0.13316815E+01</totfact>
</mgrwt>
</event>
<event>
 5    1  0.9399923E-003  0.7340602E+02  0.7546771E-02  0.1451066E+00
         -1   -1    0    0    0  501 -0.00000000000E+00  0.00000000000E+00  0.66191681130E+03  0.66191681130E+03  0.00000000000E+00 0.  1.
          1   -1    0    0  502    0  0.00000000000E+00 -0.00000000000E+00 -0.16315681329E+03  0.16315681329E+03  0.00000000000E+00 0. -1.
         25    1    1    2    0    0  0.10323606353E+03  0.88738903174E+01  0.41516064733E+03  0.44577998366E+03  0.12500000000E+03 0.  0.
          2    1    1    2  502    0 -0.72735620979E+02  0.27689552216E+01 -0.13761712270E+03  0.15568111681E+03  0.00000000000E+00 0. -1.
         -2    1    1    2    0  501 -0.30500442553E+02 -0.11642845539E+02  0.22121647338E+03  0.22361252412E+03  0.00000000000E+00 0.  1.
<mgrwt>
<rscale>  0 0.48953993E+02</rscale>
<asrwt>0</asrwt>
<pdfrwt beam="2">  1        1 0.25101049E-01 0.73406022E+02</pdfrwt>
<pdfrwt beam="1">  1       -1 0.10183335E+00 0.32647096E+02</pdfrwt>
<totfact> 0.19701533E+02</totfact>
</mgrwt>
</event>
<event>
 5    1  0.9399923E-003  0.8124049E+02  0.7546771E-02  0.1463027E+00
          1   -1    0    0  501    0 -0.00000000000E+00  0.00000000000E+00  0.70338006078E+03  0.70338006078E+03  0.00000000000E+00 0. -1.
          2   -1    0    0  502    0  0.00000000000E+00 -0.00000000000E+00 -0.18107461129E+04  0.18107461129E+04  0.00000000000E+00 0. -1.
         25    1    1    2    0    0 -0.54287111245E+02 -0.11274306204E+02  0.12367202726E+01  0.13675061208E+03  0.12500000000E+03 0.  0.
          2    1    1    2  501    0  0.81289342822E+02  0.12590377761E+02  0.63161442194E+03  0.63694839105E+03  0.00000000000E+00 0. -1.
          1    1    1    2  502    0 -0.27002231577E+02 -0.13160715565E+01 -0.17402171944E+04  0.17404271706E+04  0.00000000000E+00 0. -1.
<mgrwt>
<rscale>  0 0.46864470E+02</rscale>
<asrwt>0</asrwt>
<pdfrwt beam="2">  1        2 0.27857632E+00 0.27034285E+02</pdfrwt>
<pdfrwt beam="1">  1        1 0.10821232E+00 0.81240491E+02</pdfrwt>
<totfact> 0.47739042E+01</totfact>
</mgrwt>
</event>
<event>
 5    1  0.9399923E-003  0.7777192E+02  0.7546771E-02  0.1348161E+00
         -2   -1    0    0    0  501 -0.00000000000E+00  0.00000000000E+00  0.68778346480E+03  0.68778346480E+03  0.00000000000E+00 0.  1.
          2   -1    0    0  502    0  0.00000000000E+00 -0.00000000000E+00 -0.32418097178E+04  0.32418097178E+04  0.00000000000E+00 0. -1.
         25    1    1    2    0    0  0.87652059185E+02  0.80975033313E+02 -0.10364173775E+03  0.20151041984E+03  0.12500000000E+03 0.  0.
          1    1    1    2  502    0 -0.11179374747E+02 -0.68809590555E+02 -0.30864921791E+04  0.30872793378E+04  0.00000000000E+00 0. -1.
         -1    1    1    2    0  501 -0.76472684438E+02 -0.12165442758E+02  0.63610766382E+03  0.64080342495E+03  0.00000000000E+00 0.  1.
<mgrwt>
<rscale>  0 0.73631664E+02</rscale>
<asrwt>0</asrwt>
<pdfrwt beam="2">  1        2 0.49873995E+00 0.69711822E+02</pdfrwt>
<pdfrwt beam="1">  1       -2 0.10581284E+00 0.77771915E+02</pdfrwt>
<totfact> 0.14843686E+00</totfact>
</mgrwt>
</event>
<event>
 5    1  0.9399923E-003  0.7445749E+02  0.7546771E-02  0.1346698E+00
         -2   -1    0    0    0  501 -0.00000000000E+00  0.00000000000E+00  0.96792111607E+02  0.96792111607E+02  0.00000000000E+00 0.  1.
          2   -1    0    0  502    0  0.00000000000E+00 -0.00000000000E+00 -0.13262204482E+04  0.13262204482E+04  0.00000000000E+00 0. -1.
         25    1    1    2    0    0  0.43833515817E+02 -0.42665690794E+02 -0.21522959700E+03  0.25630161471E+03  0.12500000000E+03 0.  0.
          1    1    1    2  502    0 -0.67626124173E+02 -0.31154865080E+02 -0.10690977737E+04  0.10716874395E+04  0.00000000000E+00 0. -1.
         -1    1    1    2    0  501  0.23792608356E+02  0.73820555874E+02  0.54899034054E+02  0.95023505629E+02  0.00000000000E+00 0.  1.
<mgrwt>
<rscale>  0 0.74094455E+02</rscale>
<asrwt>0</asrwt>
<pdfrwt beam="2">  1        2 0.20403393E+00 0.74457493E+02</pdfrwt>
<pdfrwt beam="1">  1       -2 0.14891093E-01 0.73733187E+02</pdfrwt>
<totfact> 0.60831469E+02</totfact>
</mgrwt>
</event>
<event>
 5    1  0.9399923E-003  0.1047909E+03  0.7546771E-02  0.1330164E+00
         -1   -1    0    0    0  502 -0.00000000000E+00  0.00000000000E+00  0.35052494271E+03  0.35052494271E+03  0.00000000000E+00 0.  1.
         -2   -1    0    0    0  501  0.00000000000E+00 -0.00000000000E+00 -0.21862061885E+04  0.21862061885E+04  0.00000000000E+00 0.  1.
         25    1    1    2    0    0  0.50395612404E+02 -0.14919021810E+02 -0.29247004854E+03  0.32237559500E+03  0.12500000000E+03 0.  0.
         -2    1    1    2    0  502  0.59989022676E+02  0.76829558995E+01  0.33120317399E+03  0.33667974859E+03  0.00000000000E+00 0.  1.
         -1    1    1    2    0  501 -0.11038463508E+03  0.72360659104E+01 -0.18744143713E+04  0.18776757876E+04  0.00000000000E+00 0.  1.
<mgrwt>
<rscale>  0 0.79609353E+02</rscale>
<asrwt>0</asrwt>
<pdfrwt beam="2">  1       -2 0.33633942E+00 0.10479089E+03</pdfrwt>
<pdfrwt beam="1">  1       -1 0.53926914E-01 0.60479010E+02</pdfrwt>
<totfact> 0.68171221E-01</totfact>
</mgrwt>
</event>
<event>
 5    1  0.9399923E-003  0.4567485E+02  0.7546771E-02  0.1524791E+00
         -1   -1    0    0    0  501 -0.00000000000E+00  0.00000000000E+00  0.15870956948E+03  0.15870956948E+03  0.00000000000E+00 0.  1.
          1   -1    0    0  502    0  0.00000000000E+00 -0.00000000000E+00 -0.10849407334E+04  0.10849407334E+04  0.00000000000E+00 0. -1.
         25    1    1    2    0    0  0.15944229176E+02  0.16628027991E+02 -0.65265733649E+03  0.66491902412E+03  0.12500000000E+03 0.  0.
          2    1    1    2  502    0 -0.46726796056E+02 -0.22500941525E+02 -0.42294264144E+03  0.42611050654E+03  0.00000000000E+00 0. -1.
         -2    1    1    2    0  501  0.30782566880E+02  0.58729135346E+01  0.14936881397E+03  0.15262077226E+03  0.00000000000E+00 0.  1.
<mgrwt>
<rscale>  0 0.37833176E+02</rscale>
<asrwt>0</asrwt>
<pdfrwt beam="2">  1        1 0.16691396E+00 0.45674850E+02</pdfrwt>
<pdfrwt beam="1">  1       -1 0.24416857E-01 0.31337797E+02</pdfrwt>
<totfact> 0.21486287E+02</totfact>
</mgrwt>
</event>
<event>
 5    1  0.9399923E-003  0.5044111E+02  0.7546771E-02  0.1458958E+00
          2   -1    0    0  502    0  0.00000000000E+00  0.00000000000E+00  0.11226643757E+04  0.11226643757E+04  0.00000000000E+00 0. -1.
          1   -1    0    0  501    0 -0.00000000000E+00 -0.00000000000E+00 -0.42825030521E+02  0.42825030521E+02  0.00000000000E+00 0. -1.
         25    1    1    2    0    0  0.19060491294E+02  0.90015505245E+02  0.37459991121E+03  0.40548265930E+03  0.12500000000E+03 0.  0.
          2    1    1    2  501    0 -0.21119864853E+01 -0.44795804053E+02 -0.76415617135E+01  0.45491955477E+02  0.00000000000E+00 0. -1.
          1    1    1    2  502    0 -0.16948504808E+02 -0.45219701191E+02  0.71288099564E+03  0.71451479141E+03  0.00000000000E+00 0. -1.
<mgrwt>
<rscale>  0 0.47561118E+02</rscale>
<asrwt>0</asrwt>
<pdfrwt beam="1">  1        2 0.17271757E+00 0.50441110E+02</pdfrwt>
<pdfrwt beam="2">  1        1 0.65884671E-02 0.44845563E+02</pdfrwt>
<totfact> 0.32582364E+03</totfact>
</mgrwt>
</event>
<event>
 5    1  0.9399923E-003  0.5092702E+02  0.7546771E-02  0.1531614E+00
          1   -1    0    0  501    0 -0.00000000000E+00  0.00000000000E+00  0.35882293811E+03  0.35882293811E+03  0.00000000000E+00 0. -1.
          2   -1    0    0  502    0  0.00000000000E+00 -0.00000000000E+00 -0.11751164196E+04  0.11751164196E+04  0.00000000000E+00 0. -1.
         25    1    1    2    0    0 -0.18246891333E+02  0.28510562774E+02  0.16010507581E+02  0.13048807450E+03  0.12500000000E+03 0.  0.
          2    1    1    2  501    0  0.14734482316E+02  0.22464743256E+02  0.28435628295E+03  0.28562259244E+03  0.00000000000E+00 0. -1.
          1    1    1    2  502    0  0.35124090176E+01 -0.50975306030E+02 -0.11166602720E+04  0.11178286908E+04  0.00000000000E+00 0. -1.
<mgrwt>
<rscale>  0 0.36989101E+02</rscale>
<asrwt>0</asrwt>
<pdfrwt beam="2">  1        2 0.18078714E+00 0.50927017E+02</pdfrwt>
<pdfrwt beam="1">  1        1 0.55203529E-01 0.26865771E+02</pdfrwt>
<totfact> 0.22157424E+02</totfact>
</mgrwt>
</event>
<event>
 5    1  0.9399923E-003  0.7877781E+02  0.7546771E-02  0.1394958E+00
          2   -1    0    0  502    0  0.00000000000E+00  0.00000000000E+00  0.12631971024E+04  0.12631971024E+04  0.00000000000E+00 0. -1.
          3   -1    0    0  501    0 -0.00000000000E+00 -0.00000000000E+00 -0.17910452160E+03  0.17910452160E+03  0.00000000000E+00 0. -1.
         25    1    1    2    0    0  0.10754312494E+03 -0.19361158331E+02  0.54645381213E+02  0.17478986201E+03  0.12500000000E+03 0.  0.
          2    1    1    2  501    0 -0.41182805214E+02 -0.22137080845E+02 -0.11304983267E+03  0.12233698729E+03  0.00000000000E+00 0. -1.
          1    1    1    2  502    0 -0.66360319723E+02  0.41498239176E+02  0.11424970323E+04  0.11451747747E+04  0.00000000000E+00 0. -1.
<mgrwt>
<rscale>  0 0.60690141E+02</rscale>
<asrwt>0</asrwt>
<pdfrwt beam="1">  1        2 0.19433801E+00 0.78777807E+02</pdfrwt>
<pdfrwt beam="2">  1        3 0.27554543E-01 0.46755468E+02</pdfrwt>
<totfact> 0.13828837E+02</totfact>
</mgrwt>
</event>
<event>
 5    1  0.9399923E-003  0.6495302E+02  0.7546771E-02  0.1430298E+00
          1   -1    0    0  502    0  0.00000000000E+00  0.00000000000E+00  0.29413445407E+03  0.29413445407E+03  0.00000000000E+00 0. -1.
         -1   -1    0    0    0  501 -0.00000000000E+00 -0.00000000000E+00 -0.62346846419E+03  0.62346846419E+03  0.00000000000E+00 0.  1.
         25    1    1    2    0    0  0.17521053715E+02  0.83820534531E+02 -0.12203746291E+03  0.19455336462E+03  0.12500000000E+03 0.  0.
          2    1    1    2  502    0  0.24687532800E+02 -0.35309486484E+02  0.25383032533E+03  0.25746080899E+03  0.00000000000E+00 0. -1.
         -2    1    1    2    0  501 -0.42208586515E+02 -0.48511048047E+02 -0.46112687254E+03  0.46558874464E+03  0.00000000000E+00 0.  1.
<mgrwt>
<rscale>  0 0.52900267E+02</rscale>
<asrwt>0</asrwt>
<pdfrwt beam="1">  1        1 0.45251455E-01 0.43084035E+02</pdfrwt>
<pdfrwt beam="2">  1       -1 0.95918224E-01 0.64953021E+02</pdfrwt>
<totfact> 0.10600496E+02</totfact>
</mgrwt>
</event>
<event>
 5    1  0.9399923E-003  0.7431748E+02  0.7546771E-02  0.1497427E+00
          1   -1    0    0  501    0 -0.00000000000E+00  0.00000000000E+00  0.36645090038E+02  0.36645090038E+02  0.00000000000E+00 0. -1.
          2   -1    0    0  502    0  0.00000000000E+00 -0.00000000000E+00 -0.77443477443E+03  0.77443477443E+03  0.00000000000E+00 0. -1.
         25    1    1    2    0    0  0.75558035350E+02  0.89189858472E+00 -0.27085914381E+03  0.30773281914E+03  0.12500000000E+03 0.  0.
          2    1    1    2  501    0 -0.47680596905E+01  0.22682845350E+02  0.65003422086E+01  0.24072812782E+02  0.00000000000E+00 0. -1.
          1    1    1    2  502    0 -0.70789975660E+02 -0.23574743935E+02 -0.47343088279E+03  0.47927423255E+03  0.00000000000E+00 0. -1.
<mgrwt>
<rscale>  0 0.41503886E+02</rscale>
<asrwt>0</asrwt>
<pdfrwt beam="2">  1        2 0.11914379E+00 0.74317483E+02</pdfrwt>
<pdfrwt beam="1">  1        1 0.56377071E-02 0.23178565E+02</pdfrwt>
<totfact> 0.58481110E+03</totfact>
</mgrwt>
</event>
<event>
 5    1  0.9399923E-003  0.2369395E+03  0.7546771E-02  0.1270777E+00
          2   -1    0    0  502    0  0.00000000000E+00  0.00000000000E+00  0.93143807612E+03  0.93143807612E+03  0.00000000000E+00 0. -1.
          1   -1    0    0  501    0 -0.00000000000E+00 -0.00000000000E+00 -0.98033892234E+03  0.98033892234E+03  0.00000000000E+00 0. -1.
         25    1    1    2    0    0  0.34119446561E+02  0.20962099689E+03 -0.27015769996E+03  0.36567100215E+03  0.12500000000E+03 0.  0.
          2    1    1    2  501    0  0.43480711566E+02  0.15722716756E+02 -0.64551305832E+03  0.64716681356E+03  0.00000000000E+00 0. -1.
          1    1    1    2  502    0 -0.77600158127E+02 -0.22534371365E+03  0.86676991206E+03  0.89893918275E+03  0.00000000000E+00 0. -1.
<mgrwt>
<rscale>  0 0.10466687E+03</rscale>
<asrwt>0</asrwt>
<pdfrwt beam="1">  1        2 0.14329817E+00 0.23693946E+03</pdfrwt>
<pdfrwt beam="2">  1        1 0.15082137E+00 0.46236091E+02</pdfrwt>
<totfact> 0.74165657E+01</totfact>
</mgrwt>
</event>
<event>
 5    1  0.9399923E-003  0.4674460E+02  0.7546771E-02  0.1551247E+00
          1   -1    0    0  501    0 -0.00000000000E+00  0.00000000000E+00  0.13571944963E+04  0.13571944963E+04  0.00000000000E+00 0. -1.
          2   -1    0    0  502    0  0.00000000000E+00 -0.00000000000E+00 -0.95302096507E+03  0.95302096507E+03  0.00000000000E+00 0. -1.
         25    1    1    2    0    0 -0.14095615785E+02 -0.44003275398E+02 -0.35742624218E+03  0.38146230905E+03  0.12500000000E+03 0.  0.
          2    1    1    2  501    0  0.35781623646E+02  0.30091809912E+02  0.13444855696E+04  0.13452982155E+04  0.00000000000E+00 0. -1.
          1    1    1    2  502    0 -0.21686007861E+02  0.13911465487E+02 -0.58288579626E+03  0.58345493681E+03  0.00000000000E+00 0. -1.
<mgrwt>
<rscale>  0 0.34703793E+02</rscale>
<asrwt>0</asrwt>
<pdfrwt beam="2">  1        2 0.14661861E+00 0.25764546E+02</pdfrwt>
<pdfrwt beam="1">  1        1 0.20879915E+00 0.46744596E+02</pdfrwt>
<totfact> 0.45036250E+01</totfact>
</mgrwt>
</event>
<event>
 5    1  0.9399923E-003  0.5200307E+02  0.7546771E-02  0.1449170E+00
          1   -1    0    0  502    0  0.00000000000E+00  0.00000000000E+00  0.12234172969E+03  0.12234172969E+03  0.00000000000E+00 0. -1.
         -1   -1    0    0    0  501 -0.00000000000E+00 -0.00000000000E+00 -0.30830612304E+03  0.30830612304E+03  0.00000000000E+00 0.  1.
         25    1    1    2    0    0 -0.33875514850E+02 -0.64757482030E+02 -0.24883355481E+03  0.28789619655E+03  0.12500000000E+03 0.  0.
          2    1    1    2  502    0  0.47786124853E+02  0.20143834400E+02  0.77969583735E+02  0.93640502885E+02  0.00000000000E+00 0. -1.
         -2    1    1    2    0  501 -0.13910610003E+02  0.44613647630E+02 -0.15100422272E+02  0.49111153299E+02  0.00000000000E+00 0.  1.
<mgrwt>
<rscale>  0 0.49297151E+02</rscale>
<asrwt>0</asrwt>
<pdfrwt beam="1">  1        1 0.18821805E-01 0.52003071E+02</pdfrwt>
<pdfrwt beam="2">  1       -1 0.47431711E-01 0.46732030E+02</pdfrwt>
<totfact> 0.11897802E+03</totfact>
</mgrwt>
</event>
<event>
 5    1  0.1039026E-002  0.1394938E+03  0.7546771E-02  0.1214519E+00
          2   -1    0    0  502    0  0.00000000000E+00  0.00000000000E+00  0.10275096717E+04  0.10275096717E+04  0.00000000000E+00 0. -1.
          1   -1    0    0  501    0 -0.00000000000E+00 -0.00000000000E+00 -0.19170169008E+04  0.19170169008E+04  0.00000000000E+00 0. -1.
         25    1    1    2    0    0 -0.25046855807E+02 -0.60962562829E+02 -0.20763871149E+03  0.25116252420E+03  0.12500000000E+03 0.  0.
          2    1    1    2  501    0 -0.11633760822E+03  0.75602889906E+02 -0.16797196232E+04  0.16854400757E+04  0.00000000000E+00 0. -1.
          1    1    1    2  502    0  0.14138446402E+03 -0.14640327076E+02  0.99785110559E+03  0.10079239727E+04  0.00000000000E+00 0. -1.
<mgrwt>
<rscale>  0 0.13911899E+03</rscale>
<asrwt>0</asrwt>
<pdfrwt beam="1">  1        2 0.15807841E+00 0.13949377E+03</pdfrwt>
<pdfrwt beam="2">  1        1 0.29492568E+00 0.13874522E+03</pdfrwt>
<totfact> 0.14801847E+01</totfact>
</mgrwt>
</event>
<event>
 5    1  0.9399923E-003  0.8063115E+02  0.7546771E-02  0.1359332E+00
          1   -1    0    0  501    0 -0.00000000000E+00  0.00000000000E+00  0.32077818609E+03  0.32077818609E+03  0.00000000000E+00 0. -1.
          2   -1    0    0  502    0  0.00000000000E+00 -0.00000000000E+00 -0.67253711107E+03  0.67253711107E+03  0.00000000000E+00 0. -1.
         25    1    1    2    0    0  0.11331338402E+03 -0.31187671883E+02  0.14390456881E+03  0.22393329096E+03  0.12500000000E+03 0.  0.
          2    1    1    2  501    0 -0.35230621481E+02  0.49994355933E+02  0.12731714530E+03  0.14124548773E+03  0.00000000000E+00 0. -1.
          3    1    1    2  502    0 -0.78082762539E+02 -0.18806684051E+02 -0.62298063909E+03  0.62813651848E+03  0.00000000000E+00 0. -1.
<mgrwt>
<rscale>  0 0.70224341E+02</rscale>
<asrwt>0</asrwt>
<pdfrwt beam="2">  1        2 0.10346725E+00 0.80631146E+02</pdfrwt>
<pdfrwt beam="1">  1        1 0.49350491E-01 0.61160709E+02</pdfrwt>
<totfact> 0.50269281E+02</totfact>
</mgrwt>
</event>
<event>
 5    1  0.1066039E-002  0.4489844E+02  0.7546771E-02  0.1520662E+00
         -2   -1    0    0    0  501 -0.00000000000E+00  0.00000000000E+00  0.41113670471E+03  0.41113670471E+03  0.00000000000E+00 0.  1.
          2   -1    0    0  502    0  0.00000000000E+00 -0.00000000000E+00 -0.21970770872E+04  0.21970770872E+04  0.00000000000E+00 0. -1.
         25    1    1    2    0    0 -0.85841074550E+01  0.70385968517E+02  0.14571263359E+03  0.20465835691E+03  0.12500000000E+03 0.  0.
          1    1    1    2  502    0  0.20557817292E+02 -0.39883254465E+02 -0.21662330594E+04  0.21666977098E+04  0.00000000000E+00 0. -1.
         -1    1    1    2    0  501 -0.11973709837E+02 -0.30502714052E+02  0.23458004331E+03  0.23685772525E+03  0.00000000000E+00 0.  1.
<mgrwt>
<rscale>  0 0.38357032E+02</rscale>
<asrwt>0</asrwt>
<pdfrwt beam="2">  1        2 0.33801187E+00 0.44898442E+02</pdfrwt>
<pdfrwt beam="1">  1       -2 0.63251799E-01 0.32768663E+02</pdfrwt>
<totfact> 0.17666923E+01</totfact>
</mgrwt>
</event>
<event>
 5    1  0.9399923E-003  0.6550264E+02  0.7546771E-02  0.1401080E+00
         -2   -1    0    0    0  501 -0.00000000000E+00  0.00000000000E+00  0.17757331479E+03  0.17757331479E+03  0.00000000000E+00 0.  1.
          2   -1    0    0  502    0  0.00000000000E+00 -0.00000000000E+00 -0.75104938392E+03  0.75104938392E+03  0.00000000000E+00 0. -1.
         25    1    1    2    0    0 -0.45311542799E+01  0.18202559153E+02 -0.34539506473E+02  0.13103374385E+03  0.12500000000E+03 0.  0.
          1    1    1    2  502    0  0.86854938863E+01  0.52854098970E+02 -0.65729649482E+03  0.65947530332E+03  0.00000000000E+00 0. -1.
         -1    1    1    2    0  501 -0.41543396063E+01 -0.71056658122E+02  0.11835993217E+03  0.13811365155E+03  0.00000000000E+00 0.  1.
<mgrwt>
<rscale>  0 0.59232734E+02</rscale>
<asrwt>0</asrwt>
<pdfrwt beam="2">  1        2 0.11554606E+00 0.53562987E+02</pdfrwt>
<pdfrwt beam="1">  1       -2 0.27318971E-01 0.65502635E+02</pdfrwt>
<totfact> 0.47958767E+02</totfact>
</mgrwt>
</event>
<event>
 5    1  0.9399923E-003  0.9217327E+02  0.7546771E-02  0.1439591E+00
          2   -1    0    0  502    0  0.00000000000E+00  0.00000000000E+00  0.58742103526E+03  0.58742103526E+03  0.00000000000E+00 0. -1.
          1   -1    0    0  501    0 -0.00000000000E+00 -0.00000000000E+00 -0.17135121985E+04  0.17135121985E+04  0.00000000000E+00 0. -1.
         25    1    1    2    0    0  0.68765924866E+02 -0.50907911084E+02  0.15737228944E+03  0.21842940580E+03  0.12500000000E+03 0.  0.
          2    1    1    2  501    0 -0.13328313324E+02 -0.24975693116E+02 -0.16773361360E+04  0.16775750184E+04  0.00000000000E+00 0. -1.
          1    1    1    2  502    0 -0.55437611542E+02  0.75883604200E+02  0.39387268331E+03  0.40492880957E+03  0.00000000000E+00 0. -1.
<mgrwt>
<rscale>  0 0.51082106E+02</rscale>
<asrwt>0</asrwt>
<pdfrwt beam="1">  1        2 0.90372467E-01 0.92173274E+02</pdfrwt>
<pdfrwt beam="2">  1        1 0.26361726E+00 0.28309525E+02</pdfrwt>
<totfact> 0.48363513E+01</totfact>
</mgrwt>
</event>
<event>
 5    1  0.9399923E-003  0.1316031E+03  0.7546771E-02  0.1383395E+00
         -2   -1    0    0    0  501 -0.00000000000E+00  0.00000000000E+00  0.16007640769E+03  0.16007640769E+03  0.00000000000E+00 0.  1.
          2   -1    0    0  502    0  0.00000000000E+00 -0.00000000000E+00 -0.79657742625E+03  0.79657742625E+03  0.00000000000E+00 0. -1.
         25    1    1    2    0    0 -0.61245553275E+02  0.11508420863E+03 -0.43796379016E+02  0.18584540803E+03  0.12500000000E+03 0.  0.
          1    1    1    2  502    0  0.27453766345E+02  0.13776249334E+02 -0.63135157812E+03  0.63209833849E+03  0.00000000000E+00 0. -1.
         -1    1    1    2    0  501  0.33791786930E+02 -0.12886045796E+03  0.38646938575E+02  0.13871008742E+03  0.00000000000E+00 0.  1.
<mgrwt>
<rscale>  0 0.63579621E+02</rscale>
<asrwt>0</asrwt>
<pdfrwt beam="2">  1        2 0.12255037E+00 0.30716353E+02</pdfrwt>
<pdfrwt beam="1">  1       -2 0.24627140E-01 0.13160313E+03</pdfrwt>
<totfact> 0.55848184E+02</totfact>
</mgrwt>
</event>
<event>
 5    1  0.9399923E-003  0.3411772E+02  0.7546771E-02  0.1597017E+00
          2   -1    0    0  502    0  0.00000000000E+00  0.00000000000E+00  0.13897322938E+04  0.13897322938E+04  0.00000000000E+00 0. -1.
          1   -1    0    0  501    0 -0.00000000000E+00 -0.00000000000E+00 -0.24823903447E+03  0.24823903447E+03  0.00000000000E+00 0. -1.
         25    1    1    2    0    0 -0.19806791007E+02  0.57006327489E+02 -0.15244578065E+03  0.20617164301E+03  0.12500000000E+03 0.  0.
          2    1    1    2  501    0  0.58949370436E+01 -0.25887739124E+02 -0.66152180946E+02  0.71281388620E+02  0.00000000000E+00 0. -1.
          1    1    1    2  502    0  0.13911853963E+02 -0.31118588365E+02  0.13600912209E+04  0.13605182967E+04  0.00000000000E+00 0. -1.
<mgrwt>
<rscale>  0 0.30097178E+02</rscale>
<asrwt>0</asrwt>
<pdfrwt beam="1">  1        2 0.21380496E+00 0.34117719E+02</pdfrwt>
<pdfrwt beam="2">  1        1 0.38190621E-01 0.26550430E+02</pdfrwt>
<totfact> 0.27224625E+02</totfact>
</mgrwt>
</event>
<event>
 5    1  0.9399923E-003  0.9991974E+02  0.7546771E-02  0.1381461E+00
          1   -1    0    0  502    0  0.00000000000E+00  0.00000000000E+00  0.11164029860E+04  0.11164029860E+04  0.00000000000E+00 0. -1.
         -1   -1    0    0    0  501 -0.00000000000E+00 -0.00000000000E+00 -0.26691547904E+03  0.26691547904E+03  0.00000000000E+00 0.  1.
         25    1    1    2    0    0 -0.20472179374E+02  0.64380790154E+02  0.31433334564E+03  0.34495571955E+03  0.12500000000E+03 0.  0.
          2    1    1    2  502    0  0.42483376118E+02 -0.99086556011E+02  0.78135385648E+03  0.78875650987E+03  0.00000000000E+00 0. -1.
         -2    1    1    2    0  501 -0.22011196744E+02  0.34705765858E+02 -0.24619969516E+03  0.24960623562E+03  0.00000000000E+00 0.  1.
<mgrwt>
<rscale>  0 0.64081395E+02</rscale>
<asrwt>0</asrwt>
<pdfrwt beam="1">  1        1 0.17175430E+00 0.99919736E+02</pdfrwt>
<pdfrwt beam="2">  1       -1 0.41063920E-01 0.41097238E+02</pdfrwt>
<totfact> 0.83404164E+01</totfact>
</mgrwt>
</event>
<event>
 5    1  0.9399923E-003  0.1947937E+03  0.7546771E-02  0.1260928E+00
          2   -1    0    0  502    0  0.00000000000E+00  0.00000000000E+00  0.12969724320E+04  0.12969724320E+04  0.00000000000E+00 0. -1.
          1   -1    0    0  501    0 -0.00000000000E+00 -0.00000000000E+00 -0.31590247229E+03  0.31590247229E+03  0.00000000000E+00 0. -1.
         25    1    1    2    0    0  0.13438422289E+03  0.47627570303E+02 -0.16055366486E+02  0.19028998820E+03  0.12500000000E+03 0.  0.
          2    1    1    2  501    0  0.41191759788E+02  0.46203079939E+02 -0.19982497302E+03  0.20919250826E+03  0.00000000000E+00 0. -1.
          1    1    1    2  502    0 -0.17557598268E+03 -0.93830650243E+02  0.11969502992E+04  0.12133924078E+04  0.00000000000E+00 0. -1.
<mgrwt>
<rscale>  0 0.10980680E+03</rscale>
<asrwt>0</asrwt>
<pdfrwt beam="1">  1        2 0.19953422E+00 0.19479367E+03</pdfrwt>
<pdfrwt beam="2">  1        1 0.48600381E-01 0.61898996E+02</pdfrwt>
<totfact> 0.20302596E+02</totfact>
</mgrwt>
</event>
