<event>
 7    1  0.4251803E-004  0.4620842E+02  0.7546771E-02  0.1481634E+00
         -2   -1    0    0    0  501 -0.00000000000E+00  0.00000000000E+00  0.15540233414E+03  0.15540233414E+03  0.00000000000E+00 0.  1.
          1   -1    0    0  503    0  0.00000000000E+00 -0.00000000000E+00 -0.93224153683E+02  0.93224153683E+02  0.00000000000E+00 0. -1.
         25    2    1    2    0    0 -0.47798979301E+02 -0.32907553368E+02  0.51373090292E+02  0.14707992690E+03  0.12500264397E+03 0.  0.
          4    1    3    3  502    0 -0.78367520163E+02 -0.55072575035E+02  0.52593468902E+02  0.10928011076E+03  0.12700000000E+01 0.  1.
         -4    1    3    3    0  502  0.30568540862E+02  0.22165021667E+02 -0.12203786100E+01  0.37799816135E+02  0.12700000000E+01 0.  1.
          1    1    1    2  503    0  0.39548691291E+02 -0.12956423294E+02 -0.19500195735E+02  0.45958954744E+02  0.00000000000E+00 0. -1.
         -2    1    1    2    0  501  0.82502880100E+01  0.45863976662E+02  0.30305285903E+02  0.55587606183E+02  0.00000000000E+00 0.  1.
<mgrwt>
<rscale>  0 0.43852616E+02</rscale>
<asrwt>0</asrwt>
<pdfrwt beam="2">  1        1 0.14342177E-01 0.41616918E+02</pdfrwt>
<pdfrwt beam="1">  1       -2 0.23908051E-01 0.46208417E+02</pdfrwt>
<totfact> 0.46034405E+03</totfact>
</mgrwt>
</event>
<event>
 7    1  0.4251803E-004  0.5151108E+02  0.7546771E-02  0.1514815E+00
         -2   -1    0    0    0  501 -0.00000000000E+00  0.00000000000E+00  0.63642939766E+02  0.63642939766E+02  0.00000000000E+00 0.  1.
          2   -1    0    0  503    0  0.00000000000E+00 -0.00000000000E+00 -0.77457267569E+03  0.77457267569E+03  0.00000000000E+00 0. -1.
         25    2    1    2    0    0 -0.26013277852E+02  0.52292929465E+01 -0.14531965390E+03  0.19350778100E+03  0.12499369332E+03 0.  0.
          4    1    3    3  502    0  0.37609705221E+02 -0.35729145349E+02 -0.64609449440E+02  0.82867699444E+02  0.12700000000E+01 0. -1.
         -4    1    3    3    0  502 -0.63622983073E+02  0.40958438295E+02 -0.80710204456E+02  0.11064008155E+03  0.12700000000E+01 0. -1.
          2    1    1    2  503    0  0.52002818895E+02  0.91544479019E+01 -0.59824956706E+03  0.60057525888E+03  0.00000000000E+00 0. -1.
         -2    1    1    2    0  501 -0.25989541043E+02 -0.14383740848E+02  0.32639485030E+02  0.44132575581E+02  0.00000000000E+00 0.  1.
<mgrwt>
<rscale>  0 0.39116533E+02</rscale>
<asrwt>0</asrwt>
<pdfrwt beam="2">  1        2 0.11916503E+00 0.51511085E+02</pdfrwt>
<pdfrwt beam="1">  1       -2 0.97912214E-02 0.29704347E+02</pdfrwt>
<totfact> 0.22951628E+03</totfact>
</mgrwt>
</event>
<event>
 7    1  0.4251803E-004  0.9569969E+02  0.7546771E-02  0.1351410E+00
          2   -1    0    0  502    0  0.00000000000E+00  0.00000000000E+00  0.84467389520E+03  0.84467389520E+03  0.00000000000E+00 0.  1.
          1   -1    0    0  503    0 -0.00000000000E+00 -0.00000000000E+00 -0.39461379074E+03  0.39461379074E+03  0.00000000000E+00 0. -1.
         25    2    1    2    0    0  0.20478878173E+02  0.35780306799E+02  0.51717291451E+03  0.53366001073E+03  0.12500227494E+03 0.  0.
          4    1    3    3  501    0 -0.68682975340E+01 -0.14819248072E+02  0.34708125631E+01  0.16746434375E+02  0.12700000000E+01 0.  1.
         -4    1    3    3    0  501  0.27347175707E+02  0.50599554871E+02  0.51370210195E+03  0.51691357636E+03  0.12700000000E+01 0.  1.
          2    1    1    2  502    0  0.28221220686E+02  0.47328152847E+02  0.31079220109E+03  0.31563932519E+03  0.00000000000E+00 0.  1.
          1    1    1    2  503    0 -0.48700098859E+02 -0.83108459646E+02 -0.37790501115E+03  0.38998835001E+03  0.00000000000E+00 0. -1.
<mgrwt>
<rscale>  0 0.72618069E+02</rscale>
<asrwt>0</asrwt>
<pdfrwt beam="1">  1        2 0.12994983E+00 0.55103460E+02</pdfrwt>
<pdfrwt beam="2">  1        1 0.60709814E-01 0.95699687E+02</pdfrwt>
<totfact> 0.30128638E+02</totfact>
</mgrwt>
</event>
<event>
 7    1  0.4251803E-004  0.1374602E+03  0.7546771E-02  0.1401750E+00
          1   -1    0    0  503    0 -0.00000000000E+00  0.00000000000E+00  0.36932979176E+03  0.36932979176E+03  0.00000000000E+00 0. -1.
          2   -1    0    0  502    0  0.00000000000E+00 -0.00000000000E+00 -0.94223393781E+03  0.94223393781E+03  0.00000000000E+00 0. -1.
         25    2    1    2    0    0 -0.10001876111E+03  0.85310299176E+02 -0.16985959049E+03  0.24850652937E+03  0.12498645903E+03 0.  0.
          4    1    3    3  501    0 -0.92732386227E+02  0.11673937454E+03 -0.14065892250E+03  0.20497297969E+03  0.12700000000E+01 0.  1.
         -4    1    3    3    0  501 -0.72863748834E+01 -0.31429075364E+02 -0.29200667989E+02  0.43533549685E+02  0.12700000000E+01 0.  1.
          2    1    1    2  502    0  0.12994472748E+02  0.21811637161E+02 -0.71838653063E+03  0.71883503756E+03  0.00000000000E+00 0. -1.
          1    1    1    2  503    0  0.87024288363E+02 -0.10712193634E+03  0.31534197507E+03  0.34422216263E+03  0.00000000000E+00 0. -1.
<mgrwt>
<rscale>  0 0.59076092E+02</rscale>
<asrwt>0</asrwt>
<pdfrwt beam="2">  1        2 0.14495906E+00 0.25389050E+02</pdfrwt>
<pdfrwt beam="1">  1        1 0.56819969E-01 0.13746023E+03</pdfrwt>
<totfact> 0.29555075E+02</totfact>
</mgrwt>
</event>
<event>
 7    1  0.4251803E-004  0.9259746E+02  0.7546771E-02  0.1349084E+00
          2   -1    0    0  502    0  0.00000000000E+00  0.00000000000E+00  0.33984912666E+03  0.33984912666E+03  0.00000000000E+00 0. -1.
          1   -1    0    0  503    0 -0.00000000000E+00 -0.00000000000E+00 -0.17180085521E+03  0.17180085521E+03  0.00000000000E+00 0. -1.
         25    2    1    2    0    0  0.40110943532E+02  0.22095059769E+02  0.13414759742E+03  0.18898998379E+03  0.12499822648E+03 0.  0.
          4    1    3    3  501    0  0.56779548773E+02  0.42721472723E+02  0.14407112134E+03  0.16064601549E+03  0.12700000000E+01 0.  1.
         -4    1    3    3    0  501 -0.16668605240E+02 -0.20626412954E+02 -0.99235239154E+01  0.28343968299E+02  0.12700000000E+01 0.  1.
          2    1    1    2  502    0  0.21646788746E+02  0.53906713207E+02  0.15581080339E+03  0.16628747290E+03  0.00000000000E+00 0. -1.
          1    1    1    2  503    0 -0.61757732278E+02 -0.76001772976E+02 -0.12191012935E+03  0.15637252518E+03  0.00000000000E+00 0. -1.
<mgrwt>
<rscale>  0 0.73341951E+02</rscale>
<asrwt>0</asrwt>
<pdfrwt beam="1">  1        2 0.52284481E-01 0.58090595E+02</pdfrwt>
<pdfrwt beam="2">  1        1 0.26430901E-01 0.92597463E+02</pdfrwt>
<totfact> 0.22475622E+03</totfact>
</mgrwt>
</event>
<event>
 7    1  0.8483125E-004  0.1558292E+03  0.7546771E-02  0.1382990E+00
         -1   -1    0    0    0  501 -0.00000000000E+00  0.00000000000E+00  0.96152661343E+01  0.96152661343E+01  0.00000000000E+00 0.  1.
          2   -1    0    0  503    0  0.00000000000E+00 -0.00000000000E+00 -0.40880247853E+04  0.40880247853E+04  0.00000000000E+00 0. -1.
         25    2    1    2    0    0  0.15285568803E+03  0.58787148086E+02 -0.25699791541E+04  0.25782240642E+04  0.12500272989E+03 0.  0.
          4    1    3    3  502    0  0.41530950862E+02 -0.38642177750E+02 -0.58824173429E+03  0.59097207095E+03  0.12700000000E+01 0.  1.
         -4    1    3    3    0  502  0.11132473716E+03  0.97429325836E+02 -0.19817374198E+04  0.19872519932E+04  0.12700000000E+01 0.  1.
          2    1    1    2  503    0 -0.14501292553E+03 -0.33970294419E+02 -0.14002561423E+04  0.14081548187E+04  0.00000000000E+00 0. -1.
         -1    1    1    2    0  501 -0.78427624946E+01 -0.24816853667E+02 -0.10817422284E+03  0.11126116860E+03  0.00000000000E+00 0.  1.
<mgrwt>
<rscale>  0 0.63684451E+02</rscale>
<asrwt>0</asrwt>
<pdfrwt beam="2">  1        2 0.62892756E+00 0.15582925E+03</pdfrwt>
<pdfrwt beam="1">  1       -1 0.14792701E-02 0.26026624E+02</pdfrwt>
<totfact> 0.36321117E+02</totfact>
</mgrwt>
</event>
<event>
 7    1  0.4251803E-004  0.6934359E+02  0.7546771E-02  0.1403419E+00
          2   -1    0    0  502    0  0.00000000000E+00  0.00000000000E+00  0.19182266546E+04  0.19182266546E+04  0.00000000000E+00 0.  1.
          1   -1    0    0  503    0 -0.00000000000E+00 -0.00000000000E+00 -0.58666434310E+03  0.58666434310E+03  0.00000000000E+00 0. -1.
         25    2    1    2    0    0 -0.79271487043E+02  0.49751913423E+02  0.86907096456E+02  0.17870801529E+03  0.12499795905E+03 0.  0.
          4    1    3    3  501    0 -0.49317720102E+02  0.87945521435E+02  0.81877822707E+02  0.12989319847E+03  0.12700000000E+01 0.  1.
         -4    1    3    3    0  501 -0.29953766941E+02 -0.38193608012E+02  0.50292737490E+01  0.48814816823E+02  0.12700000000E+01 0.  1.
          2    1    1    2  502    0  0.48191561598E+02  0.12031429960E+02  0.17828605021E+04  0.17835522846E+04  0.00000000000E+00 0.  1.
          1    1    1    2  503    0  0.31079925446E+02 -0.61783343383E+02 -0.53820528702E+03  0.54263069786E+03  0.00000000000E+00 0. -1.
<mgrwt>
<rscale>  0 0.58688560E+02</rscale>
<asrwt>0</asrwt>
<pdfrwt beam="1">  1        2 0.29511179E+00 0.49670735E+02</pdfrwt>
<pdfrwt beam="2">  1        1 0.90256054E-01 0.69343591E+02</pdfrwt>
<totfact> 0.50908860E+01</totfact>
</mgrwt>
</event>
<event>
 7    1  0.4251803E-004  0.6756180E+02  0.7546771E-02  0.1391858E+00
          2   -1    0    0  502    0  0.00000000000E+00  0.00000000000E+00  0.37060731344E+03  0.37060731344E+03  0.00000000000E+00 0.  1.
          1   -1    0    0  503    0 -0.00000000000E+00 -0.00000000000E+00 -0.12420377359E+03  0.12420377359E+03  0.00000000000E+00 0. -1.
         25    2    1    2    0    0  0.38639774128E+01 -0.10120447839E+03  0.18601329269E+03  0.24593302559E+03  0.12499932501E+03 0.  0.
          4    1    3    3  501    0 -0.48146958948E+02 -0.12562686082E+01  0.57535707742E+02  0.75044509674E+02  0.12700000000E+01 0. -1.
         -4    1    3    3    0  501  0.52010936361E+02 -0.99948209783E+02  0.12847758494E+03  0.17088851592E+03  0.12700000000E+01 0. -1.
          2    1    1    2  502    0 -0.32357644821E+02  0.53128729441E+02  0.13908269882E+03  0.15236034977E+03  0.00000000000E+00 0.  1.
          1    1    1    2  503    0  0.28493667408E+02  0.48075748949E+02 -0.78692451648E+02  0.96517711669E+02  0.00000000000E+00 0. -1.
<mgrwt>
<rscale>  0 0.61446816E+02</rscale>
<asrwt>0</asrwt>
<pdfrwt beam="1">  1        2 0.57016509E-01 0.67561797E+02</pdfrwt>
<pdfrwt beam="2">  1        1 0.19108273E-01 0.55885300E+02</pdfrwt>
<totfact> 0.30203130E+03</totfact>
</mgrwt>
</event>
<event>
 7    1  0.4251803E-004  0.1416276E+03  0.7546771E-02  0.1371606E+00
          2   -1    0    0  502    0  0.00000000000E+00  0.00000000000E+00  0.79799003131E+03  0.79799003131E+03  0.00000000000E+00 0.  1.
          1   -1    0    0  503    0 -0.00000000000E+00 -0.00000000000E+00 -0.93158078691E+03  0.93158078691E+03  0.00000000000E+00 0. -1.
         25    2    1    2    0    0  0.49247052560E+02  0.10232860997E+03 -0.56606570854E+03  0.59071884665E+03  0.12498781057E+03 0.  0.
          4    1    3    3  501    0 -0.17698573871E+02  0.97688241211E+02 -0.28676032051E+03  0.30346223209E+03  0.12700000000E+01 0.  1.
         -4    1    3    3    0  501  0.66945626431E+02  0.46403687587E+01 -0.27930538804E+03  0.28725661456E+03  0.12700000000E+01 0.  1.
          2    1    1    2  502    0 -0.74796037116E+02 -0.12064092221E+03  0.77853393494E+03  0.79136828792E+03  0.00000000000E+00 0.  1.
          1    1    1    2  503    0  0.25548984556E+02  0.18312312237E+02 -0.34605898199E+03  0.34748368365E+03  0.00000000000E+00 0. -1.
<mgrwt>
<rscale>  0 0.66722640E+02</rscale>
<asrwt>0</asrwt>
<pdfrwt beam="1">  1        2 0.12276770E+00 0.14162760E+03</pdfrwt>
<pdfrwt beam="2">  1        1 0.14332012E+00 0.31433921E+02</pdfrwt>
<totfact> 0.10279538E+02</totfact>
</mgrwt>
</event>
<event>
 7    1  0.4251803E-004  0.2132394E+03  0.7546771E-02  0.1236381E+00
          1   -1    0    0  503    0  0.00000000000E+00  0.00000000000E+00  0.27316688596E+04  0.27316688596E+04  0.00000000000E+00 0. -1.
         -1   -1    0    0    0  501 -0.00000000000E+00 -0.00000000000E+00 -0.14380168796E+03  0.14380168796E+03  0.00000000000E+00 0.  1.
         25    2    1    2    0    0  0.85003791991E+02 -0.23206708072E+03  0.10171148391E+04  0.10541486088E+04  0.12500367531E+03 0.  0.
          4    1    3    3  502    0 -0.92244818893E+01 -0.13633921575E+03  0.62161208855E+03  0.63645634127E+03  0.12700000000E+01 0. -1.
         -4    1    3    3    0  502  0.94228273880E+02 -0.95727864972E+02  0.39550275059E+03  0.41769226753E+03  0.12700000000E+01 0. -1.
          1    1    1    2  503    0 -0.68985370034E+02  0.21634802594E+02  0.16057688185E+04  0.16073955780E+04  0.00000000000E+00 0. -1.
         -1    1    1    2    0  501 -0.16018421957E+02  0.21043227812E+03 -0.35016485957E+02  0.21392636071E+03  0.00000000000E+00 0.  1.
<mgrwt>
<rscale>  0 0.12416461E+03</rscale>
<asrwt>0</asrwt>
<pdfrwt beam="1">  1        1 0.42025671E+00 0.72298312E+02</pdfrwt>
<pdfrwt beam="2">  1       -1 0.22123339E-01 0.21323944E+03</pdfrwt>
<totfact> 0.23224429E+01</totfact>
</mgrwt>
</event>
<event>
 7    1  0.4251803E-004  0.3524340E+02  0.7546771E-02  0.1562820E+00
          2   -1    0    0  503    0  0.00000000000E+00  0.00000000000E+00  0.22039625822E+03  0.22039625822E+03  0.00000000000E+00 0. -1.
         -1   -1    0    0    0  501 -0.00000000000E+00 -0.00000000000E+00 -0.25505731786E+03  0.25505731786E+03  0.00000000000E+00 0.  1.
         25    2    1    2    0    0  0.15366835646E+02 -0.23811928225E+02  0.99159183533E+02  0.16205646596E+03  0.12500642750E+03 0.  0.
          4    1    3    3  502    0  0.28980550956E+02  0.37612971774E+02  0.85279610864E+02  0.97615741090E+02  0.12700000000E+01 0. -1.
         -4    1    3    3    0  502 -0.13613715310E+02 -0.61424899998E+02  0.13879572669E+02  0.64440724870E+02  0.12700000000E+01 0. -1.
          2    1    1    2  503    0 -0.30674469079E+02 -0.81792095305E+01  0.85512732198E+02  0.91215403796E+02  0.00000000000E+00 0. -1.
         -1    1    1    2    0  501  0.15307633433E+02  0.31991137755E+02 -0.21933297538E+03  0.22218170632E+03  0.00000000000E+00 0.  1.
<mgrwt>
<rscale>  0 0.33449136E+02</rscale>
<asrwt>0</asrwt>
<pdfrwt beam="1">  1        2 0.33907117E-01 0.31746221E+02</pdfrwt>
<pdfrwt beam="2">  1       -1 0.39239587E-01 0.35243398E+02</pdfrwt>
<totfact> 0.10567071E+03</totfact>
</mgrwt>
</event>
<event>
 7    1  0.4251803E-004  0.2864967E+03  0.7546771E-02  0.1132247E+00
          2   -1    0    0  503    0  0.00000000000E+00  0.00000000000E+00  0.21500429165E+03  0.21500429165E+03  0.00000000000E+00 0. -1.
          2   -1    0    0  502    0 -0.00000000000E+00 -0.00000000000E+00 -0.94314359957E+03  0.94314359957E+03  0.00000000000E+00 0. -1.
         25    2    1    2    0    0  0.19996308240E+03 -0.11944612544E+02 -0.19064423458E+03  0.30347732716E+03  0.12500142331E+03 0.  0.
          4    1    3    3  501    0  0.82503618496E+02 -0.29441862249E+02 -0.15741799663E+03  0.18015468043E+03  0.12700000000E+01 0.  1.
         -4    1    3    3    0  501  0.11745946391E+03  0.17497249705E+02 -0.33226237950E+02  0.12332264673E+03  0.12700000000E+01 0.  1.
          2    1    1    2  502    0 -0.36752538178E+03  0.52270537364E+02 -0.56907878105E+03  0.67945402667E+03  0.00000000000E+00 0. -1.
          2    1    1    2  503    0  0.16756229937E+03 -0.40325924819E+02  0.31583707702E+02  0.17521653739E+03  0.00000000000E+00 0. -1.
<mgrwt>
<rscale>  0 0.22220869E+03</rscale>
<asrwt>0</asrwt>
<pdfrwt beam="1">  1        2 0.33077584E-01 0.17234647E+03</pdfrwt>
<pdfrwt beam="2">  1        2 0.14509901E+00 0.28649674E+03</pdfrwt>
<totfact> 0.68907380E+02</totfact>
</mgrwt>
</event>
<event>
 7    1  0.4251803E-004  0.1288973E+03  0.7546771E-02  0.1327409E+00
          2   -1    0    0  503    0  0.00000000000E+00  0.00000000000E+00  0.35061972827E+04  0.35061972827E+04  0.00000000000E+00 0. -1.
         -1   -1    0    0    0  501 -0.00000000000E+00 -0.00000000000E+00 -0.94646636240E+01  0.94646636240E+01  0.00000000000E+00 0.  1.
         25    2    1    2    0    0  0.61340505328E+02 -0.13547117826E+03  0.18517257329E+04  0.18618881278E+04  0.12499645104E+03 0.  0.
          4    1    3    3  502    0  0.34985807282E+02 -0.89667312764E+02  0.16662183536E+04  0.16689965394E+04  0.12700000000E+01 0. -1.
         -4    1    3    3    0  502  0.26354698046E+02 -0.45803865491E+02  0.18550737932E+03  0.19289158843E+03  0.12700000000E+01 0. -1.
          2    1    1    2  503    0 -0.80149669145E+02  0.88738053714E+02  0.11837865673E+04  0.11898105095E+04  0.00000000000E+00 0. -1.
         -1    1    1    2    0  501  0.18809163817E+02  0.46733124542E+02  0.46122031895E+03  0.46396330910E+03  0.00000000000E+00 0.  1.
<mgrwt>
<rscale>  0 0.80581432E+02</rscale>
<asrwt>0</asrwt>
<pdfrwt beam="1">  1        2 0.53941393E+00 0.12889731E+03</pdfrwt>
<pdfrwt beam="2">  1       -1 0.14561049E-02 0.50376280E+02</pdfrwt>
<totfact> 0.11223861E+03</totfact>
</mgrwt>
</event>
<event>
 7    1  0.4251803E-004  0.3776461E+02  0.7546771E-02  0.1550524E+00
         -1   -1    0    0    0  501 -0.00000000000E+00  0.00000000000E+00  0.11554192075E+02  0.11554192075E+02  0.00000000000E+00 0.  1.
          2   -1    0    0  503    0  0.00000000000E+00 -0.00000000000E+00 -0.96640574816E+03  0.96640574816E+03  0.00000000000E+00 0. -1.
         25    2    1    2    0    0  0.10936967625E+01 -0.15201596157E+02 -0.64425635008E+03  0.65644727285E+03  0.12499797083E+03 0.  0.
          4    1    3    3  502    0 -0.60150083021E+02 -0.21118243726E+02 -0.29526957559E+03  0.30207573201E+03  0.12700000000E+01 0. -1.
         -4    1    3    3    0  502  0.61243779784E+02  0.59166475694E+01 -0.34898677449E+03  0.35437154083E+03  0.12700000000E+01 0. -1.
          2    1    1    2  503    0  0.34445448429E+02  0.27974020454E+02 -0.14355297677E+03  0.15025475659E+03  0.00000000000E+00 0. -1.
         -1    1    1    2    0  501 -0.35539145191E+02 -0.12772424297E+02 -0.16704222923E+03  0.17125791080E+03  0.00000000000E+00 0.  1.
<mgrwt>
<rscale>  0 0.34784354E+02</rscale>
<asrwt>0</asrwt>
<pdfrwt beam="2">  1        2 0.14867781E+00 0.32039291E+02</pdfrwt>
<pdfrwt beam="1">  1       -1 0.17775679E-02 0.37764609E+02</pdfrwt>
<totfact> 0.21583901E+04</totfact>
</mgrwt>
</event>
<event>
 7    1  0.4251803E-004  0.4597739E+02  0.7546771E-02  0.1541009E+00
          1   -1    0    0  503    0 -0.00000000000E+00  0.00000000000E+00  0.30746053562E+04  0.30746053562E+04  0.00000000000E+00 0. -1.
          2   -1    0    0  502    0  0.00000000000E+00 -0.00000000000E+00 -0.14438101075E+04  0.14438101075E+04  0.00000000000E+00 0. -1.
         25    2    1    2    0    0  0.70261806300E+02  0.16297838253E+02  0.76698115567E+03  0.78044091901E+03  0.12500237581E+03 0.  0.
          4    1    3    3  501    0 -0.27110815080E+02  0.34660479190E+02  0.28476773709E+03  0.28815034635E+03  0.12700000000E+01 0.  1.
         -4    1    3    3    0  501  0.97372621380E+02 -0.18362640937E+02  0.48221341858E+03  0.49229057266E+03  0.12700000000E+01 0.  1.
          2    1    1    2  502    0 -0.27979813973E+02 -0.50216221629E+00 -0.14367226005E+04  0.14369951123E+04  0.00000000000E+00 0. -1.
          1    1    1    2  503    0 -0.42281992328E+02 -0.15795676037E+02  0.23005366935E+04  0.23009794324E+04  0.00000000000E+00 0. -1.
<mgrwt>
<rscale>  0 0.35869846E+02</rscale>
<asrwt>0</asrwt>
<pdfrwt beam="2">  1        2 0.22212463E+00 0.27984320E+02</pdfrwt>
<pdfrwt beam="1">  1        1 0.47301620E+00 0.45977385E+02</pdfrwt>
<totfact> 0.21124296E+00</totfact>
</mgrwt>
</event>
<event>
 7    1  0.4251803E-004  0.1622926E+03  0.7546771E-02  0.1216245E+00
          2   -1    0    0  502    0  0.00000000000E+00  0.00000000000E+00  0.20333113281E+04  0.20333113281E+04  0.00000000000E+00 0. -1.
          1   -1    0    0  503    0 -0.00000000000E+00 -0.00000000000E+00 -0.12795075089E+04  0.12795075089E+04  0.00000000000E+00 0. -1.
         25    2    1    2    0    0  0.26324037123E+03 -0.69123553901E+02  0.12303110002E+03  0.32377985144E+03  0.12499272730E+03 0.  0.
          4    1    3    3  501    0  0.20220874450E+02 -0.50003046365E+02  0.36344551343E+02  0.65051731120E+02  0.12700000000E+01 0. -1.
         -4    1    3    3    0  501  0.24301949678E+03 -0.19120507536E+02  0.86686548676E+02  0.25872812032E+03  0.12700000000E+01 0. -1.
          2    1    1    2  502    0 -0.11699240941E+03  0.49546887464E+01  0.18025896414E+04  0.18063889914E+04  0.00000000000E+00 0. -1.
          1    1    1    2  503    0 -0.14624796182E+03  0.64168865155E+02 -0.11718169222E+04  0.11826499942E+04  0.00000000000E+00 0. -1.
<mgrwt>
<rscale>  0 0.13785506E+03</rscale>
<asrwt>0</asrwt>
<pdfrwt beam="1">  1        2 0.31281713E+00 0.11709728E+03</pdfrwt>
<pdfrwt beam="2">  1        1 0.19684731E+00 0.16229256E+03</pdfrwt>
<totfact> 0.11278263E+01</totfact>
</mgrwt>
</event>
<event>
 7    1  0.4251803E-004  0.1075480E+03  0.7546771E-02  0.1366683E+00
         -2   -1    0    0    0  501 -0.00000000000E+00  0.00000000000E+00  0.20691951417E+03  0.20691951417E+03  0.00000000000E+00 0.  1.
          3   -1    0    0  503    0  0.00000000000E+00 -0.00000000000E+00 -0.19417619534E+03  0.19417619534E+03  0.00000000000E+00 0. -1.
         25    2    1    2    0    0  0.13357359555E+03  0.46829188887E+02  0.52764184668E+02  0.19607242381E+03  0.12500183134E+03 0.  0.
          4    1    3    3  502    0  0.86022782275E+02  0.54600123854E+01 -0.30671355898E+02  0.91499047963E+02  0.12700000000E+01 0. -1.
         -4    1    3    3    0  502  0.47550813274E+02  0.41369176502E+02  0.83435540566E+02  0.10457337585E+03  0.12700000000E+01 0. -1.
          3    1    1    2  503    0 -0.90458983855E+02 -0.46240353579E+02 -0.92297691240E+02  0.13725837631E+03  0.00000000000E+00 0. -1.
         -2    1    1    2    0  501 -0.43114611694E+02 -0.58883530852E+00  0.52276825407E+02  0.67764909379E+02  0.00000000000E+00 0.  1.
<mgrwt>
<rscale>  0 0.68097875E+02</rscale>
<asrwt>0</asrwt>
<pdfrwt beam="2">  1        3 0.29873261E-01 0.10754795E+03</pdfrwt>
<pdfrwt beam="1">  1       -2 0.31833771E-01 0.43118632E+02</pdfrwt>
<totfact> 0.36735379E+02</totfact>
</mgrwt>
</event>
<event>
 7    1  0.4251803E-004  0.7634670E+02  0.7546771E-02  0.1341346E+00
          2   -1    0    0  503    0  0.00000000000E+00  0.00000000000E+00  0.39439376527E+03  0.39439376527E+03  0.00000000000E+00 0.  1.
         -1   -1    0    0    0  501 -0.00000000000E+00 -0.00000000000E+00 -0.11140511338E+03  0.11140511338E+03  0.00000000000E+00 0.  1.
         25    2    1    2    0    0  0.96828830980E+01  0.19465967151E+02  0.10394757123E+03  0.16402026174E+03  0.12499946638E+03 0.  0.
          4    1    3    3  502    0 -0.19473314486E+02  0.52540199959E+02  0.57135358629E+01  0.56337731414E+02  0.12700000000E+01 0. -1.
         -4    1    3    3    0  502  0.29156197584E+02 -0.33074232808E+02  0.98234035366E+02  0.10768253033E+03  0.12700000000E+01 0. -1.
          2    1    1    2  503    0  0.75160502453E+02  0.45743186158E+01  0.22855891076E+03  0.24064330701E+03  0.00000000000E+00 0.  1.
         -1    1    1    2    0  501 -0.84843385551E+02 -0.24040285767E+02 -0.49517830094E+02  0.10113530990E+03  0.00000000000E+00 0.  1.
<mgrwt>
<rscale>  0 0.75821327E+02</rscale>
<asrwt>0</asrwt>
<pdfrwt beam="1">  1        2 0.60675963E-01 0.75299572E+02</pdfrwt>
<pdfrwt beam="2">  1       -1 0.17139248E-01 0.76346697E+02</pdfrwt>
<totfact> 0.22918960E+03</totfact>
</mgrwt>
</event>
<event>
 7    1  0.5997505E-004  0.9473542E+02  0.7546771E-02  0.1357670E+00
         -1   -1    0    0    0  501 -0.00000000000E+00  0.00000000000E+00  0.52643555418E+02  0.52643555418E+02  0.00000000000E+00 0.  1.
          1   -1    0    0  503    0  0.00000000000E+00 -0.00000000000E+00 -0.46127433530E+03  0.46127433530E+03  0.00000000000E+00 0. -1.
         25    2    1    2    0    0  0.91084910330E+02 -0.60604199997E+02 -0.25385318695E+03  0.30337399509E+03  0.12500004172E+03 0.  0.
          4    1    3    3  502    0  0.90302976385E+02 -0.93615171592E+02 -0.22300046755E+03  0.25816515901E+03  0.12700000000E+01 0. -1.
         -4    1    3    3    0  502  0.78193394519E+00  0.33010971595E+02 -0.30852719392E+02  0.45208836085E+02  0.12700000000E+01 0. -1.
          1    1    1    2  503    0 -0.41781264420E+02  0.79467032362E+02 -0.10227521698E+03  0.13609152544E+03  0.00000000000E+00 0. -1.
         -1    1    1    2    0  501 -0.49303645910E+02 -0.18862832365E+02 -0.52502375962E+02  0.74452370187E+02  0.00000000000E+00 0.  1.
<mgrwt>
<rscale>  0 0.70717520E+02</rscale>
<asrwt>0</asrwt>
<pdfrwt beam="2">  1        1 0.70965285E-01 0.94735416E+02</pdfrwt>
<pdfrwt beam="1">  1       -1 0.80990082E-02 0.52788786E+02</pdfrwt>
<totfact> 0.38434228E+03</totfact>
</mgrwt>
</event>
<event>
 7    1  0.4251803E-004  0.9992888E+02  0.7546771E-02  0.1345868E+00
         -3   -1    0    0    0  501 -0.00000000000E+00  0.00000000000E+00  0.10926549884E+02  0.10926549884E+02  0.00000000000E+00 0.  1.
          1   -1    0    0  503    0  0.00000000000E+00 -0.00000000000E+00 -0.36647681061E+04  0.36647681061E+04  0.00000000000E+00 0. -1.
         25    2    1    2    0    0  0.62049536049E+02 -0.44604780068E+00 -0.17358342794E+04  0.17414350830E+04  0.12500063477E+03 0.  0.
          4    1    3    3  502    0  0.94594208488E+02 -0.25848514490E+02 -0.12608607806E+04  0.12646690203E+04  0.12700000000E+01 0.  1.
         -4    1    3    3    0  502 -0.32544672438E+02  0.25402466690E+02 -0.47497349881E+03  0.47676606265E+03  0.12700000000E+01 0.  1.
          1    1    1    2  503    0  0.40140798046E+02 -0.38082829930E+02 -0.15347071219E+04  0.15357042474E+04  0.00000000000E+00 0. -1.
         -3    1    1    2    0  501 -0.10219033410E+03  0.38528877731E+02 -0.38330015495E+03  0.39855532563E+03  0.00000000000E+00 0.  1.
<mgrwt>
<rscale>  0 0.74358753E+02</rscale>
<asrwt>0</asrwt>
<pdfrwt beam="2">  1        1 0.56381023E+00 0.55331597E+02</pdfrwt>
<pdfrwt beam="1">  1       -3 0.16810084E-02 0.99928875E+02</pdfrwt>
<totfact> 0.19432823E+02</totfact>
</mgrwt>
</event>
<event>
 7    1  0.4251803E-004  0.8834305E+02  0.7546771E-02  0.1339622E+00
          2   -1    0    0  502    0  0.00000000000E+00  0.00000000000E+00  0.41389001146E+03  0.41389001146E+03  0.00000000000E+00 0. -1.
          3   -1    0    0  503    0 -0.00000000000E+00 -0.00000000000E+00 -0.11335168619E+04  0.11335168619E+04  0.00000000000E+00 0. -1.
         25    2    1    2    0    0 -0.11939075687E+03 -0.36774050312E+02 -0.29437414471E+03  0.34334791163E+03  0.12500067099E+03 0.  0.
          4    1    3    3  501    0 -0.72839995890E+02 -0.81828550372E+02 -0.21107552901E+03  0.23781519822E+03  0.12700000000E+01 0.  1.
         -4    1    3    3    0  501 -0.46550760977E+02  0.45054500060E+02 -0.83298615702E+02  0.10553271342E+03  0.12700000000E+01 0.  1.
          2    1    1    2  502    0  0.60562661181E+02 -0.26366025367E+02  0.38429206939E+03  0.38992742635E+03  0.00000000000E+00 0. -1.
          3    1    1    2  503    0  0.58828095686E+02  0.63140075679E+02 -0.80954477510E+03  0.81413153537E+03  0.00000000000E+00 0. -1.
<mgrwt>
<rscale>  0 0.76389308E+02</rscale>
<asrwt>0</asrwt>
<pdfrwt beam="1">  1        2 0.63675387E-01 0.66053033E+02</pdfrwt>
<pdfrwt beam="2">  1        3 0.17438721E+00 0.88343050E+02</pdfrwt>
<totfact> 0.11378561E+01</totfact>
</mgrwt>
</event>
<event>
 7    1  0.4251803E-004  0.5780460E+02  0.7546771E-02  0.1440506E+00
         -3   -1    0    0    0  501 -0.00000000000E+00  0.00000000000E+00  0.89562327469E+02  0.89562327469E+02  0.00000000000E+00 0.  1.
          1   -1    0    0  503    0  0.00000000000E+00 -0.00000000000E+00 -0.88560040317E+03  0.88560040317E+03  0.00000000000E+00 0. -1.
         25    2    1    2    0    0  0.89789964281E+02  0.30088348809E+02 -0.89218251810E+02  0.18042336599E+03  0.12500059248E+03 0.  0.
          4    1    3    3  502    0  0.88614828237E+02  0.27302353707E+01 -0.16678046635E+01  0.88681657861E+02  0.12700000000E+01 0.  1.
         -4    1    3    3    0  502  0.11751360446E+01  0.27358113438E+02 -0.87550447146E+02  0.91741708133E+02  0.12700000000E+01 0.  1.
          1    1    1    2  503    0 -0.57032442708E+02  0.52212774131E+00 -0.73795449644E+03  0.74015526138E+03  0.00000000000E+00 0. -1.
         -3    1    1    2    0  501 -0.32757521573E+02 -0.30610476550E+02  0.31134672548E+02  0.54584103262E+02  0.00000000000E+00 0.  1.
<mgrwt>
<rscale>  0 0.50907673E+02</rscale>
<asrwt>0</asrwt>
<pdfrwt beam="2">  1        1 0.13624621E+00 0.57804596E+02</pdfrwt>
<pdfrwt beam="1">  1       -3 0.13778820E-01 0.44833654E+02</pdfrwt>
<totfact> 0.42325159E+02</totfact>
</mgrwt>
</event>
<event>
 7    1  0.4251803E-004  0.7423954E+02  0.7546771E-02  0.1377932E+00
          2   -1    0    0  503    0  0.00000000000E+00  0.00000000000E+00  0.77484849029E+03  0.77484849029E+03  0.00000000000E+00 0.  1.
          2   -1    0    0  502    0 -0.00000000000E+00 -0.00000000000E+00 -0.26562213507E+04  0.26562213507E+04  0.00000000000E+00 0. -1.
         25    2    1    2    0    0 -0.10692243345E+03 -0.37766405990E+02  0.18582059814E+03  0.25102656120E+03  0.12500532603E+03 0.  0.
          4    1    3    3  501    0  0.18074112343E+02  0.18128027003E+02  0.85279973913E+01  0.27011822218E+02  0.12700000000E+01 0. -1.
         -4    1    3    3    0  501 -0.12499654579E+03 -0.55894432993E+02  0.17729260075E+03  0.22401473898E+03  0.12700000000E+01 0. -1.
          2    1    1    2  502    0  0.73689485347E+02 -0.84551239391E+01 -0.26216363554E+04  0.26226854194E+04  0.00000000000E+00 0. -1.
          2    1    1    2  503    0  0.33232948102E+02  0.46221529929E+02  0.55444289684E+03  0.55735786037E+03  0.00000000000E+00 0.  1.
<mgrwt>
<rscale>  0 0.65010373E+02</rscale>
<asrwt>0</asrwt>
<pdfrwt beam="1">  1        2 0.11920746E+00 0.56928540E+02</pdfrwt>
<pdfrwt beam="2">  1        2 0.40864944E+00 0.74239539E+02</pdfrwt>
<totfact> 0.24017017E+01</totfact>
</mgrwt>
</event>
<event>
 7    1  0.4251803E-004  0.2940280E+03  0.7546771E-02  0.1140092E+00
         -1   -1    0    0    0  501 -0.00000000000E+00  0.00000000000E+00  0.17132382176E+03  0.17132382176E+03  0.00000000000E+00 0.  1.
          2   -1    0    0  503    0  0.00000000000E+00 -0.00000000000E+00 -0.20134854868E+04  0.20134854868E+04  0.00000000000E+00 0.  1.
         25    2    1    2    0    0  0.25990840957E+03  0.96022604604E+02 -0.82819512554E+03  0.88221590187E+03  0.12500003834E+03 0.  0.
          4    1    3    3  502    0  0.27252455856E+03  0.82705451702E+02 -0.79131410553E+03  0.84100502571E+03  0.12700000000E+01 0.  1.
         -4    1    3    3    0  502 -0.12616148993E+02  0.13317152902E+02 -0.36881020016E+02  0.41210876164E+02  0.12700000000E+01 0.  1.
          2    1    1    2  503    0 -0.21703820023E+03 -0.24255131644E+03 -0.10860409538E+04  0.11337643824E+04  0.00000000000E+00 0.  1.
         -1    1    1    2    0  501 -0.42870209337E+02  0.14652871183E+03  0.72074414310E+02  0.16882902428E+03  0.00000000000E+00 0.  1.
<mgrwt>
<rscale>  0 0.21187172E+03</rscale>
<asrwt>0</asrwt>
<pdfrwt beam="2">  1        2 0.30976700E+00 0.29402798E+03</pdfrwt>
<pdfrwt beam="1">  1       -1 0.26357511E-01 0.15267128E+03</pdfrwt>
<totfact> 0.10512870E+02</totfact>
</mgrwt>
</event>
<event>
 7    1  0.4251803E-004  0.4870574E+02  0.7546771E-02  0.1465897E+00
          1   -1    0    0  503    0 -0.00000000000E+00  0.00000000000E+00  0.84014437627E+03  0.84014437627E+03  0.00000000000E+00 0. -1.
          2   -1    0    0  502    0  0.00000000000E+00 -0.00000000000E+00 -0.44175337027E+03  0.44175337027E+03  0.00000000000E+00 0. -1.
         25    2    1    2    0    0 -0.33865517776E+01 -0.61088109061E+02 -0.20281004863E+02  0.14068121874E+03  0.12504663268E+03 0.  0.
          4    1    3    3  501    0 -0.35284763218E+02 -0.52830788080E+02  0.37768563097E+02  0.73920118661E+02  0.12700000000E+01 0.  1.
         -4    1    3    3    0  501  0.31898211440E+02 -0.82573209816E+01 -0.58049567960E+02  0.66761100075E+02  0.12700000000E+01 0.  1.
          2    1    1    2  502    0  0.36769537446E+02  0.32167560936E+02 -0.35899112238E+03  0.36230011980E+03  0.00000000000E+00 0. -1.
          1    1    1    2  503    0 -0.33382985669E+02  0.28920548125E+02  0.77766313325E+03  0.77891640800E+03  0.00000000000E+00 0. -1.
<mgrwt>
<rscale>  0 0.46381465E+02</rscale>
<asrwt>0</asrwt>
<pdfrwt beam="2">  1        2 0.67962057E-01 0.48705738E+02</pdfrwt>
<pdfrwt beam="1">  1        1 0.12925298E+00 0.44168109E+02</pdfrwt>
<totfact> 0.23325474E+02</totfact>
</mgrwt>
</event>
<event>
 7    1  0.4251803E-004  0.1567280E+03  0.7546771E-02  0.1230542E+00
          2   -1    0    0  502    0  0.00000000000E+00  0.00000000000E+00  0.91543264761E+03  0.91543264761E+03  0.00000000000E+00 0. -1.
          1   -1    0    0  503    0 -0.00000000000E+00 -0.00000000000E+00 -0.37238812015E+03  0.37238812015E+03  0.00000000000E+00 0. -1.
         25    2    1    2    0    0  0.85473378211E+02 -0.54915512284E+01  0.99387143616E+02  0.18120836953E+03  0.12499125311E+03 0.  0.
          4    1    3    3  501    0  0.38190762487E+02 -0.81761742716E+01 -0.26156623818E+02  0.47023037275E+02  0.12700000000E+01 0. -1.
         -4    1    3    3    0  501  0.47282615724E+02  0.26846230432E+01  0.12554376743E+03  0.13418533225E+03  0.12700000000E+01 0. -1.
          2    1    1    2  502    0 -0.16435928301E+03 -0.62957991584E+02  0.75654759821E+03  0.77675089377E+03  0.00000000000E+00 0. -1.
          1    1    1    2  503    0  0.78885904798E+02  0.68449542812E+02 -0.31289021436E+03  0.32986150446E+03  0.00000000000E+00 0. -1.
<mgrwt>
<rscale>  0 0.12794192E+03</rscale>
<asrwt>0</asrwt>
<pdfrwt beam="1">  1        2 0.14083579E+00 0.15672804E+03</pdfrwt>
<pdfrwt beam="2">  1        1 0.57290480E-01 0.10444293E+03</pdfrwt>
<totfact> 0.27922773E+02</totfact>
</mgrwt>
</event>
<event>
 7    1  0.4251803E-004  0.6586569E+02  0.7546771E-02  0.1422913E+00
          1   -1    0    0  503    0 -0.00000000000E+00  0.00000000000E+00  0.15051954190E+03  0.15051954190E+03  0.00000000000E+00 0. -1.
          2   -1    0    0  502    0  0.00000000000E+00 -0.00000000000E+00 -0.14042506933E+04  0.14042506933E+04  0.00000000000E+00 0.  1.
         25    2    1    2    0    0  0.15527943755E+02  0.21822848418E+02  0.27486236870E+02  0.13075872751E+03  0.12499999141E+03 0.  0.
          4    1    3    3  501    0  0.30200644115E+02 -0.47863976091E+02  0.12484437994E+02  0.57969933622E+02  0.12700000000E+01 0. -1.
         -4    1    3    3    0  501 -0.14672700360E+02  0.69686824509E+02  0.15001798876E+02  0.72788793887E+02  0.12700000000E+01 0. -1.
          2    1    1    2  502    0 -0.69401788897E+01 -0.65940503562E+02 -0.13446421693E+04  0.13462759299E+04  0.00000000000E+00 0.  1.
          1    1    1    2  503    0 -0.85877648654E+01  0.44117655144E+02  0.63424781020E+02  0.77735577751E+02  0.00000000000E+00 0. -1.
<mgrwt>
<rscale>  0 0.54409380E+02</rscale>
<asrwt>0</asrwt>
<pdfrwt beam="2">  1        2 0.21603856E+00 0.65865693E+02</pdfrwt>
<pdfrwt beam="1">  1        1 0.23156854E-01 0.44945714E+02</pdfrwt>
<totfact> 0.46688153E+02</totfact>
</mgrwt>
</event>
<event>
 7    1  0.4251803E-004  0.9952506E+02  0.7546771E-02  0.1357985E+00
          1   -1    0    0  503    0 -0.00000000000E+00  0.00000000000E+00  0.28394779051E+03  0.28394779051E+03  0.00000000000E+00 0. -1.
          2   -1    0    0  502    0  0.00000000000E+00 -0.00000000000E+00 -0.88788853665E+03  0.88788853665E+03  0.00000000000E+00 0. -1.
         25    2    1    2    0    0 -0.46580485766E+02 -0.22009312754E+02 -0.60219379247E+03  0.61718258017E+03  0.12499128800E+03 0.  0.
          4    1    3    3  501    0 -0.73971985411E+02 -0.10099316924E+02 -0.56278762498E+03  0.56771945057E+03  0.12700000000E+01 0.  1.
         -4    1    3    3    0  501  0.27391499645E+02 -0.11909995830E+02 -0.39406167485E+02  0.49463129595E+02  0.12700000000E+01 0.  1.
          2    1    1    2  502    0 -0.49801833211E+02 -0.55934871955E+01 -0.26669947721E+03  0.27136713293E+03  0.00000000000E+00 0. -1.
          1    1    1    2  503    0  0.96382318977E+02  0.27602799950E+02  0.26495252354E+03  0.28328661406E+03  0.00000000000E+00 0. -1.
<mgrwt>
<rscale>  0 0.70623616E+02</rscale>
<asrwt>0</asrwt>
<pdfrwt beam="2">  1        2 0.13659824E+00 0.50114965E+02</pdfrwt>
<pdfrwt beam="1">  1        1 0.43684276E-01 0.99525065E+02</pdfrwt>
<totfact> 0.42661146E+02</totfact>
</mgrwt>
</event>
<event>
 7    1  0.4251803E-004  0.5691524E+02  0.7546771E-02  0.1466221E+00
         -1   -1    0    0    0  501 -0.00000000000E+00  0.00000000000E+00  0.29064399194E+02  0.29064399194E+02  0.00000000000E+00 0.  1.
          2   -1    0    0  503    0  0.00000000000E+00 -0.00000000000E+00 -0.48951682047E+03  0.48951682047E+03  0.00000000000E+00 0. -1.
         25    2    1    2    0    0 -0.16298250021E+02 -0.53348808693E+02 -0.29381834261E+03  0.32413820012E+03  0.12499850391E+03 0.  0.
          4    1    3    3  502    0  0.32016935194E+02  0.27007432669E+02 -0.11157797250E+03  0.11918784504E+03  0.12700000000E+01 0.  1.
         -4    1    3    3    0  502 -0.48315185215E+02 -0.80356241363E+02 -0.18224037011E+03  0.20495035508E+03  0.12700000000E+01 0.  1.
          2    1    1    2  503    0 -0.21156626837E+02  0.57720831634E+02 -0.11632167139E+03  0.13156758149E+03  0.00000000000E+00 0. -1.
         -1    1    1    2    0  501  0.37454876858E+02 -0.43720229403E+01 -0.50312407275E+02  0.62875438057E+02  0.00000000000E+00 0.  1.
<mgrwt>
<rscale>  0 0.46327390E+02</rscale>
<asrwt>0</asrwt>
<pdfrwt beam="2">  1        2 0.75310281E-01 0.56915239E+02</pdfrwt>
<pdfrwt beam="1">  1       -1 0.44714460E-02 0.37709182E+02</pdfrwt>
<totfact> 0.12585285E+04</totfact>
</mgrwt>
</event>
<event>
 7    1  0.4251803E-004  0.7183173E+02  0.7546771E-02  0.1453909E+00
          2   -1    0    0  503    0  0.00000000000E+00  0.00000000000E+00  0.38846525170E+04  0.38846525170E+04  0.00000000000E+00 0. -1.
         -1   -1    0    0    0  501 -0.00000000000E+00 -0.00000000000E+00 -0.41465226558E+01  0.41465226558E+01  0.00000000000E+00 0.  1.
         25    2    1    2    0    0 -0.67900938679E+02  0.25400234985E+02  0.19961365387E+04  0.20013600022E+04  0.12500027154E+03 0.  0.
          4    1    3    3  502    0  0.22960479056E+02 -0.10919504477E+02  0.11987367649E+03  0.12254684979E+03  0.12700000000E+01 0. -1.
         -4    1    3    3    0  502 -0.90861417735E+02  0.36319739462E+02  0.18762628622E+04  0.18788131524E+04  0.12700000000E+01 0. -1.
          2    1    1    2  503    0 -0.61727864807E+01 -0.32085250867E+02  0.49089207169E+03  0.49197824410E+03  0.00000000000E+00 0. -1.
         -1    1    1    2    0  501  0.74073725160E+02  0.66850158824E+01  0.13934773840E+04  0.13954607934E+04  0.00000000000E+00 0.  1.
<mgrwt>
<rscale>  0 0.48445885E+02</rscale>
<asrwt>0</asrwt>
<pdfrwt beam="1">  1        2 0.59763594E+00 0.32673638E+02</pdfrwt>
<pdfrwt beam="2">  1       -1 0.63792967E-03 0.71831726E+02</pdfrwt>
<totfact> 0.28359072E+03</totfact>
</mgrwt>
</event>
<event>
 7    1  0.4251803E-004  0.4583183E+02  0.7546771E-02  0.1478467E+00
          2   -1    0    0  503    0  0.00000000000E+00  0.00000000000E+00  0.12137487888E+04  0.12137487888E+04  0.00000000000E+00 0. -1.
         -1   -1    0    0    0  501 -0.00000000000E+00 -0.00000000000E+00 -0.11257895849E+02  0.11257895849E+02  0.00000000000E+00 0.  1.
         25    2    1    2    0    0 -0.37564865220E+02  0.34792193678E+02  0.59811265413E+03  0.61317626985E+03  0.12499910016E+03 0.  0.
          4    1    3    3  502    0 -0.41932337031E+02 -0.13647620077E+02  0.51488263431E+03  0.51676911521E+03  0.12700000000E+01 0. -1.
         -4    1    3    3    0  502  0.43674718101E+01  0.48439813755E+02  0.83230019818E+02  0.96407154639E+02  0.12700000000E+01 0. -1.
          2    1    1    2  503    0 -0.11193369329E+02 -0.41422527187E+02  0.35994086450E+03  0.36248936979E+03  0.00000000000E+00 0. -1.
         -1    1    1    2    0  501  0.48758234549E+02  0.66303335092E+01  0.24443737437E+03  0.24934104506E+03  0.00000000000E+00 0.  1.
<mgrwt>
<rscale>  0 0.44345952E+02</rscale>
<asrwt>0</asrwt>
<pdfrwt beam="1">  1        2 0.18673048E+00 0.42908243E+02</pdfrwt>
<pdfrwt beam="2">  1       -1 0.17319849E-02 0.45831835E+02</pdfrwt>
<totfact> 0.16717849E+04</totfact>
</mgrwt>
</event>
<event>
 7    1  0.4251803E-004  0.6439810E+02  0.7546771E-02  0.1400675E+00
          1   -1    0    0  503    0 -0.00000000000E+00  0.00000000000E+00  0.80939894099E+03  0.80939894099E+03  0.00000000000E+00 0. -1.
          2   -1    0    0  502    0  0.00000000000E+00 -0.00000000000E+00 -0.31233839826E+03  0.31233839826E+03  0.00000000000E+00 0.  1.
         25    2    1    2    0    0 -0.19760624770E+02  0.10259655077E+03  0.63699326385E+02  0.17491949940E+03  0.12499076993E+03 0.  0.
          4    1    3    3  501    0  0.51331603882E+02  0.56690635580E+02  0.43173173324E+02  0.87831073741E+02  0.12700000000E+01 0. -1.
         -4    1    3    3    0  501 -0.71092228653E+02  0.45905915186E+02  0.20526153060E+02  0.87088425656E+02  0.12700000000E+01 0. -1.
          2    1    1    2  502    0  0.37702947246E+02 -0.50969216121E+02 -0.25170919610E+03  0.25957059276E+03  0.00000000000E+00 0.  1.
          1    1    1    2  503    0 -0.17942322475E+02 -0.51627334646E+02  0.68507041245E+03  0.68724724709E+03  0.00000000000E+00 0. -1.
<mgrwt>
<rscale>  0 0.59327569E+02</rscale>
<asrwt>0</asrwt>
<pdfrwt beam="2">  1        2 0.48052062E-01 0.64398101E+02</pdfrwt>
<pdfrwt beam="1">  1        1 0.12452291E+00 0.54656277E+02</pdfrwt>
<totfact> 0.34816072E+02</totfact>
</mgrwt>
</event>
<event>
 7    1  0.4251803E-004  0.6946283E+02  0.7546771E-02  0.1413040E+00
         -2   -1    0    0    0  501 -0.00000000000E+00  0.00000000000E+00  0.22513772665E+02  0.22513772665E+02  0.00000000000E+00 0.  1.
          1   -1    0    0  503    0  0.00000000000E+00 -0.00000000000E+00 -0.94627573217E+03  0.94627573217E+03  0.00000000000E+00 0. -1.
         25    2    1    2    0    0 -0.47685022380E+02 -0.71787354399E+02 -0.32656733870E+03  0.36013723443E+03  0.12500126123E+03 0.  0.
          4    1    3    3  502    0 -0.58326430361E+02 -0.47990646180E+02 -0.72404477059E+02  0.10463792715E+03  0.12700000000E+01 0.  1.
         -4    1    3    3    0  502  0.10641407981E+02 -0.23796708219E+02 -0.25416286164E+03  0.25549930728E+03  0.12700000000E+01 0.  1.
          1    1    1    2  503    0  0.62439779292E+02  0.28227946501E+02 -0.42172035906E+03  0.42725121913E+03  0.00000000000E+00 0. -1.
         -2    1    1    2    0  501 -0.14754756912E+02  0.43559407898E+02 -0.17547426174E+03  0.18140105127E+03  0.00000000000E+00 0.  1.
<mgrwt>
<rscale>  0 0.56521053E+02</rscale>
<asrwt>0</asrwt>
<pdfrwt beam="2">  1        1 0.14558090E+00 0.69462832E+02</pdfrwt>
<pdfrwt beam="1">  1       -2 0.34636570E-02 0.45990487E+02</pdfrwt>
<totfact> 0.47128868E+03</totfact>
</mgrwt>
</event>
<event>
 7    1  0.4251803E-004  0.4421978E+02  0.7546771E-02  0.1482032E+00
          2   -1    0    0  503    0  0.00000000000E+00  0.00000000000E+00  0.38274310019E+03  0.38274310019E+03  0.00000000000E+00 0. -1.
         -1   -1    0    0    0  501 -0.00000000000E+00 -0.00000000000E+00 -0.37132820177E+02  0.37132820177E+02  0.00000000000E+00 0.  1.
         25    2    1    2    0    0 -0.90159551119E+01 -0.50649131949E+02  0.15103733266E+03  0.20269738335E+03  0.12500932503E+03 0.  0.
          4    1    3    3  502    0 -0.61264099167E+02 -0.14254140016E+02  0.11064589902E+03  0.12728157064E+03  0.12700000000E+01 0.  1.
         -4    1    3    3    0  502  0.52248144056E+02 -0.36394991933E+02  0.40391433640E+02  0.75415812709E+02  0.12700000000E+01 0.  1.
          2    1    1    2  503    0  0.40761464904E+02  0.17143281714E+02  0.13345234963E+03  0.14058776174E+03  0.00000000000E+00 0. -1.
         -1    1    1    2    0  501 -0.31745509792E+02  0.33505850235E+02  0.61120597719E+02  0.76590775276E+02  0.00000000000E+00 0.  1.
<mgrwt>
<rscale>  0 0.43791190E+02</rscale>
<asrwt>0</asrwt>
<pdfrwt beam="1">  1        2 0.58883551E-01 0.44219782E+02</pdfrwt>
<pdfrwt beam="2">  1       -1 0.57127418E-02 0.43366752E+02</pdfrwt>
<totfact> 0.11652207E+04</totfact>
</mgrwt>
</event>
<event>
 7    1  0.4251803E-004  0.1078180E+03  0.7546771E-02  0.1350242E+00
          2   -1    0    0  502    0  0.00000000000E+00  0.00000000000E+00  0.12407541361E+03  0.12407541361E+03  0.00000000000E+00 0. -1.
          1   -1    0    0  503    0 -0.00000000000E+00 -0.00000000000E+00 -0.16008766758E+04  0.16008766758E+04  0.00000000000E+00 0. -1.
         25    2    1    2    0    0 -0.51178795829E+02  0.75602737592E+02 -0.10727934666E+03  0.18833312002E+03  0.12500185120E+03 0.  0.
          4    1    3    3  501    0 -0.91209380029E+02  0.36387400915E+02 -0.60697867282E+02  0.11545145276E+03  0.12700000000E+01 0.  1.
         -4    1    3    3    0  501  0.40030584201E+02  0.39215336677E+02 -0.46581479378E+02  0.72881667264E+02  0.12700000000E+01 0.  1.
          2    1    1    2  502    0  0.37099102140E+02  0.32617909538E+02  0.74002292367E+02  0.88975337470E+02  0.00000000000E+00 0. -1.
          1    1    1    2  503    0  0.14079693688E+02 -0.10822064713E+03 -0.14435242079E+04  0.14476436319E+04  0.00000000000E+00 0. -1.
<mgrwt>
<rscale>  0 0.72980232E+02</rscale>
<asrwt>0</asrwt>
<pdfrwt beam="1">  1        2 0.19088525E-01 0.49399103E+02</pdfrwt>
<pdfrwt beam="2">  1        1 0.24628872E+00 0.10781804E+03</pdfrwt>
<totfact> 0.25121598E+02</totfact>
</mgrwt>
</event>
<event>
 7    1  0.4251803E-004  0.1185922E+03  0.7546771E-02  0.1421006E+00
          3   -1    0    0  503    0 -0.00000000000E+00  0.00000000000E+00  0.66039534993E+03  0.66039534993E+03  0.00000000000E+00 0. -1.
          2   -1    0    0  502    0  0.00000000000E+00 -0.00000000000E+00 -0.13308893870E+03  0.13308893870E+03  0.00000000000E+00 0. -1.
         25    2    1    2    0    0 -0.11021328912E+03  0.66139574556E+01  0.20706091941E+03  0.26587249344E+03  0.12499297936E+03 0.  0.
          4    1    3    3  501    0  0.32407603218E+01 -0.21406535863E+01  0.12621166222E+03  0.12627779498E+03  0.12700000000E+01 0.  1.
         -4    1    3    3    0  501 -0.11345404944E+03  0.87546110419E+01  0.80849257190E+02  0.13959469846E+03  0.12700000000E+01 0.  1.
          2    1    1    2  502    0  0.11885964122E+03  0.17195075825E+02 -0.68354634741E+02  0.13818697853E+03  0.00000000000E+00 0. -1.
          3    1    1    2  503    0 -0.86463521005E+01 -0.23809033280E+02  0.38860012657E+03  0.38942481667E+03  0.00000000000E+00 0. -1.
<mgrwt>
<rscale>  0 0.54808655E+02</rscale>
<asrwt>0</asrwt>
<pdfrwt beam="2">  1        2 0.20475222E-01 0.11859220E+03</pdfrwt>
<pdfrwt beam="1">  1        3 0.10159928E+00 0.25330406E+02</pdfrwt>
<totfact> 0.13349411E+02</totfact>
</mgrwt>
</event>
<event>
 7    1  0.4251803E-004  0.8364035E+02  0.7546771E-02  0.1377690E+00
          2   -1    0    0  502    0  0.00000000000E+00  0.00000000000E+00  0.51178824965E+02  0.51178824965E+02  0.00000000000E+00 0. -1.
          1   -1    0    0  503    0 -0.00000000000E+00 -0.00000000000E+00 -0.18746064713E+04  0.18746064713E+04  0.00000000000E+00 0. -1.
         25    2    1    2    0    0 -0.15440763082E+02  0.81145665116E+02 -0.75022770286E+03  0.76504210166E+03  0.12499910021E+03 0.  0.
          4    1    3    3  501    0  0.40878540356E+02  0.73520296474E+02 -0.56673019874E+03  0.57294067766E+03  0.12700000000E+01 0.  1.
         -4    1    3    3    0  501 -0.56319303438E+02  0.76253686416E+01 -0.18349750412E+03  0.19210142400E+03  0.12700000000E+01 0.  1.
          2    1    1    2  502    0  0.60802912120E+02 -0.58657784536E+02  0.18464097728E+01  0.84505260416E+02  0.00000000000E+00 0. -1.
          1    1    1    2  503    0 -0.45362149038E+02 -0.22487880580E+02 -0.10750463532E+04  0.10762379341E+04  0.00000000000E+00 0. -1.
<mgrwt>
<rscale>  0 0.65074861E+02</rscale>
<asrwt>0</asrwt>
<pdfrwt beam="1">  1        2 0.78736679E-02 0.83640346E+02</pdfrwt>
<pdfrwt beam="2">  1        1 0.28840090E+00 0.50630320E+02</pdfrwt>
<totfact> 0.53799574E+02</totfact>
</mgrwt>
</event>
<event>
 7    1  0.4251803E-004  0.9508021E+02  0.7546771E-02  0.1428016E+00
          1   -1    0    0  503    0 -0.00000000000E+00  0.00000000000E+00  0.15854404037E+04  0.15854404037E+04  0.00000000000E+00 0. -1.
          2   -1    0    0  502    0  0.00000000000E+00 -0.00000000000E+00 -0.11451900973E+03  0.11451900973E+03  0.00000000000E+00 0. -1.
         25    2    1    2    0    0 -0.42272823740E+02  0.10923759220E+03  0.22450417718E+02  0.17277402503E+03  0.12500799692E+03 0.  0.
          4    1    3    3  501    0  0.35670099153E+02 -0.65377162726E+00 -0.23586802106E+01  0.35776523912E+02  0.12700000000E+01 0. -1.
         -4    1    3    3    0  501 -0.77942922893E+02  0.10989136383E+03  0.24809097929E+02  0.13699750112E+03  0.12700000000E+01 0. -1.
          2    1    1    2  502    0 -0.78309757325E+01 -0.28904584740E+02 -0.31920839803E+02  0.43769158247E+02  0.00000000000E+00 0. -1.
          1    1    1    2  503    0  0.50103799473E+02 -0.80333007459E+02  0.14803918161E+04  0.14834162302E+04  0.00000000000E+00 0. -1.
<mgrwt>
<rscale>  0 0.53360374E+02</rscale>
<asrwt>0</asrwt>
<pdfrwt beam="2">  1        2 0.17618310E-01 0.29946606E+02</pdfrwt>
<pdfrwt beam="1">  1        1 0.24391389E+00 0.95080209E+02</pdfrwt>
<totfact> 0.27648907E+02</totfact>
</mgrwt>
</event>
<event>
 7    1  0.4251803E-004  0.4134960E+02  0.7546771E-02  0.1527310E+00
         -1   -1    0    0    0  501 -0.00000000000E+00  0.00000000000E+00  0.63928915630E+02  0.63928915630E+02  0.00000000000E+00 0.  1.
          1   -1    0    0  503    0  0.00000000000E+00 -0.00000000000E+00 -0.20627210335E+03  0.20627210335E+03  0.00000000000E+00 0. -1.
         25    2    1    2    0    0 -0.24006019730E+01  0.36300382365E+02 -0.10154368973E+03  0.16510576234E+03  0.12500124472E+03 0.  0.
          4    1    3    3  502    0  0.87252427998E+01 -0.31938245657E+02  0.93418924157E+01  0.34424776709E+02  0.12700000000E+01 0. -1.
         -4    1    3    3    0  502 -0.11125844773E+02  0.68238628022E+02 -0.11088558215E+03  0.13068098563E+03  0.12700000000E+01 0. -1.
          1    1    1    2  503    0 -0.32470979344E+02 -0.10223000128E+02 -0.50098102750E+02  0.60569745999E+02  0.00000000000E+00 0. -1.
         -1    1    1    2    0  501  0.34871581317E+02 -0.26077382237E+02  0.92986047612E+01  0.44525510647E+02  0.00000000000E+00 0.  1.
<mgrwt>
<rscale>  0 0.37518436E+02</rscale>
<asrwt>0</asrwt>
<pdfrwt beam="2">  1        1 0.31734171E-01 0.34042242E+02</pdfrwt>
<pdfrwt beam="1">  1       -1 0.98352175E-02 0.41349599E+02</pdfrwt>
<totfact> 0.74573277E+03</totfact>
</mgrwt>
</event>
<event>
 7    1  0.4251803E-004  0.8479426E+02  0.7546771E-02  0.1496474E+00
          1   -1    0    0  503    0 -0.00000000000E+00  0.00000000000E+00  0.46249335842E+03  0.46249335842E+03  0.00000000000E+00 0. -1.
          2   -1    0    0  502    0  0.00000000000E+00 -0.00000000000E+00 -0.98923235856E+03  0.98923235856E+03  0.00000000000E+00 0.  1.
         25    2    1    2    0    0  0.29607114064E+02 -0.89027377766E+02 -0.19014122288E+03  0.24613280367E+03  0.12500086884E+03 0.  0.
          4    1    3    3  501    0  0.64070710547E+02 -0.98680221100E+02 -0.16378186117E+03  0.20166544804E+03  0.12700000000E+01 0. -1.
         -4    1    3    3    0  501 -0.34463596483E+02  0.96528433336E+01 -0.26359361708E+02  0.44467355629E+02  0.12700000000E+01 0. -1.
          2    1    1    2  502    0  0.12938968894E+02  0.15834709121E+02 -0.76683382853E+03  0.76710643036E+03  0.00000000000E+00 0.  1.
          1    1    1    2  503    0 -0.42546082958E+02  0.73192668645E+02  0.43023605127E+03  0.43848648295E+03  0.00000000000E+00 0. -1.
<mgrwt>
<rscale>  0 0.41640654E+02</rscale>
<asrwt>0</asrwt>
<pdfrwt beam="2">  1        2 0.15218959E+00 0.20448837E+02</pdfrwt>
<pdfrwt beam="1">  1        1 0.71152825E-01 0.84794263E+02</pdfrwt>
<totfact> 0.21379862E+02</totfact>
</mgrwt>
</event>
<event>
 7    1  0.4251803E-004  0.5774866E+02  0.7546771E-02  0.1461234E+00
         -1   -1    0    0    0  501  0.00000000000E+00  0.00000000000E+00  0.22507816251E+03  0.22507816251E+03  0.00000000000E+00 0.  1.
         -1   -1    0    0    0  502 -0.00000000000E+00 -0.00000000000E+00 -0.45959729571E+03  0.45959729571E+03  0.00000000000E+00 0.  1.
         25    2    1    2    0    0 -0.36537100226E+02  0.21688577199E+01 -0.21059383144E+03  0.24762002158E+03  0.12500499833E+03 0.  0.
          4    1    3    3  503    0 -0.13407559720E+02  0.15455609777E+02 -0.21874172409E+03  0.21970023507E+03  0.12700000000E+01 0. -1.
         -4    1    3    3    0  503 -0.23129540505E+02 -0.13286752057E+02  0.81478926443E+01  0.27919786510E+02  0.12700000000E+01 0. -1.
         -1    1    1    2    0  501 -0.19553638883E+02 -0.33198035836E+02  0.20023595227E+03  0.20390902618E+03  0.00000000000E+00 0.  1.
         -1    1    1    2    0  502  0.56090739109E+02  0.31029178116E+02 -0.22416125402E+03  0.23314641046E+03  0.00000000000E+00 0.  1.
<mgrwt>
<rscale>  0 0.47169653E+02</rscale>
<asrwt>0</asrwt>
<pdfrwt beam="1">  1       -1 0.34627410E-01 0.38528618E+02</pdfrwt>
<pdfrwt beam="2">  1       -1 0.70707276E-01 0.57748663E+02</pdfrwt>
<totfact> 0.14407283E+02</totfact>
</mgrwt>
</event>
<event>
 7    1  0.4251803E-004  0.9288941E+02  0.7546771E-02  0.1354277E+00
         -1   -1    0    0    0  501 -0.00000000000E+00  0.00000000000E+00  0.78664998053E+03  0.78664998053E+03  0.00000000000E+00 0. -1.
          1   -1    0    0  503    0  0.00000000000E+00 -0.00000000000E+00 -0.44634211238E+03  0.44634211238E+03  0.00000000000E+00 0. -1.
         25    2    1    2    0    0  0.69207694640E+02 -0.69992959726E+01  0.16627745224E+03  0.21934685215E+03  0.12500462105E+03 0.  0.
          4    1    3    3  502    0  0.65531310171E+02  0.52111471222E+02  0.93716036627E+02  0.12567524206E+03  0.12700000000E+01 0.  1.
         -4    1    3    3    0  502  0.36763844697E+01 -0.59110767194E+02  0.72561415616E+02  0.93671610092E+02  0.12700000000E+01 0.  1.
          1    1    1    2  503    0  0.67747308335E+01 -0.54988657746E+02 -0.41390075042E+03  0.41759248157E+03  0.00000000000E+00 0. -1.
         -1    1    1    2    0  501 -0.75982425474E+02  0.61987953719E+02  0.58793116634E+03  0.59605275919E+03  0.00000000000E+00 0. -1.
<mgrwt>
<rscale>  0 0.71738997E+02</rscale>
<asrwt>0</asrwt>
<pdfrwt beam="2">  1        1 0.68668017E-01 0.55404417E+02</pdfrwt>
<pdfrwt beam="1">  1       -1 0.12102307E+00 0.92889412E+02</pdfrwt>
<totfact> 0.37538828E+01</totfact>
</mgrwt>
</event>
<event>
 7    1  0.4251803E-004  0.1339569E+03  0.7546771E-02  0.1278469E+00
          2   -1    0    0  502    0  0.00000000000E+00  0.00000000000E+00  0.10916767505E+04  0.10916767505E+04  0.00000000000E+00 0. -1.
          2   -1    0    0  503    0 -0.00000000000E+00 -0.00000000000E+00 -0.11524387353E+03  0.11524387353E+03  0.00000000000E+00 0. -1.
         25    2    1    2    0    0 -0.24821334592E+02 -0.13546306220E+03  0.63226383919E+03  0.65905122978E+03  0.12499848501E+03 0.  0.
          4    1    3    3  501    0 -0.12497921450E+02 -0.33666765608E+02  0.43720293453E+03  0.43867717972E+03  0.12700000000E+01 0.  1.
         -4    1    3    3    0  501 -0.12323413142E+02 -0.10179629660E+03  0.19506090466E+03  0.22037405006E+03  0.12700000000E+01 0.  1.
          2    1    1    2  502    0  0.94093768683E+02  0.10429537383E+03  0.41858854462E+03  0.44152863100E+03  0.00000000000E+00 0. -1.
          2    1    1    2  503    0 -0.69272434091E+02  0.31167688372E+02 -0.74419506853E+02  0.10634076323E+03  0.00000000000E+00 0. -1.
<mgrwt>
<rscale>  0 0.10087377E+03</rscale>
<asrwt>0</asrwt>
<pdfrwt beam="1">  1        2 0.16795026E+00 0.13395689E+03</pdfrwt>
<pdfrwt beam="2">  1        2 0.17729827E-01 0.75961141E+02</pdfrwt>
<totfact> 0.11310884E+03</totfact>
</mgrwt>
</event>
<event>
 7    1  0.4251803E-004  0.5054647E+02  0.7546771E-02  0.1561575E+00
          1   -1    0    0  502    0  0.00000000000E+00  0.00000000000E+00  0.54023086809E+03  0.54023086809E+03  0.00000000000E+00 0. -1.
          1   -1    0    0  503    0 -0.00000000000E+00 -0.00000000000E+00 -0.64549693284E+03  0.64549693284E+03  0.00000000000E+00 0. -1.
         25    2    1    2    0    0  0.54187966680E+02 -0.12969266487E+02  0.25609674914E+03  0.29039743532E+03  0.12506233613E+03 0.  0.
          4    1    3    3  501    0  0.72755567102E+02 -0.19908444629E+02  0.68960352551E+02  0.10220989109E+03  0.12700000000E+01 0.  1.
         -4    1    3    3    0  501 -0.18567600423E+02  0.69391781420E+01  0.18713639659E+03  0.18818754424E+03  0.12700000000E+01 0.  1.
          1    1    1    2  502    0 -0.13851418248E+02 -0.17489049998E+02  0.26549871376E+03  0.26643441156E+03  0.00000000000E+00 0. -1.
          1    1    1    2  503    0 -0.40336548432E+02  0.30458316485E+02 -0.62686152764E+03  0.62889595405E+03  0.00000000000E+00 0. -1.
<mgrwt>
<rscale>  0 0.33580998E+02</rscale>
<asrwt>0</asrwt>
<pdfrwt beam="1">  1        1 0.83112442E-01 0.22309833E+02</pdfrwt>
<pdfrwt beam="2">  1        1 0.99307220E-01 0.50546475E+02</pdfrwt>
<totfact> 0.17650603E+02</totfact>
</mgrwt>
</event>
<event>
 7    1  0.4251803E-004  0.7493559E+02  0.7546771E-02  0.1422684E+00
          2   -1    0    0  502    0  0.00000000000E+00  0.00000000000E+00  0.22044491893E+04  0.22044491893E+04  0.00000000000E+00 0. -1.
          1   -1    0    0  503    0 -0.00000000000E+00 -0.00000000000E+00 -0.94938726955E+01  0.94938726955E+01  0.00000000000E+00 0. -1.
         25    2    1    2    0    0  0.31806156278E+01  0.90806888966E+02  0.18127065794E+04  0.18192813094E+04  0.12499332938E+03 0.  0.
          4    1    3    3  501    0 -0.38816216432E+02  0.67719658421E+02  0.15668842026E+04  0.15688277050E+04  0.12700000000E+01 0. -1.
         -4    1    3    3    0  501  0.41996832060E+02  0.23087230545E+02  0.24582237686E+03  0.25045360445E+03  0.12700000000E+01 0. -1.
          2    1    1    2  502    0 -0.20136719335E+02 -0.55048340336E+02  0.22514242047E+03  0.23264762353E+03  0.00000000000E+00 0. -1.
          1    1    1    2  503    0  0.16956103707E+02 -0.35758548630E+02  0.15710631666E+03  0.16201412897E+03  0.00000000000E+00 0. -1.
<mgrwt>
<rscale>  0 0.54457126E+02</rscale>
<asrwt>0</asrwt>
<pdfrwt beam="1">  1        2 0.33914562E+00 0.74935593E+02</pdfrwt>
<pdfrwt beam="2">  1        1 0.14605976E-02 0.39575033E+02</pdfrwt>
<totfact> 0.65400924E+03</totfact>
</mgrwt>
</event>
<event>
 7    1  0.4251803E-004  0.5839393E+02  0.7546771E-02  0.1407978E+00
          1   -1    0    0  503    0 -0.00000000000E+00  0.00000000000E+00  0.78810344431E+03  0.78810344431E+03  0.00000000000E+00 0. -1.
          2   -1    0    0  502    0  0.00000000000E+00 -0.00000000000E+00 -0.58243991082E+03  0.58243991082E+03  0.00000000000E+00 0. -1.
         25    2    1    2    0    0  0.12741998577E+02 -0.65091384487E+02  0.13560515459E+03  0.19599030708E+03  0.12499678258E+03 0.  0.
          4    1    3    3  501    0  0.65208226376E+01 -0.75327201238E+02  0.15539805099E+03  0.17282035623E+03  0.12700000000E+01 0. -1.
         -4    1    3    3    0  501  0.62211759389E+01  0.10235816750E+02 -0.19792896400E+02  0.23169950852E+02  0.12700000000E+01 0. -1.
          2    1    1    2  502    0 -0.52734025842E+02  0.21399649942E+02 -0.54936462831E+03  0.55230455125E+03  0.00000000000E+00 0. -1.
          1    1    1    2  503    0  0.39992027266E+02  0.43691734546E+02  0.61942300721E+03  0.62224849680E+03  0.00000000000E+00 0. -1.
<mgrwt>
<rscale>  0 0.57647520E+02</rscale>
<asrwt>0</asrwt>
<pdfrwt beam="2">  1        2 0.89606140E-01 0.56910654E+02</pdfrwt>
<pdfrwt beam="1">  1        1 0.12124668E+00 0.58393928E+02</pdfrwt>
<totfact> 0.18788447E+02</totfact>
</mgrwt>
</event>
<event>
 7    1  0.4251803E-004  0.9126202E+02  0.7546771E-02  0.1329502E+00
          1   -1    0    0  503    0  0.00000000000E+00  0.00000000000E+00  0.90600712447E+03  0.90600712447E+03  0.00000000000E+00 0. -1.
          1   -1    0    0  502    0 -0.00000000000E+00 -0.00000000000E+00 -0.40637873621E+04  0.40637873621E+04  0.00000000000E+00 0. -1.
         25    2    1    2    0    0 -0.62744034186E+02 -0.97359030280E+02 -0.44076443746E+03  0.47256182825E+03  0.12500319030E+03 0.  0.
          4    1    3    3  501    0 -0.37809621277E+02 -0.12474577699E+03 -0.37584951429E+03  0.39781345707E+03  0.12700000000E+01 0. -1.
         -4    1    3    3    0  501 -0.24934412909E+02  0.27386746713E+02 -0.64914923171E+02  0.74748371173E+02  0.12700000000E+01 0. -1.
          1    1    1    2  502    0 -0.22944596826E+02  0.65973964250E+02 -0.36044460503E+04  0.36051227924E+04  0.00000000000E+00 0. -1.
          1    1    1    2  503    0  0.85688631012E+02  0.31385066030E+02  0.88743025020E+03  0.89210986589E+03  0.00000000000E+00 0. -1.
<mgrwt>
<rscale>  0 0.79841402E+02</rscale>
<asrwt>0</asrwt>
<pdfrwt beam="1">  1        1 0.13938571E+00 0.91262019E+02</pdfrwt>
<pdfrwt beam="2">  1        1 0.62519807E+00 0.69849971E+02</pdfrwt>
<totfact> 0.36093791E-01</totfact>
</mgrwt>
</event>
<event>
 7    1  0.4251803E-004  0.3149538E+02  0.7546771E-02  0.1642856E+00
          1   -1    0    0  503    0  0.00000000000E+00  0.00000000000E+00  0.89167982226E+03  0.89167982226E+03  0.00000000000E+00 0. -1.
          1   -1    0    0  502    0 -0.00000000000E+00 -0.00000000000E+00 -0.20660139955E+02  0.20660139955E+02  0.00000000000E+00 0. -1.
         25    2    1    2    0    0 -0.16544702732E+02 -0.35169109701E+02  0.25868291054E+03  0.28991731087E+03  0.12499842186E+03 0.  0.
          4    1    3    3  501    0  0.21501504176E+02 -0.46045322009E+02  0.24144225982E+03  0.24673561577E+03  0.12700000000E+01 0. -1.
         -4    1    3    3    0  501 -0.38046206909E+02  0.10876212307E+02  0.17240650721E+02  0.43181695098E+02  0.12700000000E+01 0. -1.
          1    1    1    2  502    0  0.21593832033E+02  0.41018551117E+01  0.21495780410E+02  0.30743899763E+02  0.00000000000E+00 0. -1.
          1    1    1    2  503    0 -0.50491293004E+01  0.31067254590E+02  0.59084099136E+03  0.59167875159E+03  0.00000000000E+00 0. -1.
<mgrwt>
<rscale>  0 0.26310974E+02</rscale>
<asrwt>0</asrwt>
<pdfrwt beam="1">  1        1 0.13718148E+00 0.31495382E+02</pdfrwt>
<pdfrwt beam="2">  1        1 0.31784838E-02 0.21979964E+02</pdfrwt>
<totfact> 0.60551649E+03</totfact>
</mgrwt>
</event>
<event>
 7    1  0.4251803E-004  0.6968897E+02  0.7546771E-02  0.1388611E+00
         -1   -1    0    0    0  501 -0.00000000000E+00  0.00000000000E+00  0.23972387218E+03  0.23972387218E+03  0.00000000000E+00 0.  1.
          2   -1    0    0  503    0  0.00000000000E+00 -0.00000000000E+00 -0.87753689441E+03  0.87753689441E+03  0.00000000000E+00 0. -1.
         25    2    1    2    0    0 -0.42815626705E+02  0.35680912592E+02 -0.26486460478E+03  0.29813173323E+03  0.12499186405E+03 0.  0.
          4    1    3    3  502    0  0.72646791640E+01 -0.10933614965E+02 -0.21002694772E+03  0.21044061197E+03  0.12700000000E+01 0.  1.
         -4    1    3    3    0  502 -0.50080305869E+02  0.46614527557E+02 -0.54837657068E+02  0.87691121260E+02  0.12700000000E+01 0.  1.
          2    1    1    2  503    0  0.43471604020E+02  0.34682089218E+02 -0.58914791514E+03  0.59176675607E+03  0.00000000000E+00 0. -1.
         -1    1    1    2    0  501 -0.65597731582E+00 -0.70363001809E+02  0.21619949770E+03  0.22736227729E+03  0.00000000000E+00 0.  1.
<mgrwt>
<rscale>  0 0.62253523E+02</rscale>
<asrwt>0</asrwt>
<pdfrwt beam="2">  1        2 0.13500568E+00 0.55611399E+02</pdfrwt>
<pdfrwt beam="1">  1       -1 0.36880596E-01 0.69688971E+02</pdfrwt>
<totfact> 0.27318181E+02</totfact>
</mgrwt>
</event>
<event>
 7    1  0.4251803E-004  0.3343265E+02  0.7546771E-02  0.1566092E+00
         -2   -1    0    0    0  501 -0.00000000000E+00  0.00000000000E+00  0.11144657972E+03  0.11144657972E+03  0.00000000000E+00 0.  1.
          2   -1    0    0  503    0  0.00000000000E+00 -0.00000000000E+00 -0.42637431231E+03  0.42637431231E+03  0.00000000000E+00 0.  1.
         25    2    1    2    0    0 -0.21913668720E+02  0.15053654215E+02 -0.35087442083E+03  0.37342599403E+03  0.12500916944E+03 0.  0.
          4    1    3    3  502    0 -0.33928056943E+02  0.11051226157E+02 -0.17418558025E+02  0.39727342111E+02  0.12700000000E+01 0. -1.
         -4    1    3    3    0  502  0.12014388224E+02  0.40024280579E+01 -0.33345586280E+03  0.33369865192E+03  0.12700000000E+01 0. -1.
          2    1    1    2  503    0  0.38329101172E+01 -0.42399568748E+02 -0.53940160323E+02  0.68716486563E+02  0.00000000000E+00 0.  1.
         -2    1    1    2    0  501  0.18080758602E+02  0.27345914533E+02  0.89886848554E+02  0.95678411443E+02  0.00000000000E+00 0.  1.
<mgrwt>
<rscale>  0 0.33106138E+02</rscale>
<asrwt>0</asrwt>
<pdfrwt beam="2">  1        2 0.65596047E-01 0.33432652E+02</pdfrwt>
<pdfrwt beam="1">  1       -2 0.17145628E-01 0.32782814E+02</pdfrwt>
<totfact> 0.18662070E+03</totfact>
</mgrwt>
</event>
<event>
 7    1  0.4251803E-004  0.8797831E+02  0.7546771E-02  0.1457117E+00
          2   -1    0    0  503    0  0.00000000000E+00  0.00000000000E+00  0.13402394393E+04  0.13402394393E+04  0.00000000000E+00 0. -1.
          2   -1    0    0  502    0 -0.00000000000E+00 -0.00000000000E+00 -0.11934701869E+03  0.11934701869E+03  0.00000000000E+00 0. -1.
         25    2    1    2    0    0 -0.47988073350E+02 -0.90164970193E+02  0.18145604551E+03  0.24286377730E+03  0.12499576328E+03 0.  0.
          4    1    3    3  501    0  0.70341991015E+01 -0.83444563568E+02  0.16498267415E+03  0.18502262244E+03  0.12700000000E+01 0. -1.
         -4    1    3    3    0  501 -0.55022272452E+02 -0.67204066243E+01  0.16473371360E+02  0.57841154855E+02  0.12700000000E+01 0. -1.
          2    1    1    2  502    0  0.56781363575E+02  0.65634719242E+02 -0.67210362505E+02  0.10976917804E+03  0.00000000000E+00 0. -1.
          2    1    1    2  503    0 -0.87932902246E+01  0.24530250951E+02  0.11066467376E+04  0.11069535026E+04  0.00000000000E+00 0. -1.
<mgrwt>
<rscale>  0 0.47881096E+02</rscale>
<asrwt>0</asrwt>
<pdfrwt beam="1">  1        2 0.20619067E+00 0.26058687E+02</pdfrwt>
<pdfrwt beam="2">  1        2 0.18361081E-01 0.87978314E+02</pdfrwt>
<totfact> 0.90294060E+02</totfact>
</mgrwt>
</event>
<event>
 7    1  0.4251803E-004  0.1277418E+03  0.7546771E-02  0.1320324E+00
         -2   -1    0    0    0  501 -0.00000000000E+00  0.00000000000E+00  0.10664367734E+03  0.10664367734E+03  0.00000000000E+00 0.  1.
          1   -1    0    0  503    0  0.00000000000E+00 -0.00000000000E+00 -0.24068767090E+04  0.24068767090E+04  0.00000000000E+00 0. -1.
         25    2    1    2    0    0  0.14890080430E+03  0.14337324803E+02 -0.64900353673E+03  0.67764704236E+03  0.12499165941E+03 0.  0.
          4    1    3    3  502    0  0.62343945902E+01 -0.35179123019E+02 -0.62399747086E+02  0.71915086795E+02  0.12700000000E+01 0. -1.
         -4    1    3    3    0  502  0.14266640971E+03  0.49516447822E+02 -0.58660378965E+03  0.60573195557E+03  0.12700000000E+01 0. -1.
          1    1    1    2  503    0 -0.34904202000E+02  0.41377706473E+02 -0.16993201370E+04  0.17001821508E+04  0.00000000000E+00 0. -1.
         -2    1    1    2    0  501 -0.11399660230E+03 -0.55715031276E+02  0.48090642088E+02  0.13569119317E+03  0.00000000000E+00 0.  1.
<mgrwt>
<rscale>  0 0.83157012E+02</rscale>
<asrwt>0</asrwt>
<pdfrwt beam="2">  1        1 0.37028872E+00 0.54133335E+02</pdfrwt>
<pdfrwt beam="1">  1       -2 0.16406720E-01 0.12774178E+03</pdfrwt>
<totfact> 0.58016190E+01</totfact>
</mgrwt>
</event>
<event>
 7    1  0.4251803E-004  0.1211751E+03  0.7546771E-02  0.1272729E+00
          1   -1    0    0  503    0 -0.00000000000E+00  0.00000000000E+00  0.81530883326E+03  0.81530883326E+03  0.00000000000E+00 0. -1.
          2   -1    0    0  502    0  0.00000000000E+00 -0.00000000000E+00 -0.17141551860E+04  0.17141551860E+04  0.00000000000E+00 0. -1.
         25    2    1    2    0    0  0.13329744000E+03  0.45337320320E+02 -0.35538202860E+02  0.19160277357E+03  0.12499991541E+03 0.  0.
          4    1    3    3  501    0 -0.20313389726E+02  0.50411454419E+01 -0.24729053813E+02  0.32421997964E+02  0.12700000000E+01 0.  1.
         -4    1    3    3    0  501  0.15361082972E+03  0.40296174879E+02 -0.10809149047E+02  0.15918077560E+03  0.12700000000E+01 0.  1.
          2    1    1    2  502    0 -0.65359756565E+02 -0.10239932742E+03 -0.15955982819E+04  0.16002160471E+04  0.00000000000E+00 0. -1.
          1    1    1    2  503    0 -0.67937683432E+02  0.57062007096E+02  0.73229013207E+03  0.73764519859E+03  0.00000000000E+00 0. -1.
<mgrwt>
<rscale>  0 0.10368655E+03</rscale>
<asrwt>0</asrwt>
<pdfrwt beam="2">  1        2 0.26371618E+00 0.12117507E+03</pdfrwt>
<pdfrwt beam="1">  1        1 0.12543213E+00 0.88722046E+02</pdfrwt>
<totfact> 0.36725188E+01</totfact>
</mgrwt>
</event>
<event>
 7    1  0.4251803E-004  0.4236567E+02  0.7546771E-02  0.1502900E+00
          1   -1    0    0  502    0  0.00000000000E+00  0.00000000000E+00  0.10757099655E+04  0.10757099655E+04  0.00000000000E+00 0. -1.
          3   -1    0    0  503    0 -0.00000000000E+00 -0.00000000000E+00 -0.16213323172E+02  0.16213323172E+02  0.00000000000E+00 0. -1.
         25    2    1    2    0    0  0.61416771322E+02 -0.97714792458E+01  0.48541349061E+03  0.50509426615E+03  0.12500583676E+03 0.  0.
          4    1    3    3  501    0  0.10812999023E+02 -0.49727328807E+02  0.36469099101E+03  0.36822664217E+03  0.12700000000E+01 0.  1.
         -4    1    3    3    0  501  0.50603772298E+02  0.39955849561E+02  0.12072249960E+03  0.13686762398E+03  0.12700000000E+01 0.  1.
          1    1    1    2  502    0 -0.36385426477E+02 -0.20342957540E+02  0.51019211045E+03  0.51189229799E+03  0.00000000000E+00 0. -1.
          3    1    1    2  503    0 -0.25031344845E+02  0.30114436785E+02  0.63891041225E+02  0.74936724485E+02  0.00000000000E+00 0. -1.
<mgrwt>
<rscale>  0 0.40730925E+02</rscale>
<asrwt>0</asrwt>
<pdfrwt beam="1">  1        1 0.16549378E+00 0.42365671E+02</pdfrwt>
<pdfrwt beam="2">  1        3 0.24943583E-02 0.39159259E+02</pdfrwt>
<totfact> 0.44071401E+03</totfact>
</mgrwt>
</event>
<event>
 7    1  0.4251803E-004  0.1195156E+03  0.7546771E-02  0.1329299E+00
          1   -1    0    0  503    0 -0.00000000000E+00  0.00000000000E+00  0.15539301808E+03  0.15539301808E+03  0.00000000000E+00 0.  1.
          2   -1    0    0  502    0  0.00000000000E+00 -0.00000000000E+00 -0.98150191352E+03  0.98150191352E+03  0.00000000000E+00 0. -1.
         25    2    1    2    0    0 -0.11235788282E+03  0.64887205334E+02 -0.28575095017E+03  0.33780825631E+03  0.12500467695E+03 0.  0.
          4    1    3    3  501    0 -0.63355487848E+02 -0.31611661129E+02 -0.13176369822E+03  0.14958776698E+03  0.12700000000E+01 0.  1.
         -4    1    3    3    0  501 -0.49002394969E+02  0.96498866463E+02 -0.15398725195E+03  0.18822048933E+03  0.12700000000E+01 0.  1.
          2    1    1    2  502    0  0.11876862195E+03 -0.11840457975E+02 -0.65860211914E+03  0.66933021249E+03  0.00000000000E+00 0. -1.
          1    1    1    2  503    0 -0.64107391295E+01 -0.53046747358E+02  0.11824417388E+03  0.12975646280E+03  0.00000000000E+00 0.  1.
<mgrwt>
<rscale>  0 0.79912732E+02</rscale>
<asrwt>0</asrwt>
<pdfrwt beam="2">  1        2 0.15100029E+00 0.11951563E+03</pdfrwt>
<pdfrwt beam="1">  1        1 0.23906618E-01 0.53432715E+02</pdfrwt>
<totfact> 0.74119495E+02</totfact>
</mgrwt>
</event>
<event>
 7    1  0.4251803E-004  0.1631271E+03  0.7546771E-02  0.1212026E+00
          2   -1    0    0  503    0  0.00000000000E+00  0.00000000000E+00  0.10359339325E+04  0.10359339325E+04  0.00000000000E+00 0. -1.
          2   -1    0    0  502    0 -0.00000000000E+00 -0.00000000000E+00 -0.57902878344E+03  0.57902878344E+03  0.00000000000E+00 0.  1.
         25    2    1    2    0    0  0.21634322341E+03  0.49424305981E+02  0.66347093724E+01  0.25478030192E+03  0.12498732152E+03 0.  0.
          4    1    3    3  501    0  0.39970135036E+02 -0.51168784358E+01 -0.47582472732E+02  0.62365846029E+02  0.12700000000E+01 0. -1.
         -4    1    3    3    0  501  0.17637308837E+03  0.54541184417E+02  0.54217182104E+02  0.19241445589E+03  0.12700000000E+01 0. -1.
          2    1    1    2  502    0 -0.15087393523E+03  0.53316549113E+02 -0.43659136292E+03  0.46499206113E+03  0.00000000000E+00 0.  1.
          2    1    1    2  503    0 -0.65469288174E+02 -0.10274085509E+03  0.88686180263E+03  0.89519035292E+03  0.00000000000E+00 0. -1.
<mgrwt>
<rscale>  0 0.14097287E+03</rscale>
<asrwt>0</asrwt>
<pdfrwt beam="1">  1        2 0.15937445E+00 0.12182738E+03</pdfrwt>
<pdfrwt beam="2">  1        2 0.89081352E-01 0.16312711E+03</pdfrwt>
<totfact> 0.21568747E+02</totfact>
</mgrwt>
</event>
<event>
 7    1  0.4251803E-004  0.6014741E+02  0.7546771E-02  0.1542845E+00
         -1   -1    0    0    0  501 -0.00000000000E+00  0.00000000000E+00  0.15842679972E+03  0.15842679972E+03  0.00000000000E+00 0.  1.
          2   -1    0    0  503    0  0.00000000000E+00 -0.00000000000E+00 -0.84224947839E+02  0.84224947839E+02  0.00000000000E+00 0. -1.
         25    2    1    2    0    0  0.43271885293E+02 -0.14652568630E+02  0.13068229279E+02  0.13373981879E+03  0.12501362602E+03 0.  0.
          4    1    3    3  502    0 -0.28429991193E+02 -0.17374567242E+01 -0.35977013528E+02  0.45904700822E+02  0.12700000000E+01 0.  1.
         -4    1    3    3    0  502  0.71701876487E+02 -0.12915111906E+02  0.49045242807E+02  0.87835117972E+02  0.12700000000E+01 0.  1.
          2    1    1    2  503    0  0.19894530923E+02  0.71432559928E+01  0.66870548148E+00  0.21148655603E+02  0.00000000000E+00 0. -1.
         -1    1    1    2    0  501 -0.63166416216E+02  0.75093126370E+01  0.60464917123E+02  0.87763273164E+02  0.00000000000E+00 0.  1.
<mgrwt>
<rscale>  0 0.35656709E+02</rscale>
<asrwt>0</asrwt>
<pdfrwt beam="2">  1        2 0.12957684E-01 0.21138081E+02</pdfrwt>
<pdfrwt beam="1">  1       -1 0.24373354E-01 0.60147412E+02</pdfrwt>
<totfact> 0.63317610E+03</totfact>
</mgrwt>
</event>
<event>
 7    1  0.4251803E-004  0.4224902E+02  0.7546771E-02  0.1574795E+00
          2   -1    0    0  503    0  0.00000000000E+00  0.00000000000E+00  0.34512717437E+03  0.34512717437E+03  0.00000000000E+00 0. -1.
         -2   -1    0    0    0  501 -0.00000000000E+00 -0.00000000000E+00 -0.43406372400E+02  0.43406372400E+02  0.00000000000E+00 0.  1.
         25    2    1    2    0    0 -0.54539385750E+02  0.15070137000E+00  0.15568593870E+03  0.20697006397E+03  0.12499571418E+03 0.  0.
          4    1    3    3  502    0  0.25213552333E+02 -0.21736691602E+02  0.10454611216E+03  0.10972560983E+03  0.12700000000E+01 0. -1.
         -4    1    3    3    0  502 -0.79752938083E+02  0.21887392972E+02  0.51139826538E+02  0.97244454147E+02  0.12700000000E+01 0. -1.
          2    1    1    2  503    0  0.17237797122E+02 -0.17505423262E+02  0.13733160128E+03  0.13951182818E+03  0.00000000000E+00 0. -1.
         -2    1    1    2    0  501  0.37301588628E+02  0.17354721892E+02  0.87032619849E+01  0.42051654609E+02  0.00000000000E+00 0.  1.
<mgrwt>
<rscale>  0 0.32217533E+02</rscale>
<asrwt>0</asrwt>
<pdfrwt beam="1">  1        2 0.53096487E-01 0.24567896E+02</pdfrwt>
<pdfrwt beam="2">  1       -2 0.66779037E-02 0.42249016E+02</pdfrwt>
<totfact> 0.99355999E+03</totfact>
</mgrwt>
</event>
<event>
 7    1  0.4251803E-004  0.7557081E+02  0.7546771E-02  0.1346313E+00
          1   -1    0    0  503    0  0.00000000000E+00  0.00000000000E+00  0.25742934379E+04  0.25742934379E+04  0.00000000000E+00 0. -1.
         -1   -1    0    0    0  501 -0.00000000000E+00 -0.00000000000E+00 -0.25673554109E+03  0.25673554109E+03  0.00000000000E+00 0.  1.
         25    2    1    2    0    0  0.26143053796E+02  0.55965502634E+01 -0.64900227213E+02  0.14335819452E+03  0.12499900722E+03 0.  0.
          4    1    3    3  502    0 -0.19727240510E+02  0.32338742603E+02 -0.79674166216E+02  0.88230062640E+02  0.12700000000E+01 0.  1.
         -4    1    3    3    0  502  0.45870294306E+02 -0.26742192340E+02  0.14773939003E+02  0.55128131880E+02  0.12700000000E+01 0.  1.
          1    1    1    2  503    0  0.46209268181E+02  0.56367532907E+02  0.25196202161E+04  0.25206742409E+04  0.00000000000E+00 0. -1.
         -1    1    1    2    0  501 -0.72352321978E+02 -0.61964083171E+02 -0.13716209203E+03  0.16699654365E+03  0.00000000000E+00 0.  1.
<mgrwt>
<rscale>  0 0.74217056E+02</rscale>
<asrwt>0</asrwt>
<pdfrwt beam="1">  1        1 0.39604513E+00 0.72887552E+02</pdfrwt>
<pdfrwt beam="2">  1       -1 0.39497777E-01 0.75570811E+02</pdfrwt>
<totfact> 0.10924667E+01</totfact>
</mgrwt>
</event>
<event>
 7    1  0.4251803E-004  0.7525522E+02  0.7546771E-02  0.1376277E+00
         -2   -1    0    0    0  501 -0.00000000000E+00  0.00000000000E+00  0.65211548165E+02  0.65211548165E+02  0.00000000000E+00 0.  1.
          2   -1    0    0  503    0  0.00000000000E+00 -0.00000000000E+00 -0.43201357603E+03  0.43201357603E+03  0.00000000000E+00 0. -1.
         25    2    1    2    0    0  0.47061330990E+02  0.11300273686E+03 -0.14038171472E+03  0.22431423917E+03  0.12500185861E+03 0.  0.
          4    1    3    3  502    0  0.22865030019E+02  0.13767445504E+03 -0.12074271420E+03  0.18454669084E+03  0.12700000000E+01 0. -1.
         -4    1    3    3    0  502  0.24196300971E+02 -0.24671718183E+02 -0.19639000519E+02  0.39767548330E+02  0.12700000000E+01 0. -1.
          2    1    1    2  503    0 -0.39459920932E+02 -0.56585797806E+02 -0.19720906111E+03  0.20892690506E+03  0.00000000000E+00 0. -1.
         -2    1    1    2    0  501 -0.76014100574E+01 -0.56416939050E+02 -0.29211252035E+02  0.63983979964E+02  0.00000000000E+00 0.  1.
<mgrwt>
<rscale>  0 0.65452528E+02</rscale>
<asrwt>0</asrwt>
<pdfrwt beam="2">  1        2 0.66463628E-01 0.75255220E+02</pdfrwt>
<pdfrwt beam="1">  1       -2 0.10032546E-01 0.56926729E+02</pdfrwt>
<totfact> 0.44132646E+03</totfact>
</mgrwt>
</event>
<event>
 7    1  0.4251803E-004  0.7806412E+02  0.7546771E-02  0.1473266E+00
          1   -1    0    0  503    0  0.00000000000E+00  0.00000000000E+00  0.60344379132E+03  0.60344379132E+03  0.00000000000E+00 0. -1.
         -2   -1    0    0    0  501 -0.00000000000E+00 -0.00000000000E+00 -0.32643660321E+02  0.32643660321E+02  0.00000000000E+00 0.  1.
         25    2    1    2    0    0  0.74623773252E+02 -0.16157751866E+02  0.19167945840E+03  0.24124035158E+03  0.12500444784E+03 0.  0.
          4    1    3    3  502    0  0.10710599009E+03  0.56174658988E+01  0.13662282924E+03  0.17369703338E+03  0.12700000000E+01 0.  1.
         -4    1    3    3    0  502 -0.32482216834E+02 -0.21775217765E+02  0.55056629157E+02  0.67543318199E+02  0.12700000000E+01 0.  1.
          1    1    1    2  503    0  0.72594434574E+01  0.25111432469E+02  0.12521332991E+03  0.12791271066E+03  0.00000000000E+00 0. -1.
         -2    1    1    2    0  501 -0.81883216710E+02 -0.89536806028E+01  0.25390734269E+03  0.26693438941E+03  0.00000000000E+00 0.  1.
<mgrwt>
<rscale>  0 0.45172691E+02</rscale>
<asrwt>0</asrwt>
<pdfrwt beam="1">  1        1 0.92837498E-01 0.26139693E+02</pdfrwt>
<pdfrwt beam="2">  1       -2 0.50221020E-02 0.78064116E+02</pdfrwt>
<totfact> 0.57628068E+03</totfact>
</mgrwt>
</event>
<event>
 7    1  0.4251803E-004  0.6168110E+02  0.7546771E-02  0.1525136E+00
         -2   -1    0    0    0  501 -0.00000000000E+00  0.00000000000E+00  0.67801175535E+01  0.67801175535E+01  0.00000000000E+00 0.  1.
          2   -1    0    0  503    0  0.00000000000E+00 -0.00000000000E+00 -0.22098334242E+04  0.22098334242E+04  0.00000000000E+00 0. -1.
         25    2    1    2    0    0 -0.38419982718E+02 -0.17819081233E+02 -0.82749454592E+03  0.83795895141E+03  0.12503745832E+03 0.  0.
          4    1    3    3  502    0 -0.37936580516E+02 -0.56269116504E+02 -0.72998189160E+03  0.73313066542E+03  0.12700000000E+01 0.  1.
         -4    1    3    3    0  502 -0.48340220206E+00  0.38450035272E+02 -0.97512654324E+02  0.10482828599E+03  0.12700000000E+01 0.  1.
          2    1    1    2  503    0  0.56415227562E+02  0.32386457911E+02 -0.11676695754E+04  0.11694801400E+04  0.00000000000E+00 0.  1.
         -2    1    1    2    0  501 -0.17995244845E+02 -0.14567376678E+02 -0.20788918530E+03  0.20917445032E+03  0.00000000000E+00 0. -1.
<mgrwt>
<rscale>  0 0.37789820E+02</rscale>
<asrwt>0</asrwt>
<pdfrwt beam="2">  1        2 0.33997424E+00 0.61681105E+02</pdfrwt>
<pdfrwt beam="1">  1       -2 0.10430954E-02 0.23152479E+02</pdfrwt>
<totfact> 0.90383178E+03</totfact>
</mgrwt>
</event>
<event>
 7    1  0.4251803E-004  0.6579269E+02  0.7546771E-02  0.1407522E+00
          2   -1    0    0  502    0  0.00000000000E+00  0.00000000000E+00  0.18329196993E+04  0.18329196993E+04  0.00000000000E+00 0. -1.
          1   -1    0    0  503    0 -0.00000000000E+00 -0.00000000000E+00 -0.12435896453E+04  0.12435896453E+04  0.00000000000E+00 0. -1.
         25    2    1    2    0    0 -0.96351218389E+02 -0.57001438686E+02  0.60004093192E+03  0.62306136577E+03  0.12499449680E+03 0.  0.
          4    1    3    3  501    0 -0.98597444707E+02 -0.13579768742E+02  0.53896357648E+03  0.54807774621E+03  0.12700000000E+01 0. -1.
         -4    1    3    3    0  501  0.22462263176E+01 -0.43421669945E+02  0.61077355441E+02  0.74983619552E+02  0.12700000000E+01 0. -1.
          2    1    1    2  502    0  0.49507503685E+02  0.10890065766E+02  0.12199651461E+04  0.12210178312E+04  0.00000000000E+00 0. -1.
          1    1    1    2  503    0  0.46843714705E+02  0.46111372920E+02 -0.12306760240E+04  0.12324301475E+04  0.00000000000E+00 0. -1.
<mgrwt>
<rscale>  0 0.57750352E+02</rscale>
<asrwt>0</asrwt>
<pdfrwt beam="1">  1        2 0.28198765E+00 0.50691089E+02</pdfrwt>
<pdfrwt beam="2">  1        1 0.19132148E+00 0.65792692E+02</pdfrwt>
<totfact> 0.17658008E+01</totfact>
</mgrwt>
</event>
<event>
 7    1  0.4251803E-004  0.1445624E+03  0.7546771E-02  0.1316368E+00
          2   -1    0    0  502    0  0.00000000000E+00  0.00000000000E+00  0.10365246875E+04  0.10365246875E+04  0.00000000000E+00 0. -1.
          1   -1    0    0  503    0 -0.00000000000E+00 -0.00000000000E+00 -0.82332236653E+03  0.82332236653E+03  0.00000000000E+00 0. -1.
         25    2    1    2    0    0  0.71654600734E+02  0.72710521393E+02 -0.36941102210E+03  0.40312649752E+03  0.12500107208E+03 0.  0.
          4    1    3    3  501    0  0.91804636935E+01  0.17098172718E+01 -0.25282136982E+03  0.25299696110E+03  0.12700000000E+01 0.  1.
         -4    1    3    3    0  501  0.62474137041E+02  0.71000704121E+02 -0.11658965228E+03  0.15012953641E+03  0.12700000000E+01 0.  1.
          2    1    1    2  502    0 -0.79111663451E+02 -0.12170625102E+03  0.10130717721E+04  0.10234185275E+04  0.00000000000E+00 0. -1.
          1    1    1    2  503    0  0.74570627171E+01  0.48995729624E+02 -0.43045842903E+03  0.43330202910E+03  0.00000000000E+00 0. -1.
<mgrwt>
<rscale>  0 0.84643403E+02</rscale>
<asrwt>0</asrwt>
<pdfrwt beam="1">  1        2 0.15946534E+00 0.14456239E+03</pdfrwt>
<pdfrwt beam="2">  1        1 0.12666498E+00 0.49559957E+02</pdfrwt>
<totfact> 0.85083496E+01</totfact>
</mgrwt>
</event>
<event>
 7    1  0.4251803E-004  0.4347411E+02  0.7546771E-02  0.1494511E+00
          1   -1    0    0  503    0  0.00000000000E+00  0.00000000000E+00  0.95688587392E+03  0.95688587392E+03  0.00000000000E+00 0. -1.
         -1   -1    0    0    0  501 -0.00000000000E+00 -0.00000000000E+00 -0.12790932025E+02  0.12790932025E+02  0.00000000000E+00 0.  1.
         25    2    1    2    0    0 -0.10413349684E+02 -0.22585760112E+02  0.52327375615E+03  0.53857190030E+03  0.12500285402E+03 0.  0.
          4    1    3    3  502    0 -0.19246396212E+02 -0.25274705936E+01  0.51459867193E+03  0.51496622989E+03  0.12700000000E+01 0.  1.
         -4    1    3    3    0  502  0.88330465286E+01 -0.20058289518E+02  0.86750842129E+01  0.23605670410E+02  0.12700000000E+01 0.  1.
          1    1    1    2  503    0  0.50432718361E+02  0.16842013414E+02  0.23907951386E+03  0.24492065337E+03  0.00000000000E+00 0. -1.
         -1    1    1    2    0  501 -0.40019368678E+02  0.57437466981E+01  0.18174167189E+03  0.18618425228E+03  0.00000000000E+00 0.  1.
<mgrwt>
<rscale>  0 0.41924152E+02</rscale>
<asrwt>0</asrwt>
<pdfrwt beam="1">  1        1 0.14721315E+00 0.43474113E+02</pdfrwt>
<pdfrwt beam="2">  1       -1 0.19678365E-02 0.40429451E+02</pdfrwt>
<totfact> 0.10517380E+04</totfact>
</mgrwt>
</event>
<event>
 7    1  0.4251803E-004  0.2440556E+03  0.7546771E-02  0.1226794E+00
         -1   -1    0    0    0  501 -0.00000000000E+00  0.00000000000E+00  0.38124058840E+03  0.38124058840E+03  0.00000000000E+00 0.  1.
          1   -1    0    0  503    0  0.00000000000E+00 -0.00000000000E+00 -0.28756595074E+04  0.28756595074E+04  0.00000000000E+00 0. -1.
         25    2    1    2    0    0  0.20072856007E+03 -0.13582759199E+03 -0.15553583323E+04  0.15790838195E+04  0.12500030995E+03 0.  0.
          4    1    3    3  502    0  0.34002389505E+02  0.14969994797E+02 -0.42267259239E+03  0.42430413208E+03  0.12700000000E+01 0. -1.
         -4    1    3    3    0  502  0.16672617057E+03 -0.15079758678E+03 -0.11326857399E+04  0.11547796874E+04  0.12700000000E+01 0. -1.
          1    1    1    2  503    0 -0.16037085424E+03  0.19268417178E+03 -0.12929981866E+04  0.13170764259E+04  0.00000000000E+00 0. -1.
         -1    1    1    2    0  501 -0.40357705831E+02 -0.56856579792E+02  0.35393759992E+03  0.36073985048E+03  0.00000000000E+00 0.  1.
<mgrwt>
<rscale>  0 0.13044728E+03</rscale>
<asrwt>0</asrwt>
<pdfrwt beam="2">  1        1 0.44240916E+00 0.24405555E+03</pdfrwt>
<pdfrwt beam="1">  1       -1 0.58652398E-01 0.69723849E+02</pdfrwt>
<totfact> 0.28263096E+00</totfact>
</mgrwt>
</event>
<event>
 7    1  0.4251803E-004  0.7413962E+02  0.7546771E-02  0.1415800E+00
          2   -1    0    0  503    0  0.00000000000E+00  0.00000000000E+00  0.32771742172E+04  0.32771742172E+04  0.00000000000E+00 0.  1.
          2   -1    0    0  502    0 -0.00000000000E+00 -0.00000000000E+00 -0.19752846485E+03  0.19752846485E+03  0.00000000000E+00 0. -1.
         25    2    1    2    0    0  0.42506810805E+02 -0.81413027384E+02  0.39831786270E+03  0.42745480071E+03  0.12500230760E+03 0.  0.
          4    1    3    3  501    0  0.32016130705E+02  0.30386682054E+01  0.16312255267E+02  0.36082803407E+02  0.12700000000E+01 0. -1.
         -4    1    3    3    0  501  0.10490680100E+02 -0.84451695589E+02  0.38200560744E+03  0.39137199730E+03  0.12700000000E+01 0. -1.
          2    1    1    2  502    0 -0.98864799833E+00  0.73987210957E+02 -0.17531669302E+03  0.19029195375E+03  0.00000000000E+00 0. -1.
          2    1    1    2  503    0 -0.41518162807E+02  0.74258164271E+01  0.28566445826E+04  0.28569559276E+04  0.00000000000E+00 0.  1.
<mgrwt>
<rscale>  0 0.55919478E+02</rscale>
<asrwt>0</asrwt>
<pdfrwt beam="1">  1        2 0.50418061E+00 0.42177015E+02</pdfrwt>
<pdfrwt beam="2">  1        2 0.30388997E-01 0.74139622E+02</pdfrwt>
<totfact> 0.51271110E+01</totfact>
</mgrwt>
</event>
<event>
 7    1  0.4251803E-004  0.4473366E+02  0.7546771E-02  0.1567696E+00
         -1   -1    0    0    0  501 -0.00000000000E+00  0.00000000000E+00  0.53091767735E+02  0.53091767735E+02  0.00000000000E+00 0.  1.
          2   -1    0    0  503    0  0.00000000000E+00 -0.00000000000E+00 -0.16189952097E+04  0.16189952097E+04  0.00000000000E+00 0. -1.
         25    2    1    2    0    0  0.90869392803E+01 -0.34944151454E+02 -0.11050918332E+03  0.17069014217E+03  0.12497671323E+03 0.  0.
          4    1    3    3  502    0 -0.51999214677E+01  0.39890675231E+02 -0.50206043900E+01  0.40560134641E+02  0.12700000000E+01 0.  1.
         -4    1    3    3    0  502  0.14286860748E+02 -0.74834826685E+02 -0.10548857893E+03  0.13013000753E+03  0.12700000000E+01 0.  1.
          2    1    1    2  503    0 -0.32933898023E+02  0.30512494711E+02 -0.14715621870E+04  0.14722468964E+04  0.00000000000E+00 0. -1.
         -1    1    1    2    0  501  0.23846958742E+02  0.44316567431E+01  0.16167928370E+02  0.29149938774E+02  0.00000000000E+00 0.  1.
<mgrwt>
<rscale>  0 0.32939734E+02</rscale>
<asrwt>0</asrwt>
<pdfrwt beam="2">  1        2 0.24907621E+00 0.44733663E+02</pdfrwt>
<pdfrwt beam="1">  1       -1 0.81679635E-02 0.24255247E+02</pdfrwt>
<totfact> 0.10796450E+03</totfact>
</mgrwt>
</event>
<event>
 7    1  0.4251803E-004  0.8286273E+02  0.7546771E-02  0.1338811E+00
          3   -1    0    0  503    0 -0.00000000000E+00  0.00000000000E+00  0.12182870650E+03  0.12182870650E+03  0.00000000000E+00 0. -1.
          2   -1    0    0  502    0  0.00000000000E+00 -0.00000000000E+00 -0.23329372449E+04  0.23329372449E+04  0.00000000000E+00 0. -1.
         25    2    1    2    0    0  0.18889696393E+02  0.88948562041E+01 -0.19965279553E+04  0.20005452779E+04  0.12498637321E+03 0.  0.
          4    1    3    3  501    0 -0.11439639498E+02  0.62247193958E+02 -0.11915421053E+04  0.11932224353E+04  0.12700000000E+01 0.  1.
         -4    1    3    3    0  501  0.30329335891E+02 -0.53352337754E+02 -0.80498585000E+03  0.80732284258E+03  0.12700000000E+01 0.  1.
          2    1    1    2  502    0  0.58337300533E+02 -0.40326377567E+02 -0.31546629874E+03  0.32333951661E+03  0.00000000000E+00 0. -1.
          3    1    1    2  503    0 -0.77226996926E+02  0.31431521363E+02  0.10088571569E+03  0.13088115686E+03  0.00000000000E+00 0. -1.
<mgrwt>
<rscale>  0 0.76658429E+02</rscale>
<asrwt>0</asrwt>
<pdfrwt beam="2">  1        2 0.35891341E+00 0.70918667E+02</pdfrwt>
<pdfrwt beam="1">  1        3 0.18742879E-01 0.82862734E+02</pdfrwt>
<totfact> 0.84191929E+01</totfact>
</mgrwt>
</event>
<event>
 7    1  0.4251803E-004  0.1346691E+03  0.7546771E-02  0.1415119E+00
         -1   -1    0    0    0  501 -0.00000000000E+00  0.00000000000E+00  0.54066524354E+03  0.54066524354E+03  0.00000000000E+00 0.  1.
          2   -1    0    0  503    0  0.00000000000E+00 -0.00000000000E+00 -0.10194160574E+03  0.10194160574E+03  0.00000000000E+00 0.  1.
         25    2    1    2    0    0  0.10912778507E+02  0.14835286128E+03  0.41159049190E+03  0.45514766008E+03  0.12499999708E+03 0.  0.
          4    1    3    3  502    0  0.40407084021E+02  0.15217278571E+03  0.29021532868E+03  0.33017546706E+03  0.12700000000E+01 0. -1.
         -4    1    3    3    0  502 -0.29494305514E+02 -0.38199244322E+01  0.12137516323E+03  0.12497219302E+03  0.12700000000E+01 0. -1.
          2    1    1    2  503    0 -0.25839817185E+02 -0.13040691499E+03 -0.20405144480E+02  0.13449918048E+03  0.00000000000E+00 0.  1.
         -1    1    1    2    0  501  0.14927038678E+02 -0.17945946289E+02  0.47538290369E+02  0.52960008715E+02  0.00000000000E+00 0.  1.
<mgrwt>
<rscale>  0 0.56067067E+02</rscale>
<asrwt>0</asrwt>
<pdfrwt beam="2">  1        2 0.15683324E-01 0.13466906E+03</pdfrwt>
<pdfrwt beam="1">  1       -1 0.83179266E-01 0.23342525E+02</pdfrwt>
<totfact> 0.66541505E+02</totfact>
</mgrwt>
</event>
<event>
 7    1  0.4251803E-004  0.2050517E+03  0.7546771E-02  0.1238539E+00
          3   -1    0    0  503    0 -0.00000000000E+00  0.00000000000E+00  0.78040383768E+03  0.78040383768E+03  0.00000000000E+00 0. -1.
          2   -1    0    0  502    0  0.00000000000E+00 -0.00000000000E+00 -0.88366071356E+03  0.88366071356E+03  0.00000000000E+00 0. -1.
         25    2    1    2    0    0 -0.60795065955E+02 -0.21350183305E+03  0.58659391587E+02  0.26143446460E+03  0.12501192863E+03 0.  0.
          4    1    3    3  501    0 -0.19448884451E+02 -0.10993391314E+03 -0.33709467477E+02  0.11662617829E+03  0.12700000000E+01 0. -1.
         -4    1    3    3    0  501 -0.41346181504E+02 -0.10356791991E+03  0.92368859063E+02  0.14480828631E+03  0.12700000000E+01 0. -1.
          2    1    1    2  502    0 -0.12166582394E+02  0.20423085805E+03 -0.76662972075E+03  0.79346039462E+03  0.00000000000E+00 0. -1.
          3    1    1    2  503    0  0.72961648349E+02  0.92709750025E+01  0.60471345328E+03  0.60916969202E+03  0.00000000000E+00 0. -1.
<mgrwt>
<rscale>  0 0.12280555E+03</rscale>
<asrwt>0</asrwt>
<pdfrwt beam="2">  1        2 0.13594780E+00 0.20505167E+03</pdfrwt>
<pdfrwt beam="1">  1        3 0.12006213E+00 0.73548305E+02</pdfrwt>
<totfact> 0.11499829E+01</totfact>
</mgrwt>
</event>
<event>
 7    1  0.4251803E-004  0.7838503E+02  0.7546771E-02  0.1417314E+00
         -3   -1    0    0    0  501 -0.00000000000E+00  0.00000000000E+00  0.75557363854E+02  0.75557363854E+02  0.00000000000E+00 0.  1.
          2   -1    0    0  503    0  0.00000000000E+00 -0.00000000000E+00 -0.73911410484E+03  0.73911410484E+03  0.00000000000E+00 0. -1.
         25    2    1    2    0    0  0.87807616339E+02 -0.72121799174E+02 -0.62486311935E+02  0.18010751007E+03  0.12498977799E+03 0.  0.
          4    1    3    3  502    0  0.10311122875E+03 -0.84378431819E+02 -0.78599919515E+02  0.15469714121E+03  0.12700000000E+01 0. -1.
         -4    1    3    3    0  502 -0.15303612407E+02  0.12256632646E+02  0.16113607580E+02  0.25410368863E+02  0.12700000000E+01 0. -1.
          2    1    1    2  503    0 -0.66260255698E+02  0.39101883634E+02 -0.58801982379E+03  0.59303177989E+03  0.00000000000E+00 0. -1.
         -3    1    1    2    0  501 -0.21547360641E+02  0.33019915539E+02 -0.13050605263E+02  0.41532178736E+02  0.00000000000E+00 0.  1.
<mgrwt>
<rscale>  0 0.55593177E+02</rscale>
<asrwt>0</asrwt>
<pdfrwt beam="2">  1        2 0.11370987E+00 0.78385034E+02</pdfrwt>
<pdfrwt beam="1">  1       -3 0.11624209E-01 0.39428461E+02</pdfrwt>
<totfact> 0.11901097E+03</totfact>
</mgrwt>
</event>
<event>
 7    1  0.4251803E-004  0.1346989E+03  0.7546771E-02  0.1330858E+00
          3   -1    0    0  503    0 -0.00000000000E+00  0.00000000000E+00  0.96124785051E+03  0.96124785051E+03  0.00000000000E+00 0. -1.
          1   -1    0    0  502    0  0.00000000000E+00 -0.00000000000E+00 -0.84959518420E+03  0.84959518420E+03  0.00000000000E+00 0. -1.
         25    2    1    2    0    0  0.16687599308E+03  0.37951504839E+01  0.81034849565E+02  0.22372653371E+03  0.12499965924E+03 0.  0.
          4    1    3    3  501    0  0.92122581610E+02  0.22214071219E+02  0.10655968661E+03  0.14260650306E+03  0.12700000000E+01 0.  1.
         -4    1    3    3    0  501  0.74753411469E+02 -0.18418920735E+02 -0.25524837049E+02  0.81120030657E+02  0.12700000000E+01 0.  1.
          1    1    1    2  502    0 -0.36766525926E+02 -0.28898146995E+02 -0.77211023286E+03  0.77352510755E+03  0.00000000000E+00 0. -1.
          3    1    1    2  503    0 -0.13010946715E+03  0.25102996511E+02  0.80272804960E+03  0.81359139345E+03  0.00000000000E+00 0. -1.
<mgrwt>
<rscale>  0 0.79366682E+02</rscale>
<asrwt>0</asrwt>
<pdfrwt beam="2">  1        1 0.13070695E+00 0.46764092E+02</pdfrwt>
<pdfrwt beam="1">  1        3 0.14788429E+00 0.13469887E+03</pdfrwt>
<totfact> 0.44843859E+00</totfact>
</mgrwt>
</event>
<event>
 7    1  0.4251803E-004  0.2324184E+03  0.7546771E-02  0.1223170E+00
          2   -1    0    0  502    0  0.00000000000E+00  0.00000000000E+00  0.25914461737E+04  0.25914461737E+04  0.00000000000E+00 0. -1.
          1   -1    0    0  503    0 -0.00000000000E+00 -0.00000000000E+00 -0.23130986432E+03  0.23130986432E+03  0.00000000000E+00 0. -1.
         25    2    1    2    0    0  0.15229579992E+03 -0.14090038935E+03  0.37393278734E+03  0.44553918224E+03  0.12503000870E+03 0.  0.
          4    1    3    3  501    0  0.10865062311E+02 -0.64103177689E+01 -0.91284700436E+01  0.15623175678E+02  0.12700000000E+01 0.  1.
         -4    1    3    3    0  501  0.14143073761E+03 -0.13449007158E+03  0.38306125738E+03  0.42991600657E+03  0.12700000000E+01 0.  1.
          2    1    1    2  502    0 -0.35754854409E+02 -0.67097971261E+02  0.21080797199E+04  0.21094503201E+04  0.00000000000E+00 0. -1.
          1    1    1    2  503    0 -0.11654094551E+03  0.20799836061E+03 -0.12187619792E+03  0.26776653565E+03  0.00000000000E+00 0. -1.
<mgrwt>
<rscale>  0 0.13293136E+03</rscale>
<asrwt>0</asrwt>
<pdfrwt beam="1">  1        2 0.39868401E+00 0.76029911E+02</pdfrwt>
<pdfrwt beam="2">  1        1 0.35586135E-01 0.23241836E+03</pdfrwt>
<totfact> 0.70472618E+01</totfact>
</mgrwt>
</event>
<event>
 7    1  0.4251803E-004  0.4869353E+02  0.7546771E-02  0.1543642E+00
          2   -1    0    0  502    0  0.00000000000E+00  0.00000000000E+00  0.18057791598E+04  0.18057791598E+04  0.00000000000E+00 0. -1.
          2   -1    0    0  503    0 -0.00000000000E+00 -0.00000000000E+00 -0.21644613969E+04  0.21644613969E+04  0.00000000000E+00 0. -1.
         25    2    1    2    0    0 -0.36556096723E+01 -0.23514213004E+02  0.81109581951E+02  0.15090139894E+03  0.12500474480E+03 0.  0.
          4    1    3    3  501    0 -0.35170196080E+02  0.37074875066E+02  0.61224013240E+02  0.79758897627E+02  0.12700000000E+01 0. -1.
         -4    1    3    3    0  501  0.31514586407E+02 -0.60589088070E+02  0.19885568710E+02  0.71142501309E+02  0.12700000000E+01 0. -1.
          2    1    1    2  502    0 -0.13793112276E+02 -0.22011191565E+02  0.16893947625E+04  0.16895944502E+04  0.00000000000E+00 0. -1.
          2    1    1    2  503    0  0.17448721948E+02  0.45525404569E+02 -0.21291865815E+04  0.21297447076E+04  0.00000000000E+00 0. -1.
<mgrwt>
<rscale>  0 0.35564780E+02</rscale>
<asrwt>0</asrwt>
<pdfrwt beam="1">  1        2 0.27781218E+00 0.25975806E+02</pdfrwt>
<pdfrwt beam="2">  1        2 0.33299406E+00 0.48693526E+02</pdfrwt>
<totfact> 0.13885669E+01</totfact>
</mgrwt>
</event>
<event>
 7    1  0.4251803E-004  0.1873728E+03  0.7546771E-02  0.1301050E+00
         -3   -1    0    0    0  501 -0.00000000000E+00  0.00000000000E+00  0.10416261097E+03  0.10416261097E+03  0.00000000000E+00 0.  1.
          2   -1    0    0  503    0  0.00000000000E+00 -0.00000000000E+00 -0.11355084312E+04  0.11355084312E+04  0.00000000000E+00 0. -1.
         25    2    1    2    0    0  0.61196081908E+02 -0.15180106521E+03 -0.27253936699E+03  0.34160484577E+03  0.12501056059E+03 0.  0.
          4    1    3    3  502    0  0.60013265861E+02 -0.17037139291E+03 -0.26659594154E+03  0.32202952123E+03  0.12700000000E+01 0. -1.
         -4    1    3    3    0  502  0.11828160472E+01  0.18570327702E+02 -0.59434254500E+01  0.19575324540E+02  0.12700000000E+01 0. -1.
          2    1    1    2  503    0 -0.14166310457E+02 -0.41605504955E+02 -0.68403090279E+03  0.68544144781E+03  0.00000000000E+00 0. -1.
         -3    1    1    2    0  501 -0.47029771451E+02  0.19340657016E+03 -0.74775550492E+02  0.21262474864E+03  0.00000000000E+00 0.  1.
<mgrwt>
<rscale>  0 0.90748271E+02</rscale>
<asrwt>0</asrwt>
<pdfrwt beam="2">  1        2 0.17469360E+00 0.43951136E+02</pdfrwt>
<pdfrwt beam="1">  1       -3 0.16025018E-01 0.18737283E+03</pdfrwt>
<totfact> 0.49392180E+02</totfact>
</mgrwt>
</event>
<event>
 7    1  0.4251803E-004  0.3237906E+02  0.7546771E-02  0.1647876E+00
         -2   -1    0    0    0  501 -0.00000000000E+00  0.00000000000E+00  0.51027289482E+01  0.51027289482E+01  0.00000000000E+00 0.  1.
          1   -1    0    0  503    0  0.00000000000E+00 -0.00000000000E+00 -0.24768171811E+04  0.24768171811E+04  0.00000000000E+00 0. -1.
         25    2    1    2    0    0  0.40363724756E+02  0.12419649102E+02 -0.16389958997E+04  0.16442980409E+04  0.12500004063E+03 0.  0.
          4    1    3    3  502    0 -0.34016476285E+02 -0.25912190323E+02 -0.79879323442E+03  0.79993800167E+03  0.12700000000E+01 0.  1.
         -4    1    3    3    0  502  0.74380201041E+02  0.38331839425E+02 -0.84020266527E+03  0.84436003923E+03  0.12700000000E+01 0.  1.
          1    1    1    2  503    0 -0.22251725414E+02 -0.22604208379E+02 -0.78419738907E+03  0.78483860414E+03  0.00000000000E+00 0. -1.
         -2    1    1    2    0  501 -0.18111999343E+02  0.10184559277E+02 -0.48521163376E+02  0.52783264992E+02  0.00000000000E+00 0.  1.
<mgrwt>
<rscale>  0 0.25938517E+02</rscale>
<asrwt>0</asrwt>
<pdfrwt beam="2">  1        1 0.38104778E+00 0.32379055E+02</pdfrwt>
<pdfrwt beam="1">  1       -2 0.78503732E-03 0.20779070E+02</pdfrwt>
<totfact> 0.37485094E+03</totfact>
</mgrwt>
</event>
<event>
 7    1  0.4251803E-004  0.5939854E+02  0.7546771E-02  0.1435884E+00
         -2   -1    0    0    0  501  0.00000000000E+00  0.00000000000E+00  0.21582458924E+03  0.21582458924E+03  0.00000000000E+00 0. -1.
         -1   -1    0    0    0  502 -0.00000000000E+00 -0.00000000000E+00 -0.36325445224E+03  0.36325445224E+03  0.00000000000E+00 0.  1.
         25    2    1    2    0    0  0.67486388073E+01 -0.10204823124E+03 -0.31177493905E+02  0.16448798483E+03  0.12499950161E+03 0.  0.
          4    1    3    3  503    0  0.43435138189E+02 -0.86707868579E+02  0.20639979287E+02  0.99158899490E+02  0.12700000000E+01 0. -1.
         -4    1    3    3    0  503 -0.36686499382E+02 -0.15340362660E+02 -0.51817473192E+02  0.65329085341E+02  0.12700000000E+01 0. -1.
         -2    1    1    2    0  501 -0.67437727321E+01  0.44661738972E+02  0.14253333393E+03  0.14951889740E+03  0.00000000000E+00 0. -1.
         -1    1    1    2    0  502 -0.48660751588E-02  0.57386492267E+02 -0.25878570302E+03  0.26507215925E+03  0.00000000000E+00 0.  1.
<mgrwt>
<rscale>  0 0.51796854E+02</rscale>
<asrwt>0</asrwt>
<pdfrwt beam="1">  1       -2 0.33203783E-01 0.45168013E+02</pdfrwt>
<pdfrwt beam="2">  1       -1 0.55885300E-01 0.59398542E+02</pdfrwt>
<totfact> 0.20775257E+02</totfact>
</mgrwt>
</event>
<event>
 7    1  0.4251803E-004  0.2245397E+03  0.7546771E-02  0.1329430E+00
          2   -1    0    0  502    0  0.00000000000E+00  0.00000000000E+00  0.11052338547E+04  0.11052338547E+04  0.00000000000E+00 0. -1.
          2   -1    0    0  503    0 -0.00000000000E+00 -0.00000000000E+00 -0.37757705856E+03  0.37757705856E+03  0.00000000000E+00 0. -1.
         25    2    1    2    0    0 -0.15634907990E+03 -0.17195028351E+03  0.25821607970E+03  0.36920495488E+03  0.12499928041E+03 0.  0.
          4    1    3    3  501    0 -0.63701925973E+02 -0.75757549734E+02  0.20070704166E+03  0.22379023926E+03  0.12700000000E+01 0. -1.
         -4    1    3    3    0  501 -0.92647153929E+02 -0.96192733779E+02  0.57509038041E+02  0.14541471562E+03  0.12700000000E+01 0. -1.
          2    1    1    2  502    0  0.12947394841E+03  0.18115546584E+03  0.77519192896E+03  0.80653786820E+03  0.00000000000E+00 0. -1.
          2    1    1    2  503    0  0.26875131491E+02 -0.92051823241E+01 -0.30575121250E+03  0.30706809020E+03  0.00000000000E+00 0. -1.
<mgrwt>
<rscale>  0 0.79866754E+02</rscale>
<asrwt>0</asrwt>
<pdfrwt beam="1">  1        2 0.17003598E+00 0.22453969E+03</pdfrwt>
<pdfrwt beam="2">  1        2 0.58088779E-01 0.28407888E+02</pdfrwt>
<totfact> 0.30407201E+02</totfact>
</mgrwt>
</event>
<event>
 7    1  0.4251803E-004  0.5293081E+02  0.7546771E-02  0.1494520E+00
          2   -1    0    0  503    0  0.00000000000E+00  0.00000000000E+00  0.10875098280E+04  0.10875098280E+04  0.00000000000E+00 0. -1.
         -3   -1    0    0    0  501 -0.00000000000E+00 -0.00000000000E+00 -0.20433209444E+03  0.20433209444E+03  0.00000000000E+00 0.  1.
         25    2    1    2    0    0 -0.19578090980E+01  0.20335259760E+02  0.24446910742E+03  0.27533288307E+03  0.12500278482E+03 0.  0.
          4    1    3    3  502    0 -0.74682434606E+01 -0.23905145795E+02 -0.17207159764E+01  0.25135719989E+02  0.12700000000E+01 0. -1.
         -4    1    3    3    0  502  0.55104343626E+01  0.44240405556E+02  0.24618982339E+03  0.25019716308E+03  0.12700000000E+01 0. -1.
          2    1    1    2  503    0 -0.93625995374E+01  0.31856886110E+02  0.82349285598E+03  0.82416200064E+03  0.00000000000E+00 0. -1.
         -3    1    1    2    0  501  0.11320408635E+02 -0.52192145870E+02 -0.18478422979E+03  0.19234703876E+03  0.00000000000E+00 0.  1.
<mgrwt>
<rscale>  0 0.41922853E+02</rscale>
<asrwt>0</asrwt>
<pdfrwt beam="1">  1        2 0.16730920E+00 0.33204209E+02</pdfrwt>
<pdfrwt beam="2">  1       -3 0.31435708E-01 0.52930808E+02</pdfrwt>
<totfact> 0.14488849E+02</totfact>
</mgrwt>
</event>
<event>
 7    1  0.4251803E-004  0.7275865E+02  0.7546771E-02  0.1466518E+00
          2   -1    0    0  503    0  0.00000000000E+00  0.00000000000E+00  0.85421277242E+03  0.85421277242E+03  0.00000000000E+00 0. -1.
         -1   -1    0    0    0  501 -0.00000000000E+00 -0.00000000000E+00 -0.22262106870E+02  0.22262106870E+02  0.00000000000E+00 0.  1.
         25    2    1    2    0    0  0.65617070993E+02  0.38827466087E+02  0.31024721135E+03  0.34306026615E+03  0.12499536764E+03 0.  0.
          4    1    3    3  502    0  0.44618460805E+02  0.12542788786E+02  0.30557324744E+03  0.30907078647E+03  0.12700000000E+01 0.  1.
         -4    1    3    3    0  502  0.20998610188E+02  0.26284677301E+02  0.46739639118E+01  0.33989479685E+02  0.12700000000E+01 0.  1.
          2    1    1    2  503    0 -0.23067558114E+02  0.18283827532E+02  0.67182208492E+02  0.73347527050E+02  0.00000000000E+00 0. -1.
         -1    1    1    2    0  501 -0.42549512879E+02 -0.57111293619E+02  0.45452124571E+03  0.46006708609E+03  0.00000000000E+00 0.  1.
<mgrwt>
<rscale>  0 0.46277860E+02</rscale>
<asrwt>0</asrwt>
<pdfrwt beam="1">  1        2 0.13141732E+00 0.29434853E+02</pdfrwt>
<pdfrwt beam="2">  1       -1 0.34249402E-02 0.72758653E+02</pdfrwt>
<totfact> 0.10982528E+04</totfact>
</mgrwt>
</event>
<event>
 7    1  0.4251803E-004  0.6409852E+02  0.7546771E-02  0.1458257E+00
          1   -1    0    0  503    0  0.00000000000E+00  0.00000000000E+00  0.12446701234E+04  0.12446701234E+04  0.00000000000E+00 0. -1.
          1   -1    0    0  502    0 -0.00000000000E+00 -0.00000000000E+00 -0.23317470954E+03  0.23317470954E+03  0.00000000000E+00 0. -1.
         25    2    1    2    0    0  0.47740645206E+02  0.22210245858E+02  0.10247364147E+04  0.10336742018E+04  0.12500068638E+03 0.  0.
          4    1    3    3  501    0  0.14555702646E+02 -0.48656319573E+02  0.25801679553E+03  0.26297069340E+03  0.12700000000E+01 0. -1.
         -4    1    3    3    0  501  0.33184942560E+02  0.70866565431E+02  0.76671961920E+03  0.77070350841E+03  0.12700000000E+01 0. -1.
          1    1    1    2  502    0  0.26308383640E+02  0.23791984983E+02 -0.21839847472E+03  0.22126021640E+03  0.00000000000E+00 0. -1.
          1    1    1    2  503    0 -0.74049028845E+02 -0.46002230841E+02  0.20515747390E+03  0.22291041476E+03  0.00000000000E+00 0. -1.
<mgrwt>
<rscale>  0 0.47682664E+02</rscale>
<asrwt>0</asrwt>
<pdfrwt beam="1">  1        1 0.19148771E+00 0.64098516E+02</pdfrwt>
<pdfrwt beam="2">  1        1 0.35873033E-01 0.35470968E+02</pdfrwt>
<totfact> 0.16893242E+02</totfact>
</mgrwt>
</event>
<event>
 7    1  0.4966883E-004  0.8665609E+02  0.7546771E-02  0.1361536E+00
          1   -1    0    0  503    0  0.00000000000E+00  0.00000000000E+00  0.25592909917E+03  0.25592909917E+03  0.00000000000E+00 0. -1.
         -2   -1    0    0    0  501 -0.00000000000E+00 -0.00000000000E+00 -0.95065972141E+02  0.95065972141E+02  0.00000000000E+00 0.  1.
         25    2    1    2    0    0 -0.40603274637E+02 -0.10456577361E+03  0.54464471246E+02  0.17655913572E+03  0.12499649138E+03 0.  0.
          4    1    3    3  502    0 -0.10389364812E+02 -0.44913523221E+02 -0.39842834249E+02  0.60944464969E+02  0.12700000000E+01 0. -1.
         -4    1    3    3    0  502 -0.30213909825E+02 -0.59652250389E+02  0.94307305495E+02  0.11561467075E+03  0.12700000000E+01 0. -1.
          1    1    1    2  503    0 -0.16673524123E+02  0.53318245769E+02  0.69534097008E+02  0.89195472897E+02  0.00000000000E+00 0. -1.
         -2    1    1    2    0  501  0.57276798760E+02  0.51247527840E+02  0.36864558772E+02  0.85240462689E+02  0.00000000000E+00 0.  1.
<mgrwt>
<rscale>  0 0.69577285E+02</rscale>
<asrwt>0</asrwt>
<pdfrwt beam="1">  1        1 0.39373707E-01 0.55864494E+02</pdfrwt>
<pdfrwt beam="2">  1       -2 0.14625534E-01 0.86656090E+02</pdfrwt>
<totfact> 0.31498405E+03</totfact>
</mgrwt>
</event>
<event>
 7    1  0.4251803E-004  0.7676736E+02  0.7546771E-02  0.1350644E+00
         -2   -1    0    0    0  501 -0.00000000000E+00  0.00000000000E+00  0.58414968629E+02  0.58414968629E+02  0.00000000000E+00 0.  1.
          1   -1    0    0  503    0  0.00000000000E+00 -0.00000000000E+00 -0.64671065851E+03  0.64671065851E+03  0.00000000000E+00 0. -1.
         25    2    1    2    0    0 -0.12707332572E+03 -0.19325018286E+02 -0.12705962598E+03  0.21974754764E+03  0.12499499870E+03 0.  0.
          4    1    3    3  502    0 -0.11155871145E+03 -0.25318211094E+02 -0.25999169778E+02  0.11731976663E+03  0.12700000000E+01 0. -1.
         -4    1    3    3    0  502 -0.15514614278E+02  0.59931928076E+01 -0.10106045620E+03  0.10242778102E+03  0.12700000000E+01 0. -1.
          1    1    1    2  503    0  0.70244588295E+02 -0.20059887128E+02 -0.31858887678E+03  0.32685711506E+03  0.00000000000E+00 0. -1.
         -2    1    1    2    0  501  0.56828737429E+02  0.39384905414E+02 -0.14264718712E+03  0.15852096444E+03  0.00000000000E+00 0.  1.
<mgrwt>
<rscale>  0 0.72855211E+02</rscale>
<asrwt>0</asrwt>
<pdfrwt beam="2">  1        1 0.99493952E-01 0.76767355E+02</pdfrwt>
<pdfrwt beam="1">  1       -2 0.89869179E-02 0.69142434E+02</pdfrwt>
<totfact> 0.20904776E+03</totfact>
</mgrwt>
</event>
<event>
 7    1  0.4251803E-004  0.4069267E+02  0.7546771E-02  0.1509682E+00
         -1   -1    0    0    0  501 -0.00000000000E+00  0.00000000000E+00  0.79078975258E+02  0.79078975258E+02  0.00000000000E+00 0.  1.
          2   -1    0    0  503    0  0.00000000000E+00 -0.00000000000E+00 -0.16551099476E+03  0.16551099476E+03  0.00000000000E+00 0. -1.
         25    2    1    2    0    0 -0.10553885772E+02  0.15534940525E+02 -0.97466302302E+02  0.15961438896E+03  0.12499741676E+03 0.  0.
          4    1    3    3  502    0  0.30220515230E+02  0.27950083701E+02 -0.10808948112E+03  0.11566951002E+03  0.12700000000E+01 0.  1.
         -4    1    3    3    0  502 -0.40774401001E+02 -0.12415143177E+02  0.10623178814E+02  0.43944878942E+02  0.12700000000E+01 0.  1.
          2    1    1    2  503    0  0.35243821053E+02  0.20341251033E+02  0.46015044394E+01  0.40952011662E+02  0.00000000000E+00 0. -1.
         -1    1    1    2    0  501 -0.24689935281E+02 -0.35876191558E+02  0.64327783615E+01  0.44023569396E+02  0.00000000000E+00 0.  1.
<mgrwt>
<rscale>  0 0.39800885E+02</rscale>
<asrwt>0</asrwt>
<pdfrwt beam="2">  1        2 0.25463230E-01 0.40692670E+02</pdfrwt>
<pdfrwt beam="1">  1       -1 0.12165996E-01 0.38928643E+02</pdfrwt>
<totfact> 0.90219743E+03</totfact>
</mgrwt>
</event>
<event>
 7    1  0.4251803E-004  0.7892737E+02  0.7546771E-02  0.1340436E+00
          2   -1    0    0  503    0  0.00000000000E+00  0.00000000000E+00  0.78263988533E+03  0.78263988533E+03  0.00000000000E+00 0. -1.
         -3   -1    0    0    0  501 -0.00000000000E+00 -0.00000000000E+00 -0.49584243895E+03  0.49584243895E+03  0.00000000000E+00 0.  1.
         25    2    1    2    0    0 -0.32311084692E+02  0.42596566758E+02  0.16804612120E+02  0.13699796647E+03  0.12501029612E+03 0.  0.
          4    1    3    3  502    0  0.24197197600E+02  0.34365811336E+02  0.54295741836E+02  0.68674258948E+02  0.12700000000E+01 0.  1.
         -4    1    3    3    0  502 -0.56508282292E+02  0.82307554216E+01 -0.37491129716E+02  0.68323707524E+02  0.12700000000E+01 0.  1.
          2    1    1    2  503    0 -0.48259564191E+02 -0.55321801215E+02  0.69998476925E+03  0.70382395840E+03  0.00000000000E+00 0. -1.
         -3    1    1    2    0  501  0.80570648883E+02  0.12725234458E+02 -0.42999193499E+03  0.43766039941E+03  0.00000000000E+00 0.  1.
<mgrwt>
<rscale>  0 0.76120332E+02</rscale>
<asrwt>0</asrwt>
<pdfrwt beam="1">  1        2 0.12040614E+00 0.73413127E+02</pdfrwt>
<pdfrwt beam="2">  1       -3 0.76283452E-01 0.78927369E+02</pdfrwt>
<totfact> 0.38118393E+01</totfact>
</mgrwt>
</event>
<event>
 7    1  0.4251803E-004  0.3919245E+02  0.7546771E-02  0.1534736E+00
          1   -1    0    0  503    0  0.00000000000E+00  0.00000000000E+00  0.33969722028E+03  0.33969722028E+03  0.00000000000E+00 0. -1.
          1   -1    0    0  502    0 -0.00000000000E+00 -0.00000000000E+00 -0.62166473733E+03  0.62166473733E+03  0.00000000000E+00 0. -1.
         25    2    1    2    0    0  0.60064733370E+02  0.26307237155E+01 -0.23716406426E+03  0.27474661404E+03  0.12499686255E+03 0.  0.
          4    1    3    3  501    0  0.43608761059E+02  0.62388153312E+02 -0.11812456786E+03  0.14053124972E+03  0.12700000000E+01 0. -1.
         -4    1    3    3    0  501  0.16455972312E+02 -0.59757429597E+02 -0.11903949640E+03  0.13421536432E+03  0.12700000000E+01 0. -1.
          1    1    1    2  502    0 -0.26108517477E+02 -0.22092231241E+02 -0.36371083751E+03  0.36531533596E+03  0.00000000000E+00 0. -1.
          1    1    1    2  503    0 -0.33956215894E+02  0.19461507526E+02  0.31890738471E+03  0.32130000762E+03  0.00000000000E+00 0. -1.
<mgrwt>
<rscale>  0 0.36611864E+02</rscale>
<asrwt>0</asrwt>
<pdfrwt beam="1">  1        1 0.52261111E-01 0.39192455E+02</pdfrwt>
<pdfrwt beam="2">  1        1 0.95640728E-01 0.34201190E+02</pdfrwt>
<totfact> 0.32566417E+02</totfact>
</mgrwt>
</event>
<event>
 7    1  0.4251803E-004  0.4204813E+02  0.7546771E-02  0.1553520E+00
         -2   -1    0    0    0  501 -0.00000000000E+00  0.00000000000E+00  0.14102888404E+02  0.14102888404E+02  0.00000000000E+00 0.  1.
          1   -1    0    0  503    0  0.00000000000E+00 -0.00000000000E+00 -0.10925904864E+04  0.10925904864E+04  0.00000000000E+00 0. -1.
         25    2    1    2    0    0 -0.95315183325E+01 -0.53643174754E+02 -0.51590871537E+03  0.53362452925E+03  0.12499958232E+03 0.  0.
          4    1    3    3  502    0  0.26670899300E+02 -0.67569581381E+01 -0.41991888345E+03  0.42082119116E+03  0.12700000000E+01 0.  1.
         -4    1    3    3    0  502 -0.36202417633E+02 -0.46886216616E+02 -0.95989831920E+02  0.11280333808E+03  0.12700000000E+01 0.  1.
          1    1    1    2  503    0  0.27046882807E+02  0.31506018933E+02 -0.52193346968E+03  0.52358257216E+03  0.00000000000E+00 0. -1.
         -2    1    1    2    0  501 -0.17515364474E+02  0.22137155821E+02 -0.40645412904E+02  0.49486273356E+02  0.00000000000E+00 0.  1.
<mgrwt>
<rscale>  0 0.34452151E+02</rscale>
<asrwt>0</asrwt>
<pdfrwt beam="2">  1        1 0.16809085E+00 0.42048129E+02</pdfrwt>
<pdfrwt beam="1">  1       -2 0.21696750E-02 0.28228384E+02</pdfrwt>
<totfact> 0.69067962E+03</totfact>
</mgrwt>
</event>
<event>
 7    1  0.4251803E-004  0.1058184E+03  0.7546771E-02  0.1280220E+00
          2   -1    0    0  503    0  0.00000000000E+00  0.00000000000E+00  0.26694339492E+04  0.26694339492E+04  0.00000000000E+00 0.  1.
          2   -1    0    0  502    0 -0.00000000000E+00 -0.00000000000E+00 -0.11728600174E+03  0.11728600174E+03  0.00000000000E+00 0. -1.
         25    2    1    2    0    0 -0.11057915822E+02  0.20480546874E+02  0.73234950750E+03  0.74330486784E+03  0.12499838044E+03 0.  0.
          4    1    3    3  501    0  0.21403577203E+02 -0.47114527446E+02  0.27099908777E+03  0.27589855072E+03  0.12700000000E+01 0.  1.
         -4    1    3    3    0  501 -0.32461493025E+02  0.67595074321E+02  0.46135041973E+03  0.46740631712E+03  0.12700000000E+01 0.  1.
          2    1    1    2  502    0 -0.10379996997E+03  0.20569403710E+02 -0.84374999423E+02  0.13533910988E+03  0.00000000000E+00 0. -1.
          2    1    1    2  503    0  0.11485788579E+03 -0.41049950584E+02  0.19041734394E+04  0.19080759732E+04  0.00000000000E+00 0.  1.
<mgrwt>
<rscale>  0 0.10003612E+03</rscale>
<asrwt>0</asrwt>
<pdfrwt beam="1">  1        2 0.41068210E+00 0.94569801E+02</pdfrwt>
<pdfrwt beam="2">  1        2 0.18044002E-01 0.10581840E+03</pdfrwt>
<totfact> 0.17495828E+02</totfact>
</mgrwt>
</event>
<event>
 7    1  0.4251803E-004  0.3929453E+02  0.7546771E-02  0.1517967E+00
         -1   -1    0    0    0  501 -0.00000000000E+00  0.00000000000E+00  0.57145699471E+01  0.57145699471E+01  0.00000000000E+00 0.  1.
          2   -1    0    0  503    0  0.00000000000E+00 -0.00000000000E+00 -0.22170890120E+04  0.22170890120E+04  0.00000000000E+00 0. -1.
         25    2    1    2    0    0  0.35200087089E+02 -0.84973338625E+01 -0.15771042246E+04  0.15824642329E+04  0.12499624918E+03 0.  0.
          4    1    3    3  502    0 -0.41566497486E+02 -0.27766417766E+02 -0.51904733637E+03  0.52145037919E+03  0.12700000000E+01 0. -1.
         -4    1    3    3    0  502  0.76766584575E+02  0.19269083904E+02 -0.10580568882E+04  0.10610138537E+04  0.12700000000E+01 0. -1.
          2    1    1    2  503    0 -0.34872835276E+02 -0.29624599448E+02 -0.43932136891E+03  0.44169785682E+03  0.00000000000E+00 0. -1.
         -1    1    1    2    0  501 -0.32725181232E+00  0.38121933311E+02 -0.19494884857E+03  0.19864149227E+03  0.00000000000E+00 0.  1.
<mgrwt>
<rscale>  0 0.38704502E+02</rscale>
<asrwt>0</asrwt>
<pdfrwt beam="2">  1        2 0.34109022E+00 0.39294526E+02</pdfrwt>
<pdfrwt beam="1">  1       -1 0.87916564E-03 0.38123338E+02</pdfrwt>
<totfact> 0.13445875E+04</totfact>
</mgrwt>
</event>
<event>
 7    1  0.4251803E-004  0.7403825E+02  0.7546771E-02  0.1443333E+00
          2   -1    0    0  503    0  0.00000000000E+00  0.00000000000E+00  0.13220784216E+04  0.13220784216E+04  0.00000000000E+00 0. -1.
         -1   -1    0    0    0  501 -0.00000000000E+00 -0.00000000000E+00 -0.14015362158E+02  0.14015362158E+02  0.00000000000E+00 0.  1.
         25    2    1    2    0    0  0.57769529728E+02  0.57204331628E+02  0.58377274832E+03  0.60251631788E+03  0.12500254998E+03 0.  0.
          4    1    3    3  502    0  0.56872146903E+02  0.95211126064E+02  0.42198864034E+03  0.43632055314E+03  0.12700000000E+01 0. -1.
         -4    1    3    3    0  502  0.89738282425E+00 -0.38006794436E+02  0.16178410798E+03  0.16619576473E+03  0.12700000000E+01 0. -1.
          2    1    1    2  503    0 -0.32520587917E+02  0.10821865368E+02  0.38998192496E+03  0.39148512513E+03  0.00000000000E+00 0. -1.
         -1    1    1    2    0  501 -0.25248941811E+02 -0.68026196995E+02  0.33430838617E+03  0.34209234076E+03  0.00000000000E+00 0.  1.
<mgrwt>
<rscale>  0 0.50374407E+02</rscale>
<asrwt>0</asrwt>
<pdfrwt beam="1">  1        2 0.20339658E+00 0.34273917E+02</pdfrwt>
<pdfrwt beam="2">  1       -1 0.21562106E-02 0.74038250E+02</pdfrwt>
<totfact> 0.11829511E+04</totfact>
</mgrwt>
</event>
<event>
 7    1  0.4251803E-004  0.2898408E+03  0.7546771E-02  0.1181034E+00
          2   -1    0    0  502    0  0.00000000000E+00  0.00000000000E+00  0.12453189055E+04  0.12453189055E+04  0.00000000000E+00 0. -1.
          1   -1    0    0  503    0 -0.00000000000E+00 -0.00000000000E+00 -0.10491859789E+04  0.10491859789E+04  0.00000000000E+00 0. -1.
         25    2    1    2    0    0 -0.29458382732E+03  0.93262554645E+02  0.12585316668E+03  0.35628893448E+03  0.12500099939E+03 0.  0.
          4    1    3    3  501    0 -0.19152604646E+03  0.97628182010E+01  0.33556574977E+02  0.19469256718E+03  0.12700000000E+01 0.  1.
         -4    1    3    3    0  501 -0.10305778086E+03  0.83499736444E+02  0.92296591705E+02  0.16159636730E+03  0.12700000000E+01 0.  1.
          2    1    1    2  502    0  0.52399968691E+01 -0.96056041077E+02  0.97942286445E+03  0.98413584835E+03  0.00000000000E+00 0. -1.
          1    1    1    2  503    0  0.28934383045E+03  0.27934864313E+01 -0.90914310450E+03  0.95408010159E+03  0.00000000000E+00 0. -1.
<mgrwt>
<rscale>  0 0.16698010E+03</rscale>
<asrwt>0</asrwt>
<pdfrwt beam="1">  1        2 0.19158752E+00 0.96198860E+02</pdfrwt>
<pdfrwt beam="2">  1        1 0.16141323E+00 0.28984081E+03</pdfrwt>
<totfact> 0.40618543E+01</totfact>
</mgrwt>
</event>
<event>
 7    1  0.4251803E-004  0.3254354E+03  0.7546771E-02  0.1208321E+00
          2   -1    0    0  502    0  0.00000000000E+00  0.00000000000E+00  0.18930665120E+04  0.18930665120E+04  0.00000000000E+00 0. -1.
          2   -1    0    0  503    0 -0.00000000000E+00 -0.00000000000E+00 -0.99477000707E+03  0.99477000707E+03  0.00000000000E+00 0. -1.
         25    2    1    2    0    0 -0.74132000884E+02  0.27219254377E+03 -0.14906925898E+03  0.34268250119E+03  0.12500127284E+03 0.  0.
          4    1    3    3  501    0 -0.27509834835E+02  0.22022471651E+03 -0.15778752162E+03  0.27231274603E+03  0.12700000000E+01 0. -1.
         -4    1    3    3    0  501 -0.46622166048E+02  0.51967827262E+02  0.87182626407E+01  0.70369755157E+02  0.12700000000E+01 0. -1.
          2    1    1    2  502    0  0.27006510706E+01  0.63472780713E+02  0.17563395484E+04  0.17574881783E+04  0.00000000000E+00 0. -1.
          2    1    1    2  503    0  0.71431349813E+02 -0.33566532449E+03 -0.70897378450E+03  0.78766583963E+03  0.00000000000E+00 0. -1.
<mgrwt>
<rscale>  0 0.14378797E+03</rscale>
<asrwt>0</asrwt>
<pdfrwt beam="1">  1        2 0.29124100E+00 0.63530209E+02</pdfrwt>
<pdfrwt beam="2">  1        2 0.15304154E+00 0.32543543E+03</pdfrwt>
<totfact> 0.40211189E+01</totfact>
</mgrwt>
</event>
<event>
 7    1  0.4251803E-004  0.4164142E+02  0.7546771E-02  0.1531237E+00
          1   -1    0    0  503    0 -0.00000000000E+00  0.00000000000E+00  0.39011994241E+03  0.39011994241E+03  0.00000000000E+00 0. -1.
          2   -1    0    0  502    0  0.00000000000E+00 -0.00000000000E+00 -0.14987276422E+04  0.14987276422E+04  0.00000000000E+00 0. -1.
         25    2    1    2    0    0 -0.17647720292E+02  0.17256045356E+02  0.30718001980E+03  0.33255633459E+03  0.12499975191E+03 0.  0.
          4    1    3    3  501    0  0.52330998817E+02  0.16701178845E+02  0.10342004826E+03  0.11711012806E+03  0.12700000000E+01 0. -1.
         -4    1    3    3    0  501 -0.69978719109E+02  0.55486651111E+00  0.20375997154E+03  0.21544620653E+03  0.12700000000E+01 0. -1.
          2    1    1    2  502    0 -0.26872926257E+02  0.19046892646E+02 -0.14740812240E+04  0.14744491830E+04  0.00000000000E+00 0. -1.
          1    1    1    2  503    0  0.44520646549E+02 -0.36302938003E+02  0.58293504414E+02  0.81842067017E+02  0.00000000000E+00 0. -1.
<mgrwt>
<rscale>  0 0.37035142E+02</rscale>
<asrwt>0</asrwt>
<pdfrwt beam="2">  1        2 0.23057348E+00 0.32938401E+02</pdfrwt>
<pdfrwt beam="1">  1        1 0.60018454E-01 0.41641418E+02</pdfrwt>
<totfact> 0.14238910E+02</totfact>
</mgrwt>
</event>
<event>
 7    1  0.4251803E-004  0.5534771E+02  0.7546771E-02  0.1438748E+00
          2   -1    0    0  503    0  0.00000000000E+00  0.00000000000E+00  0.14705714627E+03  0.14705714627E+03  0.00000000000E+00 0. -1.
         -1   -1    0    0    0  501 -0.00000000000E+00 -0.00000000000E+00 -0.10831687125E+03  0.10831687125E+03  0.00000000000E+00 0.  1.
         25    2    1    2    0    0  0.30961815028E+01  0.30431241635E+02  0.59990524488E+02  0.14198293000E+03  0.12499857030E+03 0.  0.
          4    1    3    3  502    0  0.20876819908E+02 -0.20673628294E+02 -0.26741231891E+02  0.39748545877E+02  0.12700000000E+01 0.  1.
         -4    1    3    3    0  502 -0.17780638405E+02  0.51104869929E+02  0.86731756379E+02  0.10223438412E+03  0.12700000000E+01 0.  1.
          2    1    1    2  503    0  0.46708424540E+02  0.83185224898E+01 -0.22810314739E+01  0.47498187797E+02  0.00000000000E+00 0. -1.
         -1    1    1    2    0  501 -0.49804606043E+02 -0.38749764125E+02 -0.18969217999E+02  0.65892899726E+02  0.00000000000E+00 0.  1.
<mgrwt>
<rscale>  0 0.51243366E+02</rscale>
<asrwt>0</asrwt>
<pdfrwt beam="1">  1        2 0.22624176E-01 0.47443385E+02</pdfrwt>
<pdfrwt beam="2">  1       -1 0.16664134E-01 0.55347707E+02</pdfrwt>
<totfact> 0.65444725E+03</totfact>
</mgrwt>
</event>
<event>
 7    1  0.4251803E-004  0.4404687E+02  0.7546771E-02  0.1516983E+00
          1   -1    0    0  503    0  0.00000000000E+00  0.00000000000E+00  0.15351793061E+03  0.15351793061E+03  0.00000000000E+00 0. -1.
          1   -1    0    0  502    0 -0.00000000000E+00 -0.00000000000E+00 -0.42704206764E+03  0.42704206764E+03  0.00000000000E+00 0. -1.
         25    2    1    2    0    0  0.20775765770E+02  0.50158394572E+01 -0.11879183384E+03  0.17376033673E+03  0.12499745495E+03 0.  0.
          4    1    3    3  501    0  0.55924118206E+02 -0.36109065626E+02 -0.91482791834E+02  0.11314630228E+03  0.12700000000E+01 0. -1.
         -4    1    3    3    0  501 -0.35148352436E+02  0.41124905083E+02 -0.27309042009E+02  0.60614034451E+02  0.12700000000E+01 0. -1.
          1    1    1    2  502    0  0.96687842647E+00  0.34221854616E+02 -0.27568167737E+03  0.27779931142E+03  0.00000000000E+00 0. -1.
          1    1    1    2  503    0 -0.21742644196E+02 -0.39237694073E+02  0.12094937418E+03  0.12900035011E+03  0.00000000000E+00 0. -1.
<mgrwt>
<rscale>  0 0.38832552E+02</rscale>
<asrwt>0</asrwt>
<pdfrwt beam="1">  1        1 0.23618144E-01 0.44046871E+02</pdfrwt>
<pdfrwt beam="2">  1        1 0.65698778E-01 0.34235511E+02</pdfrwt>
<totfact> 0.13393428E+03</totfact>
</mgrwt>
</event>
<event>
 7    1  0.4251803E-004  0.2692010E+03  0.7546771E-02  0.1161118E+00
          2   -1    0    0  502    0  0.00000000000E+00  0.00000000000E+00  0.10562537942E+04  0.10562537942E+04  0.00000000000E+00 0. -1.
          1   -1    0    0  503    0 -0.00000000000E+00 -0.00000000000E+00 -0.27381332351E+03  0.27381332351E+03  0.00000000000E+00 0. -1.
         25    2    1    2    0    0 -0.24732100611E+03 -0.17233949935E+03  0.24658314081E+03  0.40901862117E+03  0.12499761612E+03 0.  0.
          4    1    3    3  501    0 -0.66269998151E+02 -0.36467249842E+01  0.10882468882E+02  0.67268508880E+02  0.12700000000E+01 0.  1.
         -4    1    3    3    0  501 -0.18105100796E+03 -0.16869277436E+03  0.23570067192E+03  0.34175011229E+03  0.12700000000E+01 0.  1.
          2    1    1    2  502    0  0.26248862284E+03  0.43211765251E+02  0.67805489889E+03  0.72837214367E+03  0.00000000000E+00 0. -1.
          1    1    1    2  503    0 -0.15167616727E+02  0.12912773410E+03 -0.14219756903E+03  0.19267635285E+03  0.00000000000E+00 0. -1.
<mgrwt>
<rscale>  0 0.18708367E+03</rscale>
<asrwt>0</asrwt>
<pdfrwt beam="1">  1        2 0.16250058E+00 0.26920099E+03</pdfrwt>
<pdfrwt beam="2">  1        1 0.42125127E-01 0.13001549E+03</pdfrwt>
<totfact> 0.32594797E+02</totfact>
</mgrwt>
</event>
<event>
 7    1  0.4251803E-004  0.7712846E+02  0.7546771E-02  0.1402122E+00
          1   -1    0    0  503    0  0.00000000000E+00  0.00000000000E+00  0.58648108141E+03  0.58648108141E+03  0.00000000000E+00 0. -1.
         -1   -1    0    0    0  501 -0.00000000000E+00 -0.00000000000E+00 -0.78051864683E+02  0.78051864683E+02  0.00000000000E+00 0.  1.
         25    2    1    2    0    0 -0.21639109230E+02  0.45885142712E+01  0.27129639167E+02  0.12980425690E+03  0.12499528902E+03 0.  0.
          4    1    3    3  502    0 -0.10447340017E+02 -0.60051722509E+02  0.82134492300E+01  0.61517720520E+02  0.12700000000E+01 0. -1.
         -4    1    3    3    0  502 -0.11191769213E+02  0.64640236780E+02  0.18916189937E+02  0.68286536381E+02  0.12700000000E+01 0. -1.
          1    1    1    2  503    0 -0.52251030534E+01 -0.76951265432E+02  0.44092241888E+03  0.44761744652E+03  0.00000000000E+00 0. -1.
         -1    1    1    2    0  501  0.26864212283E+02  0.72362751160E+02  0.40377158672E+02  0.87111242670E+02  0.00000000000E+00 0.  1.
<mgrwt>
<rscale>  0 0.58989568E+02</rscale>
<asrwt>0</asrwt>
<pdfrwt beam="1">  1        1 0.90227856E-01 0.77128457E+02</pdfrwt>
<pdfrwt beam="2">  1       -1 0.12007980E-01 0.45116539E+02</pdfrwt>
<totfact> 0.15603860E+03</totfact>
</mgrwt>
</event>
<event>
 7    1  0.4251803E-004  0.7703025E+02  0.7546771E-02  0.1422827E+00
          2   -1    0    0  503    0  0.00000000000E+00  0.00000000000E+00  0.10827964462E+04  0.10827964462E+04  0.00000000000E+00 0. -1.
         -1   -1    0    0    0  501 -0.00000000000E+00 -0.00000000000E+00 -0.17381929978E+02  0.17381929978E+02  0.00000000000E+00 0.  1.
         25    2    1    2    0    0  0.46666399789E+02 -0.72913617425E+02  0.71241357298E+03  0.72845890790E+03  0.12500053222E+03 0.  0.
          4    1    3    3  502    0 -0.32587818958E+02 -0.52596038518E+02  0.42997608166E+03  0.43440689786E+03  0.12700000000E+01 0.  1.
         -4    1    3    3    0  502  0.79254218746E+02 -0.20317578907E+02  0.28243749132E+03  0.29405201003E+03  0.12700000000E+01 0.  1.
          2    1    1    2  503    0  0.18311192425E+02  0.33817474959E+02  0.87005489798E+02  0.95125583497E+02  0.00000000000E+00 0. -1.
         -1    1    1    2    0  501 -0.64977592214E+02  0.39096142466E+02  0.26599545341E+03  0.27659388475E+03  0.00000000000E+00 0.  1.
<mgrwt>
<rscale>  0 0.54427318E+02</rscale>
<asrwt>0</asrwt>
<pdfrwt beam="1">  1        2 0.16658402E+00 0.38456747E+02</pdfrwt>
<pdfrwt beam="2">  1       -1 0.26741439E-02 0.77030254E+02</pdfrwt>
<totfact> 0.11542047E+04</totfact>
</mgrwt>
</event>
<event>
 7    1  0.4251803E-004  0.4995534E+02  0.7546771E-02  0.1450321E+00
          2   -1    0    0  502    0  0.00000000000E+00  0.00000000000E+00  0.15732093200E+04  0.15732093200E+04  0.00000000000E+00 0. -1.
          2   -1    0    0  503    0 -0.00000000000E+00 -0.00000000000E+00 -0.70665446495E+02  0.70665446495E+02  0.00000000000E+00 0. -1.
         25    2    1    2    0    0  0.93704516847E+02 -0.15956767567E+02  0.10103932893E+04  0.10225225594E+04  0.12499052153E+03 0.  0.
          4    1    3    3  501    0 -0.21894885611E+02  0.35435714651E+00  0.44641184898E+02  0.49738917097E+02  0.12700000000E+01 0. -1.
         -4    1    3    3    0  501  0.11559940246E+03 -0.16311124714E+02  0.96575210440E+03  0.97278364228E+03  0.12700000000E+01 0. -1.
          2    1    1    2  502    0 -0.44258726462E+02  0.19181918598E+02  0.54602737047E+03  0.54815387454E+03  0.00000000000E+00 0. -1.
          2    1    1    2  503    0 -0.49445790385E+02 -0.32251510306E+01 -0.53876786295E+02  0.73198332545E+02  0.00000000000E+00 0. -1.
<mgrwt>
<rscale>  0 0.49088509E+02</rscale>
<asrwt>0</asrwt>
<pdfrwt beam="1">  1        2 0.24203218E+00 0.48236717E+02</pdfrwt>
<pdfrwt beam="2">  1        2 0.10871608E-01 0.49955343E+02</pdfrwt>
<totfact> 0.11673059E+03</totfact>
</mgrwt>
</event>
<event>
 7    1  0.4251803E-004  0.1231696E+03  0.7546771E-02  0.1277523E+00
          2   -1    0    0  503    0  0.00000000000E+00  0.00000000000E+00  0.13891045907E+03  0.13891045907E+03  0.00000000000E+00 0. -1.
          2   -1    0    0  502    0 -0.00000000000E+00 -0.00000000000E+00 -0.28497160843E+04  0.28497160843E+04  0.00000000000E+00 0. -1.
         25    2    1    2    0    0  0.13856771562E+03  0.44268103935E+02 -0.20119968223E+03  0.27797135063E+03  0.12500433112E+03 0.  0.
          4    1    3    3  501    0 -0.17707998314E+02 -0.14033629551E+02 -0.11558093272E+02  0.25410989410E+02  0.12700000000E+01 0.  1.
         -4    1    3    3    0  501  0.15627571394E+03  0.58301733486E+02 -0.18964158896E+03  0.25256036122E+03  0.12700000000E+01 0.  1.
          2    1    1    2  502    0 -0.20903785318E+02 -0.80700355324E+02 -0.25714675361E+04  0.25728184555E+04  0.00000000000E+00 0. -1.
          2    1    1    2  503    0 -0.11766393030E+03  0.36432251389E+02  0.61861593117E+02  0.13783673726E+03  0.00000000000E+00 0. -1.
<mgrwt>
<rscale>  0 0.10133056E+03</rscale>
<asrwt>0</asrwt>
<pdfrwt beam="1">  1        2 0.21370841E-01 0.12316964E+03</pdfrwt>
<pdfrwt beam="2">  1        2 0.43841783E+00 0.83363755E+02</pdfrwt>
<totfact> 0.11816362E+02</totfact>
</mgrwt>
</event>
<event>
 7    1  0.4251803E-004  0.1095151E+03  0.7546771E-02  0.1382405E+00
          1   -1    0    0  503    0  0.00000000000E+00  0.00000000000E+00  0.13551591684E+04  0.13551591684E+04  0.00000000000E+00 0. -1.
         -3   -1    0    0    0  501 -0.00000000000E+00 -0.00000000000E+00 -0.94806533806E+02  0.94806533806E+02  0.00000000000E+00 0.  1.
         25    2    1    2    0    0 -0.18234122776E+02  0.12370341069E+03  0.87095250324E+03  0.88871711882E+03  0.12499934936E+03 0.  0.
          4    1    3    3  502    0 -0.46070006036E+02 -0.13804639413E+01  0.16975030592E+03  0.17590091073E+03  0.12700000000E+01 0. -1.
         -4    1    3    3    0  502  0.27835883260E+02  0.12508387463E+03  0.70120219732E+03  0.71281620808E+03  0.12700000000E+01 0. -1.
          1    1    1    2  503    0  0.33728735427E+02 -0.15713898657E+02  0.43958983396E+03  0.44116184822E+03  0.00000000000E+00 0. -1.
         -3    1    1    2    0  501 -0.15494612651E+02 -0.10798951203E+03 -0.50189702561E+02  0.12008673521E+03  0.00000000000E+00 0.  1.
<mgrwt>
<rscale>  0 0.63835840E+02</rscale>
<asrwt>0</asrwt>
<pdfrwt beam="1">  1        1 0.20848601E+00 0.37209598E+02</pdfrwt>
<pdfrwt beam="2">  1       -3 0.14585622E-01 0.10951514E+03</pdfrwt>
<totfact> 0.21387364E+02</totfact>
</mgrwt>
</event>
<event>
 7    1  0.4251803E-004  0.1508293E+03  0.7546771E-02  0.1230588E+00
          3   -1    0    0  503    0 -0.00000000000E+00  0.00000000000E+00  0.79788535398E+03  0.79788535398E+03  0.00000000000E+00 0. -1.
          2   -1    0    0  502    0  0.00000000000E+00 -0.00000000000E+00 -0.18557591107E+04  0.18557591107E+04  0.00000000000E+00 0. -1.
         25    2    1    2    0    0 -0.76720342506E+02  0.12995409528E+03 -0.97779819278E+03  0.99723615139E+03  0.12496622744E+03 0.  0.
          4    1    3    3  501    0 -0.26614732550E+02  0.14105338573E+03 -0.76326779137E+03  0.77664904291E+03  0.12700000000E+01 0. -1.
         -4    1    3    3    0  501 -0.50105609956E+02 -0.11099290448E+02 -0.21453040142E+03  0.22058710849E+03  0.12700000000E+01 0. -1.
          2    1    1    2  502    0  0.15742604687E+03 -0.57471477581E+02 -0.85634834050E+03  0.87259292414E+03  0.00000000000E+00 0. -1.
          3    1    1    2  503    0 -0.80705704362E+02 -0.72482617700E+02  0.77627277658E+03  0.78381538913E+03  0.00000000000E+00 0. -1.
<mgrwt>
<rscale>  0 0.12791178E+03</rscale>
<asrwt>0</asrwt>
<pdfrwt beam="2">  1        2 0.28550140E+00 0.15082927E+03</pdfrwt>
<pdfrwt beam="1">  1        3 0.12275159E+00 0.10847645E+03</pdfrwt>
<totfact> 0.32580213E+00</totfact>
</mgrwt>
</event>
<event>
 7    1  0.4251803E-004  0.3136675E+03  0.7546771E-02  0.1210461E+00
          2   -1    0    0  503    0  0.00000000000E+00  0.00000000000E+00  0.17922416685E+04  0.17922416685E+04  0.00000000000E+00 0. -1.
          2   -1    0    0  502    0 -0.00000000000E+00 -0.00000000000E+00 -0.55756783609E+03  0.55756783609E+03  0.00000000000E+00 0. -1.
         25    2    1    2    0    0  0.20751964305E+02 -0.30871335627E+03  0.64447923207E+02  0.33986951162E+03  0.12499267883E+03 0.  0.
          4    1    3    3  501    0 -0.21875523844E+02 -0.25923452488E+03  0.81012505156E+02  0.27248067147E+03  0.12700000000E+01 0. -1.
         -4    1    3    3    0  501  0.42627488149E+02 -0.49478831390E+02 -0.16564581949E+02  0.67388840150E+02  0.12700000000E+01 0. -1.
          2    1    1    2  502    0  0.43499575778E+02  0.31340863470E+03 -0.35946877780E+03  0.47888932710E+03  0.00000000000E+00 0. -1.
          2    1    1    2  503    0 -0.64251540082E+02 -0.46952784292E+01  0.15296946870E+04  0.15310506658E+04  0.00000000000E+00 0. -1.
<mgrwt>
<rscale>  0 0.14215260E+03</rscale>
<asrwt>0</asrwt>
<pdfrwt beam="1">  1        2 0.27572948E+00 0.64422869E+02</pdfrwt>
<pdfrwt beam="2">  1        2 0.85779668E-01 0.31366754E+03</pdfrwt>
<totfact> 0.93725945E+01</totfact>
</mgrwt>
</event>
<event>
 7    1  0.4251803E-004  0.4476661E+02  0.7546771E-02  0.1539075E+00
          2   -1    0    0  503    0  0.00000000000E+00  0.00000000000E+00  0.47953333872E+02  0.47953333872E+02  0.00000000000E+00 0. -1.
         -1   -1    0    0    0  501 -0.00000000000E+00 -0.00000000000E+00 -0.24649446321E+03  0.24649446321E+03  0.00000000000E+00 0.  1.
         25    2    1    2    0    0  0.20227080719E+02  0.22723653262E+02 -0.14344856006E+03  0.19268824333E+03  0.12500308205E+03 0.  0.
          4    1    3    3  502    0  0.23669287252E+02 -0.49396896419E+02 -0.46903344351E+02  0.72123679511E+02  0.12700000000E+01 0. -1.
         -4    1    3    3    0  502 -0.34422065331E+01  0.72120549681E+02 -0.96545215710E+02  0.12056456382E+03  0.12700000000E+01 0. -1.
          2    1    1    2  503    0 -0.46980637799E+02 -0.11262420560E+02 -0.12035722944E+02  0.49788362813E+02  0.00000000000E+00 0. -1.
         -1    1    1    2    0  501  0.26753557080E+02 -0.11461232702E+02 -0.43056846328E+02  0.51971190935E+02  0.00000000000E+00 0.  1.
<mgrwt>
<rscale>  0 0.36096274E+02</rscale>
<asrwt>0</asrwt>
<pdfrwt beam="1">  1        2 0.73774361E-02 0.44766606E+02</pdfrwt>
<pdfrwt beam="2">  1       -1 0.37922224E-01 0.29105200E+02</pdfrwt>
<totfact> 0.62307962E+03</totfact>
</mgrwt>
</event>
<event>
 7    1  0.4251803E-004  0.1508517E+03  0.7546771E-02  0.1266390E+00
          1   -1    0    0  503    0  0.00000000000E+00  0.00000000000E+00  0.28301137361E+04  0.28301137361E+04  0.00000000000E+00 0. -1.
         -1   -1    0    0    0  501 -0.00000000000E+00 -0.00000000000E+00 -0.59207471476E+03  0.59207471476E+03  0.00000000000E+00 0.  1.
         25    2    1    2    0    0 -0.74622319411E+02 -0.16103380654E+03  0.92666331873E+03  0.95175131307E+03  0.12500111293E+03 0.  0.
          4    1    3    3  502    0 -0.34819101191E+02 -0.17159750549E+03  0.77990110257E+03  0.79931559249E+03  0.12700000000E+01 0. -1.
         -4    1    3    3    0  502 -0.39803218221E+02  0.10563698950E+02  0.14676221616E+03  0.15243572058E+03  0.12700000000E+01 0. -1.
          1    1    1    2  503    0  0.75074672934E+02  0.10288824447E+02  0.18803274960E+04  0.18818537559E+04  0.00000000000E+00 0. -1.
         -1    1    1    2    0  501 -0.45235352263E+00  0.15074498209E+03 -0.56895179338E+03  0.58858338189E+03  0.00000000000E+00 0.  1.
<mgrwt>
<rscale>  0 0.10691588E+03</rscale>
<asrwt>0</asrwt>
<pdfrwt beam="1">  1        1 0.43540210E+00 0.75776424E+02</pdfrwt>
<pdfrwt beam="2">  1       -1 0.91088419E-01 0.15085175E+03</pdfrwt>
<totfact> 0.14943385E+00</totfact>
</mgrwt>
</event>
<event>
 7    1  0.4251803E-004  0.1230833E+03  0.7546771E-02  0.1367247E+00
          1   -1    0    0  502    0  0.00000000000E+00  0.00000000000E+00  0.15306671570E+03  0.15306671570E+03  0.00000000000E+00 0. -1.
          1   -1    0    0  503    0 -0.00000000000E+00 -0.00000000000E+00 -0.51227848954E+03  0.51227848954E+03  0.00000000000E+00 0. -1.
         25    2    1    2    0    0 -0.99912799991E+02 -0.11526360089E+03 -0.10966278226E+03  0.22566274550E+03  0.12501793310E+03 0.  0.
          4    1    3    3  501    0 -0.88448177547E+01 -0.10468570313E+03 -0.50777024856E+02  0.11669295778E+03  0.12700000000E+01 0. -1.
         -4    1    3    3    0  501 -0.91067982236E+02 -0.10577897760E+02 -0.58885757408E+02  0.10896978772E+03  0.12700000000E+01 0. -1.
          1    1    1    2  502    0  0.68729579221E+02  0.94434406707E+02  0.57617132762E+02  0.13023573326E+03  0.00000000000E+00 0. -1.
          1    1    1    2  503    0  0.31183220769E+02  0.20829194187E+02 -0.30716612434E+03  0.30944672648E+03  0.00000000000E+00 0. -1.
<mgrwt>
<rscale>  0 0.67938363E+02</rscale>
<asrwt>0</asrwt>
<pdfrwt beam="1">  1        1 0.23548725E-01 0.12308329E+03</pdfrwt>
<pdfrwt beam="2">  1        1 0.78812077E-01 0.37499981E+02</pdfrwt>
<totfact> 0.11095965E+03</totfact>
</mgrwt>
</event>
<event>
 7    1  0.4251803E-004  0.8054065E+02  0.7546771E-02  0.1373837E+00
          3   -1    0    0  503    0 -0.00000000000E+00  0.00000000000E+00  0.22472458428E+03  0.22472458428E+03  0.00000000000E+00 0. -1.
          1   -1    0    0  502    0  0.00000000000E+00 -0.00000000000E+00 -0.93931852783E+03  0.93931852783E+03  0.00000000000E+00 0. -1.
         25    2    1    2    0    0 -0.91022678760E+02 -0.84927187109E+02 -0.45293510470E+03  0.48607979075E+03  0.12500239495E+03 0.  0.
          4    1    3    3  501    0 -0.18561656877E+02 -0.21470113031E+02 -0.62014343117E+01  0.29078712955E+02  0.12700000000E+01 0.  1.
         -4    1    3    3    0  501 -0.72461021883E+02 -0.63457074078E+02 -0.44673367039E+03  0.45700107779E+03  0.12700000000E+01 0.  1.
          1    1    1    2  502    0  0.43354324147E+02  0.58989988169E+02 -0.46335063603E+03  0.46909831383E+03  0.00000000000E+00 0. -1.
          3    1    1    2  503    0  0.47668354612E+02  0.25937198940E+02  0.20169179718E+03  0.20886500753E+03  0.00000000000E+00 0. -1.
<mgrwt>
<rscale>  0 0.66111844E+02</rscale>
<asrwt>0</asrwt>
<pdfrwt beam="2">  1        1 0.14451055E+00 0.80540649E+02</pdfrwt>
<pdfrwt beam="1">  1        3 0.34573012E-01 0.54267949E+02</pdfrwt>
<totfact> 0.78245643E+01</totfact>
</mgrwt>
</event>
<event>
 7    1  0.4251803E-004  0.9692311E+02  0.7546771E-02  0.1403837E+00
         -1   -1    0    0    0  501 -0.00000000000E+00  0.00000000000E+00  0.16538352953E+03  0.16538352953E+03  0.00000000000E+00 0.  1.
          2   -1    0    0  503    0  0.00000000000E+00 -0.00000000000E+00 -0.59288080977E+03  0.59288080977E+03  0.00000000000E+00 0. -1.
         25    2    1    2    0    0 -0.86297797492E+02  0.36028972746E+02 -0.10030734791E+03  0.18555698917E+03  0.12499774180E+03 0.  0.
          4    1    3    3  502    0 -0.33852494190E+02 -0.33029088380E+02 -0.85300992735E+02  0.97543755842E+02  0.12700000000E+01 0. -1.
         -4    1    3    3    0  502 -0.52445303302E+02  0.69058061126E+02 -0.15006355171E+02  0.88013233325E+02  0.12700000000E+01 0. -1.
          2    1    1    2  503    0  0.98028453819E+02 -0.26076421736E+01 -0.44190168882E+03  0.45265161011E+03  0.00000000000E+00 0. -1.
         -1    1    1    2    0  501 -0.11730656328E+02 -0.33421330573E+02  0.11471175649E+03  0.12005574002E+03  0.00000000000E+00 0.  1.
<mgrwt>
<rscale>  0 0.58592152E+02</rscale>
<asrwt>0</asrwt>
<pdfrwt beam="2">  1        2 0.91212433E-01 0.96923113E+02</pdfrwt>
<pdfrwt beam="1">  1       -1 0.25443620E-01 0.35420243E+02</pdfrwt>
<totfact> 0.76660255E+02</totfact>
</mgrwt>
</event>
<event>
 7    1  0.4251803E-004  0.3751404E+02  0.7546771E-02  0.1591200E+00
          2   -1    0    0  502    0  0.00000000000E+00  0.00000000000E+00  0.98456827892E+03  0.98456827892E+03  0.00000000000E+00 0. -1.
          3   -1    0    0  503    0 -0.00000000000E+00 -0.00000000000E+00 -0.77228410179E+03  0.77228410179E+03  0.00000000000E+00 0. -1.
         25    2    1    2    0    0 -0.30050265056E+02  0.48732079168E+02 -0.13752670422E+03  0.19446152948E+03  0.12499543233E+03 0.  0.
          4    1    3    3  501    0 -0.65702863392E+02 -0.20659140868E+01 -0.34678142346E+02  0.74332501071E+02  0.12700000000E+01 0. -1.
         -4    1    3    3    0  501  0.35652598336E+02  0.50797993255E+02 -0.10284856187E+03  0.12012902840E+03  0.12700000000E+01 0. -1.
          2    1    1    2  502    0  0.28998561730E+02 -0.23740855613E+02  0.95547536202E+03  0.95621007746E+03  0.00000000000E+00 0. -1.
          3    1    1    2  503    0  0.10517033259E+01 -0.24991223555E+02 -0.60566448068E+03  0.60618077378E+03  0.00000000000E+00 0. -1.
<mgrwt>
<rscale>  0 0.30632523E+02</rscale>
<asrwt>0</asrwt>
<pdfrwt beam="1">  1        2 0.15147204E+00 0.37514035E+02</pdfrwt>
<pdfrwt beam="2">  1        3 0.11881294E+00 0.25013343E+02</pdfrwt>
<totfact> 0.10747132E+01</totfact>
</mgrwt>
</event>
<event>
 7    1  0.4251803E-004  0.8234079E+02  0.7546771E-02  0.1387195E+00
          1   -1    0    0  503    0  0.00000000000E+00  0.00000000000E+00  0.69274799678E+03  0.69274799678E+03  0.00000000000E+00 0. -1.
         -3   -1    0    0    0  501 -0.00000000000E+00 -0.00000000000E+00 -0.40642854573E+03  0.40642854573E+03  0.00000000000E+00 0.  1.
         25    2    1    2    0    0  0.11342272147E+03  0.40259931937E+02  0.17541555681E+02  0.17440625475E+03  0.12499703859E+03 0.  0.
          4    1    3    3  502    0  0.74496108853E+02  0.13419673591E+02  0.70465908186E+02  0.10342540786E+03  0.12700000000E+01 0.  1.
         -4    1    3    3    0  502  0.38926612613E+02  0.26840258346E+02 -0.52924352505E+02  0.70980846893E+02  0.12700000000E+01 0.  1.
          1    1    1    2  503    0 -0.33068515137E+02 -0.34247503994E+02  0.59085324446E+03  0.59276806148E+03  0.00000000000E+00 0. -1.
         -3    1    1    2    0  501 -0.80354206329E+02 -0.60124279430E+01 -0.32207534909E+03  0.33200222628E+03  0.00000000000E+00 0.  1.
<mgrwt>
<rscale>  0 0.62609830E+02</rscale>
<asrwt>0</asrwt>
<pdfrwt beam="1">  1        1 0.10657662E+00 0.47606914E+02</pdfrwt>
<pdfrwt beam="2">  1       -3 0.62527468E-01 0.82340789E+02</pdfrwt>
<totfact> 0.40862119E+01</totfact>
</mgrwt>
</event>
<event>
 7    1  0.4251803E-004  0.6919764E+02  0.7546771E-02  0.1383140E+00
         -3   -1    0    0    0  501 -0.00000000000E+00  0.00000000000E+00  0.29662816024E+03  0.29662816024E+03  0.00000000000E+00 0.  1.
          2   -1    0    0  503    0  0.00000000000E+00 -0.00000000000E+00 -0.14955188060E+04  0.14955188060E+04  0.00000000000E+00 0. -1.
         25    2    1    2    0    0 -0.25853132197E+02 -0.69660933383E+01 -0.67303110286E+03  0.68506382921E+03  0.12499869510E+03 0.  0.
          4    1    3    3  502    0 -0.60145978927E+02 -0.57979920491E+01 -0.61248083722E+03  0.61545555839E+03  0.12700000000E+01 0.  1.
         -4    1    3    3    0  502  0.34292846730E+02 -0.11681012892E+01 -0.60550265637E+02  0.69608270817E+02  0.12700000000E+01 0.  1.
          2    1    1    2  503    0 -0.27307243732E+02  0.51779572917E+02 -0.81124282286E+03  0.81335215459E+03  0.00000000000E+00 0. -1.
         -3    1    1    2    0  501  0.53160375929E+02 -0.44813479579E+02  0.28538327999E+03  0.29373098240E+03  0.00000000000E+00 0.  1.
<mgrwt>
<rscale>  0 0.63645564E+02</rscale>
<asrwt>0</asrwt>
<pdfrwt beam="2">  1        2 0.23007982E+00 0.58538959E+02</pdfrwt>
<pdfrwt beam="1">  1       -3 0.45635102E-01 0.69197641E+02</pdfrwt>
<totfact> 0.43607696E+01</totfact>
</mgrwt>
</event>
<event>
 7    1  0.4251803E-004  0.7229300E+02  0.7546771E-02  0.1353088E+00
          2   -1    0    0  503    0  0.00000000000E+00  0.00000000000E+00  0.15127693195E+04  0.15127693195E+04  0.00000000000E+00 0. -1.
         -2   -1    0    0    0  501 -0.00000000000E+00 -0.00000000000E+00 -0.76055483016E+02  0.76055483016E+02  0.00000000000E+00 0.  1.
         25    2    1    2    0    0  0.19998552728E+02  0.20335916398E+02  0.23096086313E+03  0.26416053730E+03  0.12499751022E+03 0.  0.
          4    1    3    3  502    0  0.25978809877E+01  0.45596375209E+02  0.18173214670E+02  0.49169676115E+02  0.12700000000E+01 0.  1.
         -4    1    3    3    0  502  0.17400671740E+02 -0.25260458810E+02  0.21278764846E+03  0.21499086118E+03  0.12700000000E+01 0.  1.
          2    1    1    2  503    0  0.32482407655E+02 -0.69498211169E+02  0.12418394610E+04  0.12442067172E+04  0.00000000000E+00 0. -1.
         -2    1    1    2    0  501 -0.52480960383E+02  0.49162294770E+02 -0.36086487716E+02  0.80457547971E+02  0.00000000000E+00 0.  1.
<mgrwt>
<rscale>  0 0.72101715E+02</rscale>
<asrwt>0</asrwt>
<pdfrwt beam="1">  1        2 0.23273372E+00 0.72293002E+02</pdfrwt>
<pdfrwt beam="2">  1       -2 0.11700845E-01 0.71910934E+02</pdfrwt>
<totfact> 0.71641455E+02</totfact>
</mgrwt>
</event>
<event>
 7    1  0.4251803E-004  0.7890139E+02  0.7546771E-02  0.1429706E+00
         -1   -1    0    0    0  501 -0.00000000000E+00  0.00000000000E+00  0.36800153900E+03  0.36800153900E+03  0.00000000000E+00 0.  1.
          2   -1    0    0  503    0  0.00000000000E+00 -0.00000000000E+00 -0.93221676067E+02  0.93221676067E+02  0.00000000000E+00 0.  1.
         25    2    1    2    0    0  0.48980324229E+02  0.12761853308E+01 -0.75072346444E+01  0.13447771196E+03  0.12500878221E+03 0.  0.
          4    1    3    3  502    0  0.16166056913E+02 -0.24304702164E+01 -0.65613403465E+02  0.67631207263E+02  0.12700000000E+01 0.  1.
         -4    1    3    3    0  502  0.32814267315E+02  0.37066555472E+01  0.58106168820E+02  0.66846504693E+02  0.12700000000E+01 0.  1.
          2    1    1    2  503    0  0.29755951328E+02  0.19592515485E+02  0.29208574599E+01  0.35746534248E+02  0.00000000000E+00 0.  1.
         -1    1    1    2    0  501 -0.78736275556E+02 -0.20868700816E+02  0.27936624011E+03  0.29099896886E+03  0.00000000000E+00 0.  1.
<mgrwt>
<rscale>  0 0.53019054E+02</rscale>
<asrwt>0</asrwt>
<pdfrwt beam="2">  1        2 0.14341797E-01 0.35627002E+02</pdfrwt>
<pdfrwt beam="1">  1       -1 0.56615621E-01 0.78901392E+02</pdfrwt>
<totfact> 0.13980600E+03</totfact>
</mgrwt>
</event>
<event>
 7    1  0.4251803E-004  0.3866253E+02  0.7546771E-02  0.1527387E+00
          2   -1    0    0  503    0  0.00000000000E+00  0.00000000000E+00  0.11674021221E+04  0.11674021221E+04  0.00000000000E+00 0. -1.
         -1   -1    0    0    0  501 -0.00000000000E+00 -0.00000000000E+00 -0.10412378951E+02  0.10412378951E+02  0.00000000000E+00 0.  1.
         25    2    1    2    0    0  0.44336247466E+01  0.34917045328E+02  0.78574103254E+03  0.79639942060E+03  0.12499683927E+03 0.  0.
          4    1    3    3  502    0  0.30010559321E+02  0.74501111823E+02  0.56484812697E+03  0.57053139158E+03  0.12700000000E+01 0.  1.
         -4    1    3    3    0  502 -0.25576934574E+02 -0.39584066495E+02  0.22089290557E+03  0.22586802902E+03  0.12700000000E+01 0.  1.
          2    1    1    2  503    0  0.31617234088E+02 -0.29963875802E+02  0.27665569098E+03  0.28006401892E+03  0.00000000000E+00 0. -1.
         -1    1    1    2    0  501 -0.36050858834E+02 -0.49531695256E+01  0.94593019676E+02  0.10135106158E+03  0.00000000000E+00 0.  1.
<mgrwt>
<rscale>  0 0.37508819E+02</rscale>
<asrwt>0</asrwt>
<pdfrwt beam="1">  1        2 0.17960022E+00 0.38662530E+02</pdfrwt>
<pdfrwt beam="2">  1       -1 0.16019054E-02 0.36389536E+02</pdfrwt>
<totfact> 0.19059169E+04</totfact>
</mgrwt>
</event>
<event>
 7    1  0.4251803E-004  0.4661284E+02  0.7546771E-02  0.1543785E+00
         -1   -1    0    0    0  501 -0.00000000000E+00  0.00000000000E+00  0.25458955581E+03  0.25458955581E+03  0.00000000000E+00 0.  1.
          2   -1    0    0  503    0  0.00000000000E+00 -0.00000000000E+00 -0.55630510704E+02  0.55630510704E+02  0.00000000000E+00 0. -1.
         25    2    1    2    0    0 -0.20642526597E+02 -0.31270839236E+02  0.54479445075E+02  0.14141113144E+03  0.12500047548E+03 0.  0.
          4    1    3    3  502    0 -0.23964398089E+02 -0.25208137035E+02 -0.36340933943E+02  0.50319170586E+02  0.12700000000E+01 0. -1.
         -4    1    3    3    0  502  0.33218714918E+01 -0.60627022005E+01  0.90820379018E+02  0.91091960859E+02  0.12700000000E+01 0. -1.
          2    1    1    2  503    0  0.47446139087E+02  0.35336400426E+02  0.11049957996E+03  0.12533935727E+03  0.00000000000E+00 0. -1.
         -1    1    1    2    0  501 -0.26803612489E+02 -0.40655611897E+01  0.33980020076E+02  0.43469577806E+02  0.00000000000E+00 0.  1.
<mgrwt>
<rscale>  0 0.35548319E+02</rscale>
<asrwt>0</asrwt>
<pdfrwt beam="2">  1        2 0.85585403E-02 0.46612840E+02</pdfrwt>
<pdfrwt beam="1">  1       -1 0.39167623E-01 0.27110191E+02</pdfrwt>
<totfact> 0.49427937E+03</totfact>
</mgrwt>
</event>
<event>
 7    1  0.4251803E-004  0.1326975E+03  0.7546771E-02  0.1306879E+00
          1   -1    0    0  502    0  0.00000000000E+00  0.00000000000E+00  0.97468649942E+03  0.97468649942E+03  0.00000000000E+00 0. -1.
          1   -1    0    0  503    0 -0.00000000000E+00 -0.00000000000E+00 -0.11235250552E+03  0.11235250552E+03  0.00000000000E+00 0. -1.
         25    2    1    2    0    0  0.57921441062E+02  0.55784191363E+02  0.39374044658E+03  0.42086228717E+03  0.12500702437E+03 0.  0.
          4    1    3    3  501    0 -0.29422057302E+01  0.30097145566E+02  0.10605441440E+02  0.32071529959E+02  0.12700000000E+01 0. -1.
         -4    1    3    3    0  501  0.60863646792E+02  0.25687045797E+02  0.38313500514E+03  0.38879075721E+03  0.12700000000E+01 0. -1.
          1    1    1    2  502    0  0.38335476589E+02  0.44628903663E+02  0.51590824757E+03  0.51925202717E+03  0.00000000000E+00 0. -1.
          1    1    1    2  503    0 -0.96256917650E+02 -0.10041309503E+03 -0.47314700259E+02  0.14692469060E+03  0.00000000000E+00 0. -1.
<mgrwt>
<rscale>  0 0.88357336E+02</rscale>
<asrwt>0</asrwt>
<pdfrwt beam="1">  1        1 0.14995176E+00 0.58833220E+02</pdfrwt>
<pdfrwt beam="2">  1        1 0.17285002E-01 0.13269746E+03</pdfrwt>
<totfact> 0.66149016E+02</totfact>
</mgrwt>
</event>
<event>
 7    1  0.4251803E-004  0.6263383E+02  0.7546771E-02  0.1411751E+00
          3   -1    0    0  503    0 -0.00000000000E+00  0.00000000000E+00  0.15243849144E+03  0.15243849144E+03  0.00000000000E+00 0. -1.
          2   -1    0    0  502    0  0.00000000000E+00 -0.00000000000E+00 -0.82540869781E+03  0.82540869781E+03  0.00000000000E+00 0. -1.
         25    2    1    2    0    0 -0.47052006444E+02  0.73819878332E+02 -0.30971402282E+03  0.34527210859E+03  0.12500714897E+03 0.  0.
          4    1    3    3  501    0 -0.35633197910E+02  0.39043107900E+02 -0.25489803319E+02  0.58697802694E+02  0.12700000000E+01 0. -1.
         -4    1    3    3    0  501 -0.11418808533E+02  0.34776770432E+02 -0.28422421950E+03  0.28657430590E+03  0.12700000000E+01 0. -1.
          2    1    1    2  502    0  0.56898889353E+02 -0.23251254693E+02 -0.49100078763E+03  0.49483318190E+03  0.00000000000E+00 0. -1.
          3    1    1    2  503    0 -0.98468829090E+01 -0.50568623639E+02  0.12774460409E+03  0.13774189876E+03  0.00000000000E+00 0. -1.
<mgrwt>
<rscale>  0 0.56804889E+02</rscale>
<asrwt>0</asrwt>
<pdfrwt beam="2">  1        2 0.12698595E+00 0.62633828E+02</pdfrwt>
<pdfrwt beam="1">  1        3 0.23452076E-01 0.51518412E+02</pdfrwt>
<totfact> 0.33505486E+02</totfact>
</mgrwt>
</event>
<event>
 7    1  0.4251803E-004  0.1475514E+03  0.7546771E-02  0.1379047E+00
          2   -1    0    0  503    0  0.00000000000E+00  0.00000000000E+00  0.12599267859E+04  0.12599267859E+04  0.00000000000E+00 0. -1.
         -1   -1    0    0    0  501 -0.00000000000E+00 -0.00000000000E+00 -0.62778823315E+02  0.62778823315E+02  0.00000000000E+00 0.  1.
         25    2    1    2    0    0 -0.15477253882E+03 -0.40128375157E+02  0.31938521079E+03  0.37841662114E+03  0.12500960368E+03 0.  0.
          4    1    3    3  502    0 -0.10116158204E+03 -0.61075174826E+00  0.77267821724E+02  0.12730266247E+03  0.12700000000E+01 0.  1.
         -4    1    3    3    0  502 -0.53610956787E+02 -0.39517623409E+02  0.24211738907E+03  0.25111395867E+03  0.12700000000E+01 0.  1.
          2    1    1    2  503    0  0.14480666304E+03  0.13551936898E+02  0.89782648895E+03  0.90953011435E+03  0.00000000000E+00 0. -1.
         -1    1    1    2    0  501  0.99658757838E+01  0.26576438259E+02 -0.20063737188E+02  0.34758873696E+02  0.00000000000E+00 0.  1.
<mgrwt>
<rscale>  0 0.64715005E+02</rscale>
<asrwt>0</asrwt>
<pdfrwt beam="1">  1        2 0.19383487E+00 0.14755139E+03</pdfrwt>
<pdfrwt beam="2">  1       -1 0.96582814E-02 0.28383547E+02</pdfrwt>
<totfact> 0.11991505E+03</totfact>
</mgrwt>
</event>
<event>
 7    1  0.4251803E-004  0.8693721E+02  0.7546771E-02  0.1483415E+00
          2   -1    0    0  502    0  0.00000000000E+00  0.00000000000E+00  0.93848916673E+03  0.93848916673E+03  0.00000000000E+00 0. -1.
          2   -1    0    0  503    0 -0.00000000000E+00 -0.00000000000E+00 -0.13031030070E+04  0.13031030070E+04  0.00000000000E+00 0. -1.
         25    2    1    2    0    0 -0.75850223609E+02  0.43505855154E+02  0.70193124289E+01  0.15271470568E+03  0.12500597878E+03 0.  0.
          4    1    3    3  501    0 -0.51036373568E+02  0.52298862365E+02 -0.50911523616E+02  0.89070076729E+02  0.12700000000E+01 0.  1.
         -4    1    3    3    0  501 -0.24813850041E+02 -0.87930072111E+01  0.57930836044E+02  0.63644628952E+02  0.12700000000E+01 0.  1.
          2    1    1    2  502    0  0.13518786826E+02  0.17158710549E+02  0.85694543376E+03  0.85722380706E+03  0.00000000000E+00 0. -1.
          2    1    1    2  503    0  0.62331436783E+02 -0.60664565703E+02 -0.12285785864E+04  0.12316536610E+04  0.00000000000E+00 0. -1.
<mgrwt>
<rscale>  0 0.43578588E+02</rscale>
<asrwt>0</asrwt>
<pdfrwt beam="1">  1        2 0.14438295E+00 0.21844426E+02</pdfrwt>
<pdfrwt beam="2">  1        2 0.20047739E+00 0.86937205E+02</pdfrwt>
<totfact> 0.95555621E+01</totfact>
</mgrwt>
</event>
<event>
 7    1  0.4251803E-004  0.1484647E+03  0.7546771E-02  0.1360582E+00
         -1   -1    0    0    0  501 -0.00000000000E+00  0.00000000000E+00  0.50287555298E+03  0.50287555298E+03  0.00000000000E+00 0.  1.
          2   -1    0    0  503    0  0.00000000000E+00 -0.00000000000E+00 -0.26350365049E+04  0.26350365049E+04  0.00000000000E+00 0. -1.
         25    2    1    2    0    0  0.17056283295E+03 -0.42541160409E+02 -0.11651665987E+04  0.11849638257E+04  0.12499854155E+03 0.  0.
          4    1    3    3  502    0  0.76126058638E+02 -0.22620985637E+02 -0.88655913126E+03  0.89010987632E+03  0.12700000000E+01 0.  1.
         -4    1    3    3    0  502  0.94436774314E+02 -0.19920174772E+02 -0.27860746739E+03  0.29485394942E+03  0.12700000000E+01 0.  1.
          2    1    1    2  503    0 -0.23666437341E+02  0.22809775090E+02 -0.14486402350E+04  0.14490130836E+04  0.00000000000E+00 0. -1.
         -1    1    1    2    0  501 -0.14689639561E+03  0.19731385319E+02  0.48164588168E+03  0.50393514855E+03  0.00000000000E+00 0.  1.
<mgrwt>
<rscale>  0 0.69856415E+02</rscale>
<asrwt>0</asrwt>
<pdfrwt beam="2">  1        2 0.40539022E+00 0.32869227E+02</pdfrwt>
<pdfrwt beam="1">  1       -1 0.77365471E-01 0.14846466E+03</pdfrwt>
<totfact> 0.94426234E+00</totfact>
</mgrwt>
</event>
<event>
 7    1  0.4251803E-004  0.5143615E+02  0.7546771E-02  0.1445544E+00
          2   -1    0    0  502    0  0.00000000000E+00  0.00000000000E+00  0.14007146076E+04  0.14007146076E+04  0.00000000000E+00 0. -1.
          1   -1    0    0  503    0 -0.00000000000E+00 -0.00000000000E+00 -0.94935082828E+02  0.94935082828E+02  0.00000000000E+00 0. -1.
         25    2    1    2    0    0  0.67781823168E+01  0.23350529149E+02  0.63601925334E+02  0.14234464769E+03  0.12500241139E+03 0.  0.
          4    1    3    3  501    0  0.60188358253E+02  0.35729766109E+02  0.49442535412E+02  0.85705494943E+02  0.12700000000E+01 0. -1.
         -4    1    3    3    0  501 -0.53410175937E+02 -0.12379236959E+02  0.14159389921E+02  0.56639152750E+02  0.12700000000E+01 0. -1.
          2    1    1    2  502    0  0.40972094202E+02 -0.32021594051E+02  0.12865177491E+04  0.12875682559E+04  0.00000000000E+00 0. -1.
          1    1    1    2  503    0 -0.47750276519E+02  0.86710649021E+01 -0.44340149618E+02  0.65736786827E+02  0.00000000000E+00 0. -1.
<mgrwt>
<rscale>  0 0.49962563E+02</rscale>
<asrwt>0</asrwt>
<pdfrwt beam="1">  1        2 0.21549454E+00 0.51436155E+02</pdfrwt>
<pdfrwt beam="2">  1        1 0.14605398E-01 0.48531189E+02</pdfrwt>
<totfact> 0.84724690E+02</totfact>
</mgrwt>
</event>
<event>
 7    1  0.4251803E-004  0.4661026E+02  0.7546771E-02  0.1482661E+00
          2   -1    0    0  503    0  0.00000000000E+00  0.00000000000E+00  0.17839816424E+03  0.17839816424E+03  0.00000000000E+00 0. -1.
          2   -1    0    0  502    0 -0.00000000000E+00 -0.00000000000E+00 -0.43519688554E+03  0.43519688554E+03  0.00000000000E+00 0. -1.
         25    2    1    2    0    0 -0.78896910722E+02 -0.84090634030E+01  0.46282957693E+02  0.15512899669E+03  0.12500983391E+03 0.  0.
          4    1    3    3  501    0 -0.55908906541E+02  0.56300444963E+02  0.26258184587E+02  0.83586189597E+02  0.12700000000E+01 0. -1.
         -4    1    3    3    0  501 -0.22988004181E+02 -0.64709508366E+02  0.20024773106E+02  0.71542807095E+02  0.12700000000E+01 0. -1.
          2    1    1    2  502    0  0.36686624931E+02  0.18217625363E+02 -0.37352310972E+03  0.37576229696E+03  0.00000000000E+00 0. -1.
          2    1    1    2  503    0  0.42210285790E+02 -0.98085619603E+01  0.70441430723E+02  0.82703756121E+02  0.00000000000E+00 0. -1.
<mgrwt>
<rscale>  0 0.43694339E+02</rscale>
<asrwt>0</asrwt>
<pdfrwt beam="1">  1        2 0.27445872E-01 0.46610259E+02</pdfrwt>
<pdfrwt beam="2">  1        2 0.66953366E-01 0.40960839E+02</pdfrwt>
<totfact> 0.21084608E+03</totfact>
</mgrwt>
</event>
<event>
 7    1  0.4251803E-004  0.1516754E+03  0.7546771E-02  0.1341688E+00
          1   -1    0    0  502    0  0.00000000000E+00  0.00000000000E+00  0.85858176592E+02  0.85858176592E+02  0.00000000000E+00 0. -1.
          1   -1    0    0  503    0 -0.00000000000E+00 -0.00000000000E+00 -0.99680992879E+03  0.99680992879E+03  0.00000000000E+00 0.  1.
         25    2    1    2    0    0 -0.12196820326E+03 -0.68192066744E+02 -0.27873123222E+03  0.33592050601E+03  0.12500034389E+03 0.  0.
          4    1    3    3  501    0 -0.35791709547E+02  0.29110553314E+02 -0.13230348449E+03  0.14012243109E+03  0.12700000000E+01 0.  1.
         -4    1    3    3    0  501 -0.86176493715E+02 -0.97302620059E+02 -0.14642774773E+03  0.19579807493E+03  0.12700000000E+01 0.  1.
          1    1    1    2  502    0  0.11607376434E+03  0.10552033257E+03 -0.51948350812E+02  0.16524615126E+03  0.00000000000E+00 0. -1.
          1    1    1    2  503    0  0.58944389209E+01 -0.37328265828E+02 -0.58027216917E+03  0.58150144811E+03  0.00000000000E+00 0.  1.
<mgrwt>
<rscale>  0 0.75709526E+02</rscale>
<asrwt>0</asrwt>
<pdfrwt beam="1">  1        1 0.13208950E-01 0.15167537E+03</pdfrwt>
<pdfrwt beam="2">  1        1 0.15335538E+00 0.37790790E+02</pdfrwt>
<totfact> 0.93652924E+02</totfact>
</mgrwt>
</event>
<event>
 7    1  0.4251803E-004  0.4009007E+02  0.7546771E-02  0.1540275E+00
          1   -1    0    0  503    0 -0.00000000000E+00  0.00000000000E+00  0.82877221102E+03  0.82877221102E+03  0.00000000000E+00 0. -1.
          2   -1    0    0  502    0  0.00000000000E+00 -0.00000000000E+00 -0.10314467393E+04  0.10314467393E+04  0.00000000000E+00 0. -1.
         25    2    1    2    0    0 -0.40028380571E+02  0.93723717970E+01 -0.31622783720E+03  0.34251536096E+03  0.12500645932E+03 0.  0.
          4    1    3    3  501    0  0.15765371070E+02 -0.31481040465E+02 -0.22650850641E+03  0.22923202047E+03  0.12700000000E+01 0.  1.
         -4    1    3    3    0  501 -0.55793751641E+02  0.40853412262E+02 -0.89719330786E+02  0.11328334049E+03  0.12700000000E+01 0.  1.
          2    1    1    2  502    0  0.66173198001E+01 -0.31561230986E+02 -0.70121129155E+03  0.70195240267E+03  0.00000000000E+00 0. -1.
          1    1    1    2  503    0  0.33411060771E+02  0.22188859189E+02  0.81476460045E+03  0.81575118670E+03  0.00000000000E+00 0. -1.
<mgrwt>
<rscale>  0 0.35955581E+02</rscale>
<asrwt>0</asrwt>
<pdfrwt beam="2">  1        2 0.15868411E+00 0.32247484E+02</pdfrwt>
<pdfrwt beam="1">  1        1 0.12750342E+00 0.40090067E+02</pdfrwt>
<totfact> 0.93105714E+01</totfact>
</mgrwt>
</event>
<event>
 7    1  0.4251803E-004  0.7179020E+02  0.7546771E-02  0.1417176E+00
          1   -1    0    0  503    0  0.00000000000E+00  0.00000000000E+00  0.94649935927E+03  0.94649935927E+03  0.00000000000E+00 0. -1.
          1   -1    0    0  502    0 -0.00000000000E+00 -0.00000000000E+00 -0.95657488324E+03  0.95657488324E+03  0.00000000000E+00 0. -1.
         25    2    1    2    0    0  0.45854923917E+02 -0.66727117548E+02 -0.42278813382E+03  0.44825216395E+03  0.12500005650E+03 0.  0.
          4    1    3    3  501    0 -0.22447605124E+02  0.13608487858E+02 -0.20053605062E+03  0.20225085022E+03  0.12700000000E+01 0.  1.
         -4    1    3    3    0  501  0.68302529042E+02 -0.80335605406E+02 -0.22225208320E+03  0.24600131373E+03  0.12700000000E+01 0.  1.
          1    1    1    2  502    0 -0.30737883184E+01  0.71931528428E+02 -0.51806669267E+03  0.52304559171E+03  0.00000000000E+00 0. -1.
          1    1    1    2  503    0 -0.42781135599E+02 -0.52044108801E+01  0.93077930251E+03  0.93177648685E+03  0.00000000000E+00 0. -1.
<mgrwt>
<rscale>  0 0.55622919E+02</rscale>
<asrwt>0</asrwt>
<pdfrwt beam="1">  1        1 0.14561529E+00 0.43096536E+02</pdfrwt>
<pdfrwt beam="2">  1        1 0.14716537E+00 0.71790204E+02</pdfrwt>
<totfact> 0.44373911E+01</totfact>
</mgrwt>
</event>
<event>
 7    1  0.4251803E-004  0.7119171E+02  0.7546771E-02  0.1469999E+00
         -2   -1    0    0    0  501 -0.00000000000E+00  0.00000000000E+00  0.30519996502E+02  0.30519996502E+02  0.00000000000E+00 0.  1.
          1   -1    0    0  503    0  0.00000000000E+00 -0.00000000000E+00 -0.25762477536E+04  0.25762477536E+04  0.00000000000E+00 0. -1.
         25    2    1    2    0    0  0.62129893503E+02  0.17566224704E+02 -0.19219793478E+03  0.23817532638E+03  0.12497497367E+03 0.  0.
          4    1    3    3  502    0  0.77539761216E+02  0.39415437553E+02 -0.66067702275E+02  0.10923619121E+03  0.12700000000E+01 0. -1.
         -4    1    3    3    0  502 -0.15409867713E+02 -0.21849212850E+02 -0.12613023251E+03  0.12893913517E+03  0.12700000000E+01 0. -1.
          1    1    1    2  503    0 -0.70708444601E+02  0.10491769369E+02 -0.23296941398E+04  0.23307905411E+04  0.00000000000E+00 0. -1.
         -2    1    1    2    0  501  0.85785510982E+01 -0.28057994072E+02 -0.23835682509E+02  0.37801882638E+02  0.00000000000E+00 0.  1.
<mgrwt>
<rscale>  0 0.45703099E+02</rscale>
<asrwt>0</asrwt>
<pdfrwt beam="2">  1        1 0.39634579E+00 0.71191712E+02</pdfrwt>
<pdfrwt beam="1">  1       -2 0.46953843E-02 0.29340119E+02</pdfrwt>
<totfact> 0.25870930E+02</totfact>
</mgrwt>
</event>
<event>
 7    1  0.4251803E-004  0.4459368E+02  0.7546771E-02  0.1545698E+00
          1   -1    0    0  503    0  0.00000000000E+00  0.00000000000E+00  0.16618339794E+02  0.16618339794E+02  0.00000000000E+00 0. -1.
          1   -1    0    0  502    0 -0.00000000000E+00 -0.00000000000E+00 -0.16096543594E+04  0.16096543594E+04  0.00000000000E+00 0. -1.
         25    2    1    2    0    0 -0.14991201994E+02  0.62350329962E+02 -0.81527865423E+03  0.82729513399E+03  0.12500261956E+03 0.  0.
          4    1    3    3  501    0 -0.53942283156E+02 -0.92827019096E+01 -0.23373306369E+03  0.24005977679E+03  0.12700000000E+01 0.  1.
         -4    1    3    3    0  501  0.38951081162E+02  0.71633031872E+02 -0.58154559054E+03  0.58723535720E+03  0.12700000000E+01 0.  1.
          1    1    1    2  502    0 -0.49377236870E+01 -0.42697520249E+02 -0.76820010495E+03  0.76940162503E+03  0.00000000000E+00 0. -1.
          1    1    1    2  503    0  0.19928925681E+02 -0.19652809713E+02 -0.95572603752E+01  0.29575940125E+02  0.00000000000E+00 0. -1.
<mgrwt>
<rscale>  0 0.35329041E+02</rscale>
<asrwt>0</asrwt>
<pdfrwt beam="1">  1        1 0.25566679E-02 0.27989194E+02</pdfrwt>
<pdfrwt beam="2">  1        1 0.24763911E+00 0.44593680E+02</pdfrwt>
<totfact> 0.27845600E+03</totfact>
</mgrwt>
</event>
<event>
 7    1  0.4251803E-004  0.4621453E+02  0.7546771E-02  0.1508925E+00
         -1   -1    0    0    0  501 -0.00000000000E+00  0.00000000000E+00  0.21855930907E+03  0.21855930907E+03  0.00000000000E+00 0.  1.
          1   -1    0    0  503    0  0.00000000000E+00 -0.00000000000E+00 -0.91898210068E+02  0.91898210068E+02  0.00000000000E+00 0. -1.
         25    2    1    2    0    0 -0.52266259689E+02  0.56330046045E+02  0.75314432208E+02  0.16492988378E+03  0.12499906750E+03 0.  0.
          4    1    3    3  502    0 -0.15851811794E+02  0.18095512033E+02  0.10266430243E+03  0.10545283015E+03  0.12700000000E+01 0.  1.
         -4    1    3    3    0  502 -0.36414447895E+02  0.38234534012E+02 -0.27349870226E+02  0.59477053626E+02  0.12700000000E+01 0.  1.
          1    1    1    2  503    0  0.34078807696E+02 -0.27067866288E+02 -0.32868123426E+02  0.54537583894E+02  0.00000000000E+00 0. -1.
         -1    1    1    2    0  501  0.18187451993E+02 -0.29262179757E+02  0.84214790216E+02  0.90990051463E+02  0.00000000000E+00 0.  1.
<mgrwt>
<rscale>  0 0.39903161E+02</rscale>
<asrwt>0</asrwt>
<pdfrwt beam="2">  1        1 0.14138186E-01 0.46214529E+02</pdfrwt>
<pdfrwt beam="1">  1       -1 0.33624509E-01 0.34453716E+02</pdfrwt>
<totfact> 0.30099877E+03</totfact>
</mgrwt>
</event>
<event>
 7    1  0.4251803E-004  0.3403141E+02  0.7546771E-02  0.1618760E+00
          2   -1    0    0  503    0  0.00000000000E+00  0.00000000000E+00  0.66689302818E+03  0.66689302818E+03  0.00000000000E+00 0. -1.
         -1   -1    0    0    0  501 -0.00000000000E+00 -0.00000000000E+00 -0.16482659885E+02  0.16482659885E+02  0.00000000000E+00 0.  1.
         25    2    1    2    0    0 -0.16437321061E+01 -0.13279773334E+02  0.43948537784E+03  0.45711279216E+03  0.12500261272E+03 0.  0.
          4    1    3    3  502    0 -0.44110217316E+02 -0.14393373099E+02  0.63088019638E+02  0.78323633615E+02  0.12700000000E+01 0. -1.
         -4    1    3    3    0  502  0.42466485210E+02  0.11135997649E+01  0.37639735820E+03  0.37878915854E+03  0.12700000000E+01 0. -1.
          2    1    1    2  503    0  0.50752924912E+01 -0.22827170348E+02  0.16990933448E+03  0.17151099161E+03  0.00000000000E+00 0. -1.
         -1    1    1    2    0  501 -0.34315603851E+01  0.36106943682E+02  0.41015655977E+02  0.54751904295E+02  0.00000000000E+00 0.  1.
<mgrwt>
<rscale>  0 0.28210105E+02</rscale>
<asrwt>0</asrwt>
<pdfrwt beam="1">  1        2 0.10259891E+00 0.23384574E+02</pdfrwt>
<pdfrwt beam="2">  1       -1 0.25357943E-02 0.34031410E+02</pdfrwt>
<totfact> 0.20110816E+04</totfact>
</mgrwt>
</event>
<event>
 7    1  0.4251803E-004  0.4378562E+02  0.7546771E-02  0.1525133E+00
         -1   -1    0    0    0  501 -0.00000000000E+00  0.00000000000E+00  0.47796725853E+02  0.47796725853E+02  0.00000000000E+00 0.  1.
          2   -1    0    0  503    0  0.00000000000E+00 -0.00000000000E+00 -0.27816663852E+03  0.27816663852E+03  0.00000000000E+00 0. -1.
         25    2    1    2    0    0  0.18825929319E+02 -0.39093559995E+02 -0.16945644551E+03  0.21499503724E+03  0.12499862825E+03 0.  0.
          4    1    3    3  502    0  0.52304110501E+02 -0.31302695095E+02 -0.16999188367E+03  0.18059466246E+03  0.12700000000E+01 0. -1.
         -4    1    3    3    0  502 -0.33478181181E+02 -0.77908649005E+01  0.53543815595E+00  0.34400374782E+02  0.12700000000E+01 0. -1.
          2    1    1    2  503    0  0.13250693543E+02  0.44999144774E+02 -0.62697586720E+02  0.78303839562E+02  0.00000000000E+00 0. -1.
         -1    1    1    2    0  501 -0.32076622862E+02 -0.59055847786E+01  0.17841195614E+01  0.32664487574E+02  0.00000000000E+00 0.  1.
<mgrwt>
<rscale>  0 0.37790208E+02</rscale>
<asrwt>0</asrwt>
<pdfrwt beam="2">  1        2 0.42794868E-01 0.43785619E+02</pdfrwt>
<pdfrwt beam="1">  1       -1 0.73533424E-02 0.32615727E+02</pdfrwt>
<totfact> 0.10862393E+04</totfact>
</mgrwt>
</event>
<event>
 7    1  0.4251803E-004  0.4869341E+02  0.7546771E-02  0.1560005E+00
         -2   -1    0    0    0  501 -0.00000000000E+00  0.00000000000E+00  0.65890236926E+02  0.65890236926E+02  0.00000000000E+00 0.  1.
          2   -1    0    0  503    0  0.00000000000E+00 -0.00000000000E+00 -0.13347846103E+04  0.13347846103E+04  0.00000000000E+00 0. -1.
         25    2    1    2    0    0 -0.31761154807E+02 -0.26053057698E+02 -0.28447896997E+03  0.31344314600E+03  0.12502315247E+03 0.  0.
          4    1    3    3  502    0 -0.66727105644E+02 -0.44170764839E+02 -0.11949970221E+03  0.14382404118E+03  0.12700000000E+01 0. -1.
         -4    1    3    3    0  502  0.34965950836E+02  0.18117707141E+02 -0.16497926776E+03  0.16961910482E+03  0.12700000000E+01 0. -1.
          2    1    1    2  503    0 -0.16498871282E+02  0.16579763360E+02 -0.10238967488E+04  0.10241638802E+04  0.00000000000E+00 0. -1.
         -2    1    1    2    0  501  0.48260026090E+02  0.94732943380E+01  0.39481345347E+02  0.63067821067E+02  0.00000000000E+00 0.  1.
<mgrwt>
<rscale>  0 0.33748309E+02</rscale>
<asrwt>0</asrwt>
<pdfrwt beam="2">  1        2 0.20535146E+00 0.23390197E+02</pdfrwt>
<pdfrwt beam="1">  1       -2 0.10136960E-01 0.48693406E+02</pdfrwt>
<totfact> 0.11698991E+03</totfact>
</mgrwt>
</event>
<event>
 7    1  0.4251803E-004  0.1184617E+03  0.7546771E-02  0.1389143E+00
         -3   -1    0    0    0  501 -0.00000000000E+00  0.00000000000E+00  0.15336887237E+03  0.15336887237E+03  0.00000000000E+00 0.  1.
          2   -1    0    0  503    0  0.00000000000E+00 -0.00000000000E+00 -0.27015897098E+04  0.27015897098E+04  0.00000000000E+00 0. -1.
         25    2    1    2    0    0  0.20438514141E+02 -0.11528989886E+03 -0.45817117686E+03  0.48913681862E+03  0.12499802551E+03 0.  0.
          4    1    3    3  502    0  0.38717138016E+02 -0.48162119080E+01 -0.38673363981E+02  0.54949564647E+02  0.12700000000E+01 0. -1.
         -4    1    3    3    0  502 -0.18278623874E+02 -0.11047368695E+03 -0.41949781288E+03  0.43418725397E+03  0.12700000000E+01 0. -1.
          2    1    1    2  503    0 -0.51961299767E+02  0.10707628166E+03 -0.22243983936E+04  0.22275801938E+04  0.00000000000E+00 0. -1.
         -3    1    1    2    0  501  0.31522785625E+02  0.82136171992E+01  0.13434873302E+03  0.13824156967E+03  0.00000000000E+00 0.  1.
<mgrwt>
<rscale>  0 0.62120237E+02</rscale>
<asrwt>0</asrwt>
<pdfrwt beam="2">  1        2 0.41562916E+00 0.11846169E+03</pdfrwt>
<pdfrwt beam="1">  1       -3 0.23595212E-01 0.32575290E+02</pdfrwt>
<totfact> 0.30270599E+01</totfact>
</mgrwt>
</event>
<event>
 7    1  0.4251803E-004  0.2789237E+02  0.7546771E-02  0.1630548E+00
          3   -1    0    0  503    0 -0.00000000000E+00  0.00000000000E+00  0.81178785437E+03  0.81178785437E+03  0.00000000000E+00 0. -1.
          1   -1    0    0  502    0  0.00000000000E+00 -0.00000000000E+00 -0.26849846524E+03  0.26849846524E+03  0.00000000000E+00 0. -1.
         25    2    1    2    0    0  0.87170818863E+01 -0.31647806787E+02  0.34982722823E+03  0.37293616105E+03  0.12499887765E+03 0.  0.
          4    1    3    3  501    0 -0.12475189608E+02 -0.69288760418E+02  0.29412232485E+03  0.30243365810E+03  0.12700000000E+01 0. -1.
         -4    1    3    3    0  501  0.21192271494E+02  0.37640953631E+02  0.55704903379E+02  0.70502502948E+02  0.12700000000E+01 0. -1.
          1    1    1    2  502    0 -0.25621504747E+02  0.11062577432E+02 -0.25579055781E+03  0.25730847555E+03  0.00000000000E+00 0. -1.
          3    1    1    2  503    0  0.16904422861E+02  0.20585229355E+02  0.44925271870E+03  0.45004168300E+03  0.00000000000E+00 0. -1.
<mgrwt>
<rscale>  0 0.27257281E+02</rscale>
<asrwt>0</asrwt>
<pdfrwt beam="2">  1        1 0.41307456E-01 0.27892371E+02</pdfrwt>
<pdfrwt beam="1">  1        3 0.12489044E+00 0.26636651E+02</pdfrwt>
<totfact> 0.28201797E+01</totfact>
</mgrwt>
</event>
<event>
 7    1  0.4251803E-004  0.7927897E+02  0.7546771E-02  0.1425300E+00
         -2   -1    0    0    0  501 -0.00000000000E+00  0.00000000000E+00  0.10951238777E+02  0.10951238777E+02  0.00000000000E+00 0. -1.
          2   -1    0    0  503    0  0.00000000000E+00 -0.00000000000E+00 -0.21452582034E+04  0.21452582034E+04  0.00000000000E+00 0.  1.
         25    2    1    2    0    0 -0.90183349067E+02  0.23888548558E+02 -0.15446538954E+04  0.15525086625E+04  0.12499516506E+03 0.  0.
          4    1    3    3  502    0 -0.11817978724E+03  0.14526042729E+01 -0.10729179383E+04  0.10794086749E+04  0.12700000000E+01 0.  1.
         -4    1    3    3    0  502  0.27996438173E+02  0.22435944286E+02 -0.47173595707E+03  0.47309998757E+03  0.12700000000E+01 0.  1.
          2    1    1    2  503    0  0.55632109959E+02 -0.11616509999E+02 -0.12172713820E+03  0.13434050446E+03  0.00000000000E+00 0. -1.
         -2    1    1    2    0  501  0.34551239109E+02 -0.12272038559E+02 -0.46792593103E+03  0.46936027525E+03  0.00000000000E+00 0.  1.
<mgrwt>
<rscale>  0 0.53915099E+02</rscale>
<asrwt>0</asrwt>
<pdfrwt beam="2">  1        2 0.33003973E+00 0.79278972E+02</pdfrwt>
<pdfrwt beam="1">  1       -2 0.16848059E-02 0.36665939E+02</pdfrwt>
<totfact> 0.53689149E+03</totfact>
</mgrwt>
</event>
<event>
 7    1  0.4251803E-004  0.1421208E+03  0.7546771E-02  0.1271979E+00
          2   -1    0    0  502    0  0.00000000000E+00  0.00000000000E+00  0.49362430239E+03  0.49362430239E+03  0.00000000000E+00 0. -1.
          3   -1    0    0  503    0 -0.00000000000E+00 -0.00000000000E+00 -0.73197724536E+03  0.73197724536E+03  0.00000000000E+00 0. -1.
         25    2    1    2    0    0  0.13338324169E+03  0.36794350689E+02 -0.17848805037E+03  0.25812073614E+03  0.12499366743E+03 0.  0.
          4    1    3    3  501    0  0.19478669621E+02 -0.16788392438E+02  0.13091353079E+02  0.28883647905E+02  0.12700000000E+01 0.  1.
         -4    1    3    3    0  501  0.11390457207E+03  0.53582743126E+02 -0.19157940345E+03  0.22923708824E+03  0.12700000000E+01 0.  1.
          2    1    1    2  502    0 -0.13783685147E+03  0.39270159792E+02  0.43952983408E+03  0.46230684412E+03  0.00000000000E+00 0. -1.
          3    1    1    2  503    0  0.44536097787E+01 -0.76064510481E+02 -0.49939472668E+03  0.50517396749E+03  0.00000000000E+00 0. -1.
<mgrwt>
<rscale>  0 0.10406184E+03</rscale>
<asrwt>0</asrwt>
<pdfrwt beam="1">  1        2 0.75942200E-01 0.14212085E+03</pdfrwt>
<pdfrwt beam="2">  1        3 0.11261188E+00 0.76194779E+02</pdfrwt>
<totfact> 0.26888977E+01</totfact>
</mgrwt>
</event>
<event>
 7    1  0.4251803E-004  0.8941355E+02  0.7546771E-02  0.1367447E+00
         -1   -1    0    0    0  501 -0.00000000000E+00  0.00000000000E+00  0.19500552698E+02  0.19500552698E+02  0.00000000000E+00 0.  1.
          2   -1    0    0  503    0  0.00000000000E+00 -0.00000000000E+00 -0.38367381164E+04  0.38367381164E+04  0.00000000000E+00 0. -1.
         25    2    1    2    0    0 -0.44486182141E+02  0.20522521380E+02 -0.75337100155E+03  0.76524060364E+03  0.12500048475E+03 0.  0.
          4    1    3    3  502    0  0.30433204493E+02 -0.12196673135E+02 -0.73754042070E+02  0.80723047471E+02  0.12700000000E+01 0.  1.
         -4    1    3    3    0  502 -0.74919386633E+02  0.32719194515E+02 -0.67961695948E+03  0.68451755616E+03  0.12700000000E+01 0.  1.
          2    1    1    2  503    0  0.94479434788E+02 -0.80093362817E+01 -0.30249089243E+04  0.30263946394E+04  0.00000000000E+00 0. -1.
         -1    1    1    2    0  501 -0.49993252648E+02 -0.12513185099E+02 -0.38957637836E+02  0.64603426050E+02  0.00000000000E+00 0.  1.
<mgrwt>
<rscale>  0 0.67882028E+02</rscale>
<asrwt>0</asrwt>
<pdfrwt beam="2">  1        2 0.59026696E+00 0.89413551E+02</pdfrwt>
<pdfrwt beam="1">  1       -1 0.30000873E-02 0.51535474E+02</pdfrwt>
<totfact> 0.26284952E+02</totfact>
</mgrwt>
</event>
<event>
 7    1  0.4251803E-004  0.1419812E+03  0.7546771E-02  0.1245653E+00
          1   -1    0    0  503    0 -0.00000000000E+00  0.00000000000E+00  0.69262300226E+03  0.69262300226E+03  0.00000000000E+00 0. -1.
          2   -1    0    0  502    0  0.00000000000E+00 -0.00000000000E+00 -0.16543673384E+04  0.16543673384E+04  0.00000000000E+00 0. -1.
         25    2    1    2    0    0 -0.62516646021E+02  0.17324674522E+03 -0.12854210631E+03  0.25704644229E+03  0.12500813830E+03 0.  0.
          4    1    3    3  501    0 -0.33406973644E+02  0.18121774888E+03 -0.82315929151E+02  0.20182523006E+03  0.12700000000E+01 0. -1.
         -4    1    3    3    0  501 -0.29109672377E+02 -0.79710036624E+01 -0.46226177161E+02  0.55221212230E+02  0.12700000000E+01 0. -1.
          2    1    1    2  502    0  0.92399551741E+02 -0.35099970681E+02 -0.14519233605E+04  0.14552838658E+04  0.00000000000E+00 0. -1.
          1    1    1    2  503    0 -0.29882905720E+02 -0.13814677454E+03  0.61872113072E+03  0.63466003259E+03  0.00000000000E+00 0. -1.
<mgrwt>
<rscale>  0 0.11846378E+03</rscale>
<asrwt>0</asrwt>
<pdfrwt beam="2">  1        2 0.25451805E+00 0.98841717E+02</pdfrwt>
<pdfrwt beam="1">  1        1 0.10655739E+00 0.14198122E+03</pdfrwt>
<totfact> 0.49810828E+01</totfact>
</mgrwt>
</event>
<event>
 7    1  0.4251803E-004  0.6548363E+02  0.7546771E-02  0.1428618E+00
          1   -1    0    0  503    0 -0.00000000000E+00  0.00000000000E+00  0.31860912944E+04  0.31860912944E+04  0.00000000000E+00 0. -1.
          2   -1    0    0  502    0  0.00000000000E+00 -0.00000000000E+00 -0.35250840736E+03  0.35250840736E+03  0.00000000000E+00 0. -1.
         25    2    1    2    0    0  0.45340589790E+01 -0.77662845489E+02 -0.26652727228E+02  0.14963241634E+03  0.12500966719E+03 0.  0.
          4    1    3    3  501    0 -0.27952627400E+02 -0.53506146658E+02 -0.68554782535E+02  0.91354409949E+02  0.12700000000E+01 0.  1.
         -4    1    3    3    0  501  0.32486686379E+02 -0.24156698831E+02  0.41902055306E+02  0.58278006393E+02  0.12700000000E+01 0.  1.
          2    1    1    2  502    0  0.35003698955E+02  0.25458730971E+02 -0.26224860925E+03  0.26579642393E+03  0.00000000000E+00 0. -1.
          1    1    1    2  503    0 -0.39537757934E+02  0.52204114518E+02  0.31224842235E+04  0.31231708615E+04  0.00000000000E+00 0. -1.
<mgrwt>
<rscale>  0 0.53238321E+02</rscale>
<asrwt>0</asrwt>
<pdfrwt beam="2">  1        2 0.54232065E-01 0.43282859E+02</pdfrwt>
<pdfrwt beam="1">  1        1 0.49016787E+00 0.65483631E+02</pdfrwt>
<totfact> 0.85895565E+00</totfact>
</mgrwt>
</event>
<event>
 7    1  0.4251803E-004  0.1279318E+03  0.7546771E-02  0.1334617E+00
          2   -1    0    0  503    0  0.00000000000E+00  0.00000000000E+00  0.19173758968E+04  0.19173758968E+04  0.00000000000E+00 0. -1.
         -3   -1    0    0    0  501 -0.00000000000E+00 -0.00000000000E+00 -0.21688551593E+03  0.21688551593E+03  0.00000000000E+00 0.  1.
         25    2    1    2    0    0  0.53245309895E+02 -0.75924336857E+02  0.12216040905E+04  0.12314789162E+04  0.12499679692E+03 0.  0.
          4    1    3    3  502    0  0.73843906802E+02 -0.79033572597E+02  0.11798604881E+04  0.11848086818E+04  0.12700000000E+01 0. -1.
         -4    1    3    3    0  502 -0.20598596907E+02  0.31092357403E+01  0.41743602418E+02  0.46670234457E+02  0.12700000000E+01 0. -1.
          2    1    1    2  503    0  0.47478631955E+02 -0.39556524381E+01  0.67041783357E+03  0.67210857698E+03  0.00000000000E+00 0. -1.
         -3    1    1    2    0  501 -0.10072394185E+03  0.79879989295E+02 -0.19153154315E+03  0.23067391957E+03  0.00000000000E+00 0.  1.
<mgrwt>
<rscale>  0 0.78070933E+02</rscale>
<asrwt>0</asrwt>
<pdfrwt beam="1">  1        2 0.29498090E+00 0.47643128E+02</pdfrwt>
<pdfrwt beam="2">  1       -3 0.33367004E-01 0.12793179E+03</pdfrwt>
<totfact> 0.52183956E+01</totfact>
</mgrwt>
</event>
<event>
 7    1  0.4251803E-004  0.8128504E+02  0.7546771E-02  0.1363284E+00
          1   -1    0    0  503    0  0.00000000000E+00  0.00000000000E+00  0.12874886733E+04  0.12874886733E+04  0.00000000000E+00 0. -1.
         -1   -1    0    0    0  501 -0.00000000000E+00 -0.00000000000E+00 -0.18545066877E+02  0.18545066877E+02  0.00000000000E+00 0.  1.
         25    2    1    2    0    0 -0.36401719322E+02 -0.10184728920E+03  0.60155351372E+03  0.62385024850E+03  0.12499818876E+03 0.  0.
          4    1    3    3  502    0  0.11826769801E+02 -0.84999995399E+02  0.52394421438E+03  0.53092751330E+03  0.12700000000E+01 0.  1.
         -4    1    3    3    0  502 -0.48228489123E+02 -0.16847293805E+02  0.77609299345E+02  0.92922735197E+02  0.12700000000E+01 0.  1.
          1    1    1    2  503    0  0.55760572523E+02  0.46441197471E+02  0.23847798339E+03  0.24927449695E+03  0.00000000000E+00 0.  1.
         -1    1    1    2    0  501 -0.19358853201E+02  0.55406091733E+02  0.42891210928E+03  0.43290899469E+03  0.00000000000E+00 0. -1.
<mgrwt>
<rscale>  0 0.69070088E+02</rscale>
<asrwt>0</asrwt>
<pdfrwt beam="1">  1        1 0.19807511E+00 0.81285037E+02</pdfrwt>
<pdfrwt beam="2">  1       -1 0.28530882E-02 0.58690716E+02</pdfrwt>
<totfact> 0.37562477E+03</totfact>
</mgrwt>
</event>
<event>
 7    1  0.4251803E-004  0.1557129E+03  0.7546771E-02  0.1251076E+00
          1   -1    0    0  503    0  0.00000000000E+00  0.00000000000E+00  0.32689796297E+03  0.32689796297E+03  0.00000000000E+00 0. -1.
         -1   -1    0    0    0  501 -0.00000000000E+00 -0.00000000000E+00 -0.59240542852E+03  0.59240542852E+03  0.00000000000E+00 0.  1.
         25    2    1    2    0    0  0.16000560765E+03  0.48945973508E+02  0.38915087618E+02  0.21243656487E+03  0.12496962530E+03 0.  0.
          4    1    3    3  502    0  0.11237058705E+03  0.30159186759E+02 -0.35900302473E+02  0.12176686741E+03  0.12700000000E+01 0. -1.
         -4    1    3    3    0  502  0.47635020602E+02  0.18786786749E+02  0.74815390091E+02  0.90669697466E+02  0.12700000000E+01 0. -1.
          1    1    1    2  503    0 -0.10688413881E+03 -0.11576321586E+03  0.16593723708E+03  0.22882418562E+03  0.00000000000E+00 0. -1.
         -1    1    1    2    0  501 -0.53121468847E+02  0.66817242349E+02 -0.47035979025E+03  0.47804264100E+03  0.00000000000E+00 0.  1.
<mgrwt>
<rscale>  0 0.11528984E+03</rscale>
<asrwt>0</asrwt>
<pdfrwt beam="1">  1        1 0.50291995E-01 0.15571288E+03</pdfrwt>
<pdfrwt beam="2">  1       -1 0.91139296E-01 0.85360613E+02</pdfrwt>
<totfact> 0.10278081E+02</totfact>
</mgrwt>
</event>
<event>
 7    1  0.4251803E-004  0.8215560E+02  0.7546771E-02  0.1481208E+00
         -2   -1    0    0    0  501 -0.00000000000E+00  0.00000000000E+00  0.39586767511E+02  0.39586767511E+02  0.00000000000E+00 0.  1.
          1   -1    0    0  503    0  0.00000000000E+00 -0.00000000000E+00 -0.77055150676E+03  0.77055150676E+03  0.00000000000E+00 0. -1.
         25    2    1    2    0    0  0.12112078433E+01 -0.94853379040E+02 -0.15396804699E+03  0.21983924740E+03  0.12499801864E+03 0.  0.
          4    1    3    3  502    0 -0.18550049980E+02 -0.11847072867E+03 -0.14411150285E+03  0.18748108187E+03  0.12700000000E+01 0.  1.
         -4    1    3    3    0  502  0.19761257823E+02  0.23617349627E+02 -0.98565441442E+01  0.32358165532E+02  0.12700000000E+01 0.  1.
          1    1    1    2  503    0  0.16529980747E+02  0.79475999601E+02 -0.54269079597E+03  0.54872850738E+03  0.00000000000E+00 0. -1.
         -2    1    1    2    0  501 -0.17741188590E+02  0.15377379440E+02 -0.34305896282E+02  0.41570519491E+02  0.00000000000E+00 0.  1.
<mgrwt>
<rscale>  0 0.43918608E+02</rscale>
<asrwt>0</asrwt>
<pdfrwt beam="2">  1        1 0.11854638E+00 0.82155602E+02</pdfrwt>
<pdfrwt beam="1">  1       -2 0.60902725E-02 0.23477938E+02</pdfrwt>
<totfact> 0.25961927E+03</totfact>
</mgrwt>
</event>
<event>
 7    1  0.4251803E-004  0.1839399E+03  0.7546771E-02  0.1263325E+00
          1   -1    0    0  503    0  0.00000000000E+00  0.00000000000E+00  0.83658784505E+03  0.83658784505E+03  0.00000000000E+00 0. -1.
         -2   -1    0    0    0  501 -0.00000000000E+00 -0.00000000000E+00 -0.21309535201E+03  0.21309535201E+03  0.00000000000E+00 0.  1.
         25    2    1    2    0    0  0.13956928944E+03  0.21522082710E+02  0.29359945812E+02  0.19086355240E+03  0.12499641043E+03 0.  0.
          4    1    3    3  502    0  0.59954780181E+02  0.66101229564E+02 -0.13114522158E+02  0.90208379920E+02  0.12700000000E+01 0.  1.
         -4    1    3    3    0  502  0.79614509255E+02 -0.44579146854E+02  0.42474467970E+02  0.10065517248E+03  0.12700000000E+01 0.  1.
          1    1    1    2  503    0 -0.17642402781E+03 -0.73882826903E+02  0.70516643229E+03  0.73064615713E+03  0.00000000000E+00 0. -1.
         -2    1    1    2    0  501  0.36854738376E+02  0.52360744193E+02 -0.11103388506E+03  0.12817348753E+03  0.00000000000E+00 0.  1.
<mgrwt>
<rscale>  0 0.10852550E+03</rscale>
<asrwt>0</asrwt>
<pdfrwt beam="1">  1        1 0.12870582E+00 0.18393990E+03</pdfrwt>
<pdfrwt beam="2">  1       -2 0.32783901E-01 0.64030612E+02</pdfrwt>
<totfact> 0.16501400E+02</totfact>
</mgrwt>
</event>
<event>
 7    1  0.4251803E-004  0.2646552E+02  0.7546771E-02  0.1685689E+00
         -1   -1    0    0    0  502 -0.00000000000E+00  0.00000000000E+00  0.22143230765E+03  0.22143230765E+03  0.00000000000E+00 0.  1.
         -2   -1    0    0    0  501  0.00000000000E+00 -0.00000000000E+00 -0.42652680427E+02  0.42652680427E+02  0.00000000000E+00 0.  1.
         25    2    1    2    0    0 -0.34532629191E+02  0.15645333359E+02  0.11624726004E+03  0.17486047330E+03  0.12500192287E+03 0.  0.
          4    1    3    3  503    0 -0.78323229318E+02 -0.55820527419E+01  0.51734070356E+02  0.94041025618E+02  0.12700000000E+01 0. -1.
         -4    1    3    3    0  503  0.43790600127E+02  0.21227386101E+02  0.64513189681E+02  0.80819447678E+02  0.12700000000E+01 0. -1.
         -2    1    1    2    0  501  0.19829937123E+02  0.56699097203E+01 -0.96820973769E+00  0.20647317323E+02  0.00000000000E+00 0.  1.
         -1    1    1    2    0  502  0.14702692068E+02 -0.21315243080E+02  0.63500576928E+02  0.68577197462E+02  0.00000000000E+00 0.  1.
<mgrwt>
<rscale>  0 0.23363235E+02</rscale>
<asrwt>0</asrwt>
<pdfrwt beam="2">  1       -2 0.65619509E-02 0.20624604E+02</pdfrwt>
<pdfrwt beam="1">  1       -1 0.34066508E-01 0.26465515E+02</pdfrwt>
<totfact> 0.58852987E+03</totfact>
</mgrwt>
</event>
<event>
 7    1  0.4251803E-004  0.6586005E+02  0.7546771E-02  0.1399853E+00
          1   -1    0    0  503    0  0.00000000000E+00  0.00000000000E+00  0.27147429504E+03  0.27147429504E+03  0.00000000000E+00 0. -1.
         -1   -1    0    0    0  501 -0.00000000000E+00 -0.00000000000E+00 -0.23930429436E+03  0.23930429436E+03  0.00000000000E+00 0.  1.
         25    2    1    2    0    0 -0.63907345844E+02 -0.52964766617E+02  0.12658929085E+03  0.19631086164E+03  0.12499476184E+03 0.  0.
          4    1    3    3  502    0  0.19323813122E+02 -0.12973753730E+02 -0.14671069940E+02  0.27542353432E+02  0.12700000000E+01 0.  1.
         -4    1    3    3    0  502 -0.83231158966E+02 -0.39991012887E+02  0.14126036079E+03  0.16876850821E+03  0.12700000000E+01 0.  1.
          1    1    1    2  503    0 -0.20116719098E+01  0.53754265546E+02  0.97602815626E+02  0.11144450416E+03  0.00000000000E+00 0. -1.
         -1    1    1    2    0  501  0.65919017754E+02 -0.78949892880E+00 -0.19202210579E+03  0.20302322360E+03  0.00000000000E+00 0.  1.
<mgrwt>
<rscale>  0 0.59520896E+02</rscale>
<asrwt>0</asrwt>
<pdfrwt beam="1">  1        1 0.41765276E-01 0.53791894E+02</pdfrwt>
<pdfrwt beam="2">  1       -1 0.36816045E-01 0.65860054E+02</pdfrwt>
<totfact> 0.70358117E+02</totfact>
</mgrwt>
</event>
<event>
 7    1  0.4251803E-004  0.2182804E+03  0.7546771E-02  0.1244977E+00
          2   -1    0    0  502    0  0.00000000000E+00  0.00000000000E+00  0.37438799375E+04  0.37438799375E+04  0.00000000000E+00 0.  1.
          1   -1    0    0  503    0 -0.00000000000E+00 -0.00000000000E+00 -0.29682266659E+02  0.29682266659E+02  0.00000000000E+00 0. -1.
         25    2    1    2    0    0 -0.12988817092E+03  0.21838248687E+03  0.19617115827E+04  0.19820439771E+04  0.12499658357E+03 0.  0.
          4    1    3    3  501    0 -0.84765752612E+02  0.15607900402E+03  0.88857030403E+03  0.90614826955E+03  0.12700000000E+01 0.  1.
         -4    1    3    3    0  501 -0.45122418306E+02  0.62303482849E+02  0.10731412787E+04  0.10758957076E+04  0.12700000000E+01 0.  1.
          2    1    1    2  502    0  0.75049030370E+02 -0.18399070330E+03  0.16896849167E+04  0.17013289082E+04  0.00000000000E+00 0.  1.
          1    1    1    2  503    0  0.54839140548E+02 -0.34391783570E+02  0.62801171328E+02  0.90189318843E+02  0.00000000000E+00 0. -1.
<mgrwt>
<rscale>  0 0.11886778E+03</rscale>
<asrwt>0</asrwt>
<pdfrwt beam="1">  1        2 0.57598116E+00 0.21828040E+03</pdfrwt>
<pdfrwt beam="2">  1        1 0.45665055E-02 0.64731183E+02</pdfrwt>
<totfact> 0.16189846E+02</totfact>
</mgrwt>
</event>
<event>
 7    1  0.4251803E-004  0.1386273E+03  0.7546771E-02  0.1277933E+00
          1   -1    0    0  502    0  0.00000000000E+00  0.00000000000E+00  0.91494764644E+03  0.91494764644E+03  0.00000000000E+00 0. -1.
          1   -1    0    0  503    0 -0.00000000000E+00 -0.00000000000E+00 -0.15651626669E+03  0.15651626669E+03  0.00000000000E+00 0. -1.
         25    2    1    2    0    0 -0.51290013926E+02  0.46560302869E+02  0.55190185630E+03  0.57010371139E+03  0.12499622166E+03 0.  0.
          4    1    3    3  501    0 -0.29330657750E+02  0.83733876505E+02  0.25325257620E+03  0.26834703243E+03  0.12700000000E+01 0.  1.
         -4    1    3    3    0  501 -0.21959356176E+02 -0.37173573636E+02  0.29864928010E+03  0.30175667897E+03  0.12700000000E+01 0.  1.
          1    1    1    2  502    0 -0.55372930420E+02  0.48755419919E+02  0.31393020170E+03  0.32248321497E+03  0.00000000000E+00 0. -1.
          1    1    1    2  503    0  0.10666294435E+03 -0.95315722789E+02 -0.10740067825E+03  0.17887698677E+03  0.00000000000E+00 0. -1.
<mgrwt>
<rscale>  0 0.10113210E+03</rscale>
<asrwt>0</asrwt>
<pdfrwt beam="1">  1        1 0.14076117E+00 0.73778401E+02</pdfrwt>
<pdfrwt beam="2">  1        1 0.24079426E-01 0.13862731E+03</pdfrwt>
<totfact> 0.47385048E+02</totfact>
</mgrwt>
</event>
<event>
 7    1  0.4251803E-004  0.5345800E+02  0.7546771E-02  0.1438476E+00
          2   -1    0    0  502    0  0.00000000000E+00  0.00000000000E+00  0.13382489460E+04  0.13382489460E+04  0.00000000000E+00 0. -1.
          1   -1    0    0  503    0 -0.00000000000E+00 -0.00000000000E+00 -0.93673643028E+02  0.93673643028E+02  0.00000000000E+00 0. -1.
         25    2    1    2    0    0 -0.17973499800E+02  0.57407703836E+01  0.63066638271E+03  0.64321137122E+03  0.12499911458E+03 0.  0.
          4    1    3    3  501    0 -0.49623851070E+01  0.63221889583E+02  0.24557566521E+03  0.25363488095E+03  0.12700000000E+01 0. -1.
         -4    1    3    3    0  501 -0.13011114693E+02 -0.57481119199E+02  0.38509071750E+03  0.38957649028E+03  0.12700000000E+01 0. -1.
          2    1    1    2  502    0  0.32752174343E+02 -0.52690543395E+02  0.69288261514E+03  0.69565459580E+03  0.00000000000E+00 0. -1.
          1    1    1    2  503    0 -0.14778674543E+02  0.46949773011E+02 -0.78973694910E+02  0.93056621983E+02  0.00000000000E+00 0. -1.
<mgrwt>
<rscale>  0 0.51295684E+02</rscale>
<asrwt>0</asrwt>
<pdfrwt beam="1">  1        2 0.20588444E+00 0.53457998E+02</pdfrwt>
<pdfrwt beam="2">  1        1 0.14411331E-01 0.49220833E+02</pdfrwt>
<totfact> 0.92469946E+02</totfact>
</mgrwt>
</event>
<event>
 7    1  0.4251803E-004  0.1324916E+03  0.7546771E-02  0.1378461E+00
          2   -1    0    0  503    0  0.00000000000E+00  0.00000000000E+00  0.13265984397E+04  0.13265984397E+04  0.00000000000E+00 0. -1.
         -2   -1    0    0    0  501 -0.00000000000E+00 -0.00000000000E+00 -0.64204557292E+02  0.64204557292E+02  0.00000000000E+00 0.  1.
         25    2    1    2    0    0  0.60851048363E+02 -0.12497030477E+03  0.35019641473E+03  0.39698367588E+03  0.12505232049E+03 0.  0.
          4    1    3    3  502    0 -0.15509351782E+02  0.40469434001E+01  0.12757476608E+03  0.12858402538E+03  0.12700000000E+01 0. -1.
         -4    1    3    3    0  502  0.76360400145E+02 -0.12901724817E+03  0.22262164865E+03  0.26839965049E+03  0.12700000000E+01 0. -1.
          2    1    1    2  503    0  0.21980601999E+02  0.22926749518E+02  0.84611512817E+03  0.84671104447E+03  0.00000000000E+00 0. -1.
         -2    1    1    2    0  501 -0.82831650362E+02  0.10204355525E+03  0.66082339554E+02  0.14710827669E+03  0.00000000000E+00 0.  1.
<mgrwt>
<rscale>  0 0.64869960E+02</rscale>
<asrwt>0</asrwt>
<pdfrwt beam="1">  1        2 0.20409205E+00 0.31761340E+02</pdfrwt>
<pdfrwt beam="2">  1       -2 0.98776252E-02 0.13249163E+03</pdfrwt>
<totfact> 0.12878033E+03</totfact>
</mgrwt>
</event>
<event>
 7    1  0.4251803E-004  0.7565215E+02  0.7546771E-02  0.1381813E+00
         -2   -1    0    0    0  501 -0.00000000000E+00  0.00000000000E+00  0.39488637144E+02  0.39488637144E+02  0.00000000000E+00 0.  1.
          1   -1    0    0  503    0  0.00000000000E+00 -0.00000000000E+00 -0.90920638723E+03  0.90920638723E+03  0.00000000000E+00 0. -1.
         25    2    1    2    0    0  0.12020290178E+03 -0.81152979044E+01 -0.71938251804E+03  0.74003114757E+03  0.12498118441E+03 0.  0.
          4    1    3    3  502    0  0.93112836555E+02 -0.62489466017E+02 -0.43433071120E+03  0.44857520360E+03  0.12700000000E+01 0. -1.
         -4    1    3    3    0  502  0.27090065224E+02  0.54374168112E+02 -0.28505180684E+03  0.29145594397E+03  0.12700000000E+01 0. -1.
          1    1    1    2  503    0 -0.51777759324E+02 -0.15766758118E+02 -0.11695688129E+03  0.12887373318E+03  0.00000000000E+00 0. -1.
         -2    1    1    2    0  501 -0.68425142455E+02  0.23882056022E+02 -0.33378350745E+02  0.79790143616E+02  0.00000000000E+00 0.  1.
<mgrwt>
<rscale>  0 0.63989693E+02</rscale>
<asrwt>0</asrwt>
<pdfrwt beam="2">  1        1 0.13987790E+00 0.54125105E+02</pdfrwt>
<pdfrwt beam="1">  1       -2 0.60751754E-02 0.75652153E+02</pdfrwt>
<totfact> 0.23709232E+03</totfact>
</mgrwt>
</event>
<event>
 7    1  0.4251803E-004  0.4859950E+02  0.7546771E-02  0.1487812E+00
         -3   -1    0    0    0  501 -0.00000000000E+00  0.00000000000E+00  0.97087581458E+03  0.97087581458E+03  0.00000000000E+00 0.  1.
          1   -1    0    0  503    0  0.00000000000E+00 -0.00000000000E+00 -0.12391636434E+04  0.12391636434E+04  0.00000000000E+00 0. -1.
         25    2    1    2    0    0  0.32332979853E+02 -0.26843484752E+02 -0.19300903988E+03  0.23376034887E+03  0.12500166785E+03 0.  0.
          4    1    3    3  502    0  0.13909248922E+02 -0.80693626180E+01  0.16223015247E+02  0.22877520458E+02  0.12700000000E+01 0.  1.
         -4    1    3    3    0  502  0.18423730931E+02 -0.18774122134E+02 -0.20923205513E+03  0.21088282841E+03  0.12700000000E+01 0.  1.
          1    1    1    2  503    0 -0.17109864115E+01  0.49159263558E+02 -0.10248111915E+04  0.10259910034E+04  0.00000000000E+00 0. -1.
         -3    1    1    2    0  501 -0.30621993442E+02 -0.22315778806E+02  0.94953240258E+03  0.95028810579E+03  0.00000000000E+00 0.  1.
<mgrwt>
<rscale>  0 0.42912309E+02</rscale>
<asrwt>0</asrwt>
<pdfrwt beam="2">  1        1 0.19064056E+00 0.48599504E+02</pdfrwt>
<pdfrwt beam="1">  1       -3 0.14936551E+00 0.37890638E+02</pdfrwt>
<totfact> 0.23430691E+00</totfact>
</mgrwt>
</event>
<event>
 7    1  0.4251803E-004  0.4707097E+02  0.7546771E-02  0.1482997E+00
          2   -1    0    0  502    0  0.00000000000E+00  0.00000000000E+00  0.15186711612E+04  0.15186711612E+04  0.00000000000E+00 0. -1.
          2   -1    0    0  503    0 -0.00000000000E+00 -0.00000000000E+00 -0.32603671928E+02  0.32603671928E+02  0.00000000000E+00 0. -1.
         25    2    1    2    0    0  0.26269701377E+02 -0.12180791440E+02  0.22257355283E+03  0.25690854870E+03  0.12499818833E+03 0.  0.
          4    1    3    3  501    0  0.23565565823E+02  0.16979743282E+02  0.22557615487E+03  0.22744199727E+03  0.12700000000E+01 0. -1.
         -4    1    3    3    0  501  0.27041355541E+01 -0.29160534722E+02 -0.30026020415E+01  0.29466551434E+02  0.12700000000E+01 0. -1.
          2    1    1    2  502    0 -0.64667782167E+01  0.47468058337E+02  0.12511420420E+04  0.12520588824E+04  0.00000000000E+00 0. -1.
          2    1    1    2  503    0 -0.19802923161E+02 -0.35287266897E+02  0.12351894480E+02  0.42307402047E+02  0.00000000000E+00 0. -1.
<mgrwt>
<rscale>  0 0.43642713E+02</rscale>
<asrwt>0</asrwt>
<pdfrwt beam="1">  1        2 0.23364166E+00 0.47070967E+02</pdfrwt>
<pdfrwt beam="2">  1        2 0.50159507E-02 0.40464144E+02</pdfrwt>
<totfact> 0.31301136E+03</totfact>
</mgrwt>
</event>
<event>
 7    1  0.4251803E-004  0.1037779E+03  0.7546771E-02  0.1361036E+00
          2   -1    0    0  503    0  0.00000000000E+00  0.00000000000E+00  0.75170266810E+03  0.75170266810E+03  0.00000000000E+00 0. -1.
         -1   -1    0    0    0  501 -0.00000000000E+00 -0.00000000000E+00 -0.44206126569E+02  0.44206126569E+02  0.00000000000E+00 0.  1.
         25    2    1    2    0    0 -0.80265986946E+02  0.43051517831E+02  0.46144971787E+03  0.48667913718E+03  0.12499871438E+03 0.  0.
          4    1    3    3  502    0  0.66954371054E+01  0.60826106163E+02  0.13234724398E+03  0.14581512253E+03  0.12700000000E+01 0.  1.
         -4    1    3    3    0  502 -0.86961424052E+02 -0.17774588333E+02  0.32910247389E+03  0.34086401465E+03  0.12700000000E+01 0.  1.
          2    1    1    2  503    0 -0.27756310936E+02 -0.37735055476E+02  0.17173015023E+03  0.17800447103E+03  0.00000000000E+00 0. -1.
         -1    1    1    2    0  501  0.10802229788E+03 -0.53164623545E+01  0.74316673432E+02  0.13122518646E+03  0.00000000000E+00 0.  1.
<mgrwt>
<rscale>  0 0.69723424E+02</rscale>
<asrwt>0</asrwt>
<pdfrwt beam="1">  1        2 0.11564655E+00 0.46843860E+02</pdfrwt>
<pdfrwt beam="2">  1       -1 0.68009431E-02 0.10377787E+03</pdfrwt>
<totfact> 0.47644687E+03</totfact>
</mgrwt>
</event>
<event>
 7    1  0.4251803E-004  0.4426785E+02  0.7546771E-02  0.1533712E+00
         -2   -1    0    0    0  501 -0.00000000000E+00  0.00000000000E+00  0.21800167722E+03  0.21800167722E+03  0.00000000000E+00 0.  1.
          1   -1    0    0  503    0  0.00000000000E+00 -0.00000000000E+00 -0.56829902150E+02  0.56829902150E+02  0.00000000000E+00 0. -1.
         25    2    1    2    0    0  0.11339128709E+02  0.38011323778E+02  0.13502025072E+03  0.18822396241E+03  0.12499742135E+03 0.  0.
          4    1    3    3  502    0 -0.12693780080E+02 -0.12954413618E+02  0.13041242997E+03  0.13167370153E+03  0.12700000000E+01 0. -1.
         -4    1    3    3    0  502  0.24032908789E+02  0.50965737396E+02  0.46078207542E+01  0.56550260877E+02  0.12700000000E+01 0. -1.
          1    1    1    2  503    0  0.18867950399E+02 -0.42110931294E+02 -0.45291558915E+00  0.46146887427E+02  0.00000000000E+00 0. -1.
         -2    1    1    2    0  501 -0.30207079108E+02  0.40996075166E+01  0.26604439934E+02  0.40460729531E+02  0.00000000000E+00 0.  1.
<mgrwt>
<rscale>  0 0.36735015E+02</rscale>
<asrwt>0</asrwt>
<pdfrwt beam="2">  1        1 0.87430620E-02 0.44267852E+02</pdfrwt>
<pdfrwt beam="1">  1       -2 0.33538719E-01 0.30484003E+02</pdfrwt>
<totfact> 0.47514643E+03</totfact>
</mgrwt>
</event>
<event>
 7    1  0.4251803E-004  0.9472911E+02  0.7546771E-02  0.1407349E+00
          2   -1    0    0  503    0  0.00000000000E+00  0.00000000000E+00  0.32447741283E+04  0.32447741283E+04  0.00000000000E+00 0. -1.
          2   -1    0    0  502    0 -0.00000000000E+00 -0.00000000000E+00 -0.67368447483E+03  0.67368447483E+03  0.00000000000E+00 0. -1.
         25    2    1    2    0    0  0.35772409522E+02 -0.71153793391E+02  0.52461014752E+02  0.15722410175E+03  0.12499893001E+03 0.  0.
          4    1    3    3  501    0  0.11941608475E+00  0.30893684340E+02 -0.98461075826E+01  0.32449849411E+02  0.12700000000E+01 0.  1.
         -4    1    3    3    0  501  0.35652993438E+02 -0.10204747773E+03  0.62307122334E+02  0.12477425234E+03  0.12700000000E+01 0.  1.
          2    1    1    2  502    0  0.34507026582E+02  0.72215259785E+01 -0.62008343625E+03  0.62108481968E+03  0.00000000000E+00 0. -1.
          2    1    1    2  503    0 -0.70279436104E+02  0.63932267413E+02  0.31387120750E+04  0.31401496817E+04  0.00000000000E+00 0. -1.
<mgrwt>
<rscale>  0 0.57789574E+02</rscale>
<asrwt>0</asrwt>
<pdfrwt beam="1">  1        2 0.49919601E+00 0.94729111E+02</pdfrwt>
<pdfrwt beam="2">  1        2 0.10364377E+00 0.35254579E+02</pdfrwt>
<totfact> 0.12809028E+01</totfact>
</mgrwt>
</event>
<event>
 7    1  0.4251803E-004  0.1277031E+03  0.7546771E-02  0.1427751E+00
          1   -1    0    0  503    0  0.00000000000E+00  0.00000000000E+00  0.23284475130E+03  0.23284475130E+03  0.00000000000E+00 0. -1.
         -2   -1    0    0    0  501 -0.00000000000E+00 -0.00000000000E+00 -0.13282634671E+03  0.13282634671E+03  0.00000000000E+00 0.  1.
         25    2    1    2    0    0 -0.27423062416E+02 -0.13963239784E+03  0.49700982420E+02  0.19581763275E+03  0.12500050705E+03 0.  0.
          4    1    3    3  502    0  0.10287675104E+02 -0.10039545306E+03  0.84141320118E+02  0.13140189460E+03  0.12700000000E+01 0. -1.
         -4    1    3    3    0  502 -0.37710737520E+02 -0.39236944785E+02 -0.34440337698E+02  0.64415738148E+02  0.12700000000E+01 0. -1.
          1    1    1    2  503    0  0.13337599280E+01  0.22301533154E+02  0.44171399033E+02  0.49499997870E+02  0.00000000000E+00 0. -1.
         -2    1    1    2    0  501  0.26089302488E+02  0.11733086469E+03  0.61460231408E+01  0.12035346739E+03  0.00000000000E+00 0.  1.
<mgrwt>
<rscale>  0 0.53414072E+02</rscale>
<asrwt>0</asrwt>
<pdfrwt beam="1">  1        1 0.35822270E-01 0.22341381E+02</pdfrwt>
<pdfrwt beam="2">  1       -2 0.20434822E-01 0.12770308E+03</pdfrwt>
<totfact> 0.20261193E+03</totfact>
</mgrwt>
</event>
<event>
 7    1  0.4251803E-004  0.3163154E+02  0.7546771E-02  0.1595020E+00
          1   -1    0    0  503    0  0.00000000000E+00  0.00000000000E+00  0.75190209094E+03  0.75190209094E+03  0.00000000000E+00 0. -1.
         -2   -1    0    0    0  501 -0.00000000000E+00 -0.00000000000E+00 -0.20086121801E+02  0.20086121801E+02  0.00000000000E+00 0.  1.
         25    2    1    2    0    0 -0.23140130908E+01  0.36661777135E+02  0.24762637828E+03  0.27980581130E+03  0.12499211277E+03 0.  0.
          4    1    3    3  502    0  0.37436166713E+02 -0.56310058103E+01  0.20320617084E+03  0.20670639945E+03  0.12700000000E+01 0.  1.
         -4    1    3    3    0  502 -0.39750179803E+02  0.42292782945E+02  0.44420207437E+02  0.73099411847E+02  0.12700000000E+01 0.  1.
          1    1    1    2  503    0 -0.23823099226E+02 -0.16510523792E+02  0.40951861085E+03  0.41054309163E+03  0.00000000000E+00 0. -1.
         -2    1    1    2    0  501  0.26137112317E+02 -0.20151253342E+02  0.74670980008E+02  0.81639309814E+02  0.00000000000E+00 0.  1.
<mgrwt>
<rscale>  0 0.30279433E+02</rscale>
<asrwt>0</asrwt>
<pdfrwt beam="1">  1        1 0.11567722E+00 0.28985125E+02</pdfrwt>
<pdfrwt beam="2">  1       -2 0.30901732E-02 0.31631538E+02</pdfrwt>
<totfact> 0.77313184E+03</totfact>
</mgrwt>
</event>
<event>
 7    1  0.4251803E-004  0.5966283E+02  0.7546771E-02  0.1448442E+00
         -1   -1    0    0    0  501 -0.00000000000E+00  0.00000000000E+00  0.35818236731E+02  0.35818236731E+02  0.00000000000E+00 0.  1.
          2   -1    0    0  503    0  0.00000000000E+00 -0.00000000000E+00 -0.44731591365E+03  0.44731591365E+03  0.00000000000E+00 0. -1.
         25    2    1    2    0    0 -0.65744551668E+02 -0.25124394883E+02 -0.22461597948E+03  0.26651701192E+03  0.12500159244E+03 0.  0.
          4    1    3    3  502    0  0.20167240824E+02  0.16602105216E+02 -0.12804339007E+03  0.13068691649E+03  0.12700000000E+01 0. -1.
         -4    1    3    3    0  502 -0.85911792492E+02 -0.41726500099E+02 -0.96572589403E+02  0.13583009543E+03  0.12700000000E+01 0. -1.
          2    1    1    2  503    0  0.32893256681E+02  0.49575306758E+02 -0.15052116683E+03  0.16185270785E+03  0.00000000000E+00 0. -1.
         -1    1    1    2    0  501  0.32851294987E+02 -0.24450911875E+02 -0.36360530612E+02  0.54764430612E+02  0.00000000000E+00 0.  1.
<mgrwt>
<rscale>  0 0.49429786E+02</rscale>
<asrwt>0</asrwt>
<pdfrwt beam="2">  1        2 0.68817834E-01 0.59662830E+02</pdfrwt>
<pdfrwt beam="1">  1       -1 0.55104979E-02 0.40951858E+02</pdfrwt>
<totfact> 0.10371712E+04</totfact>
</mgrwt>
</event>
<event>
 7    1  0.4251803E-004  0.2723256E+03  0.7546771E-02  0.1202987E+00
          2   -1    0    0  502    0  0.00000000000E+00  0.00000000000E+00  0.85597611758E+03  0.85597611758E+03  0.00000000000E+00 0.  1.
          2   -1    0    0  503    0 -0.00000000000E+00 -0.00000000000E+00 -0.55765007106E+03  0.55765007106E+03  0.00000000000E+00 0.  1.
         25    2    1    2    0    0  0.68478046413E+02  0.33498586715E+03  0.13390597283E+03  0.38789110444E+03  0.12499570118E+03 0.  0.
          4    1    3    3  501    0  0.93969101659E+02  0.31423397943E+03  0.10580994268E+03  0.34463102409E+03  0.12700000000E+01 0.  1.
         -4    1    3    3    0  501 -0.25491055246E+02  0.20751887713E+02  0.28096030149E+02  0.43260080343E+02  0.12700000000E+01 0.  1.
          2    1    1    2  502    0 -0.11895725566E+02 -0.79518466307E+02  0.55215078985E+03  0.55797418354E+03  0.00000000000E+00 0.  1.
          2    1    1    2  503    0 -0.56582320847E+02 -0.25546740084E+03 -0.38773071617E+03  0.46776090066E+03  0.00000000000E+00 0.  1.
<mgrwt>
<rscale>  0 0.14797258E+03</rscale>
<asrwt>0</asrwt>
<pdfrwt beam="1">  1        2 0.13168863E+00 0.80403326E+02</pdfrwt>
<pdfrwt beam="2">  1        2 0.85792318E-01 0.27232561E+03</pdfrwt>
<totfact> 0.29208531E+02</totfact>
</mgrwt>
</event>
<event>
 7    1  0.4251803E-004  0.6950776E+02  0.7546771E-02  0.1513367E+00
         -3   -1    0    0    0  501 -0.00000000000E+00  0.00000000000E+00  0.86567581851E+03  0.86567581851E+03  0.00000000000E+00 0.  1.
          1   -1    0    0  503    0  0.00000000000E+00 -0.00000000000E+00 -0.20596844794E+03  0.20596844794E+03  0.00000000000E+00 0. -1.
         25    2    1    2    0    0 -0.30825974376E+02  0.39925777622E+02  0.25517051753E+03  0.28858409803E+03  0.12499792080E+03 0.  0.
          4    1    3    3  502    0 -0.77931330863E+02  0.36995308094E+02  0.14505324088E+03  0.16877203779E+03  0.12700000000E+01 0. -1.
         -4    1    3    3    0  502  0.47105356487E+02  0.29304695275E+01  0.11011727666E+03  0.11981206024E+03  0.12700000000E+01 0. -1.
          1    1    1    2  503    0  0.32243946841E+02 -0.62109822792E+02 -0.18257516625E+03  0.19552747512E+03  0.00000000000E+00 0. -1.
         -3    1    1    2    0  501 -0.14179724645E+01  0.22184045170E+02  0.58711201929E+03  0.58753269330E+03  0.00000000000E+00 0.  1.
<mgrwt>
<rscale>  0 0.39307886E+02</rscale>
<asrwt>0</asrwt>
<pdfrwt beam="2">  1        1 0.31687454E-01 0.69507758E+02</pdfrwt>
<pdfrwt beam="1">  1       -3 0.13318089E+00 0.22229316E+02</pdfrwt>
<totfact> 0.33559811E+01</totfact>
</mgrwt>
</event>
<event>
 7    1  0.4251803E-004  0.5912835E+02  0.7546771E-02  0.1481690E+00
         -1   -1    0    0    0  501 -0.00000000000E+00  0.00000000000E+00  0.22786739801E+02  0.22786739801E+02  0.00000000000E+00 0.  1.
          2   -1    0    0  503    0  0.00000000000E+00 -0.00000000000E+00 -0.83460687396E+03  0.83460687396E+03  0.00000000000E+00 0. -1.
         25    2    1    2    0    0  0.56236704234E+01  0.76920049362E+02 -0.30944515346E+03  0.34253486846E+03  0.12500205378E+03 0.  0.
          4    1    3    3  502    0  0.26657633169E+02  0.77370914070E+01 -0.24217678069E+03  0.24376566205E+03  0.12700000000E+01 0.  1.
         -4    1    3    3    0  502 -0.21033962745E+02  0.69182957955E+02 -0.67268372768E+02  0.98769206411E+02  0.12700000000E+01 0.  1.
          2    1    1    2  503    0  0.16018895125E+02 -0.28290049703E+02 -0.38025834187E+03  0.38164556656E+03  0.00000000000E+00 0. -1.
         -1    1    1    2    0  501 -0.21642565549E+02 -0.48629999659E+02 -0.12211663883E+03  0.13321317873E+03  0.00000000000E+00 0.  1.
<mgrwt>
<rscale>  0 0.43843945E+02</rscale>
<asrwt>0</asrwt>
<pdfrwt beam="2">  1        2 0.12840106E+00 0.32510489E+02</pdfrwt>
<pdfrwt beam="1">  1       -1 0.35056523E-02 0.59128347E+02</pdfrwt>
<totfact> 0.10601638E+04</totfact>
</mgrwt>
</event>
<event>
 7    1  0.4251803E-004  0.6898589E+02  0.7546771E-02  0.1429157E+00
         -1   -1    0    0    0  501 -0.00000000000E+00  0.00000000000E+00  0.20167377471E+03  0.20167377471E+03  0.00000000000E+00 0.  1.
          2   -1    0    0  503    0  0.00000000000E+00 -0.00000000000E+00 -0.24689424067E+04  0.24689424067E+04  0.00000000000E+00 0.  1.
         25    2    1    2    0    0  0.32298944342E+02  0.64708584049E+02 -0.46013794943E+03  0.48226864999E+03  0.12500278240E+03 0.  0.
          4    1    3    3  502    0  0.63307775096E+02  0.47451274120E+02 -0.14542160512E+03  0.16555528968E+03  0.12700000000E+01 0. -1.
         -4    1    3    3    0  502 -0.31008830754E+02  0.17257309930E+02 -0.31471634430E+03  0.31671336031E+03  0.12700000000E+01 0. -1.
          2    1    1    2  503    0 -0.40734043592E+02  0.38743152455E+01 -0.19912594818E+04  0.19916798429E+04  0.00000000000E+00 0.  1.
         -1    1    1    2    0  501  0.84350992495E+01 -0.68582899295E+02  0.18412879928E+03  0.19666768850E+03  0.00000000000E+00 0.  1.
<mgrwt>
<rscale>  0 0.53129615E+02</rscale>
<asrwt>0</asrwt>
<pdfrwt beam="2">  1        2 0.37983733E+00 0.40917877E+02</pdfrwt>
<pdfrwt beam="1">  1       -1 0.31026731E-01 0.68985887E+02</pdfrwt>
<totfact> 0.58465575E+01</totfact>
</mgrwt>
</event>
<event>
 7    1  0.4251803E-004  0.1332099E+03  0.7546771E-02  0.1293146E+00
          2   -1    0    0  502    0  0.00000000000E+00  0.00000000000E+00  0.30319950833E+03  0.30319950833E+03  0.00000000000E+00 0. -1.
          2   -1    0    0  503    0 -0.00000000000E+00 -0.00000000000E+00 -0.35611526757E+03  0.35611526757E+03  0.00000000000E+00 0. -1.
         25    2    1    2    0    0  0.22550379996E+02  0.12197841029E+03 -0.14701602691E+03  0.22940257999E+03  0.12499831727E+03 0.  0.
          4    1    3    3  501    0 -0.28013007559E+02  0.72892321931E+02 -0.13770154887E+03  0.15830776560E+03  0.12700000000E+01 0. -1.
         -4    1    3    3    0  501  0.50563387555E+02  0.49086088356E+02 -0.93144780483E+01  0.71094814385E+02  0.12700000000E+01 0. -1.
          2    1    1    2  502    0  0.66337240946E+02 -0.48774316566E+01  0.22403845642E+03  0.23370419087E+03  0.00000000000E+00 0. -1.
          2    1    1    2  503    0 -0.88887620942E+02 -0.11710097863E+03 -0.12993818874E+03  0.19620800505E+03  0.00000000000E+00 0. -1.
<mgrwt>
<rscale>  0 0.94130908E+02</rscale>
<asrwt>0</asrwt>
<pdfrwt beam="1">  1        2 0.46646078E-01 0.66516305E+02</pdfrwt>
<pdfrwt beam="2">  1        2 0.54786964E-01 0.13320986E+03</pdfrwt>
<totfact> 0.15052304E+03</totfact>
</mgrwt>
</event>
<event>
 7    1  0.4251803E-004  0.1142223E+03  0.7546771E-02  0.1334083E+00
          2   -1    0    0  503    0  0.00000000000E+00  0.00000000000E+00  0.90484982831E+03  0.90484982831E+03  0.00000000000E+00 0. -1.
          2   -1    0    0  502    0 -0.00000000000E+00 -0.00000000000E+00 -0.10278045067E+04  0.10278045067E+04  0.00000000000E+00 0. -1.
         25    2    1    2    0    0 -0.99649333198E+02  0.11798032043E+03 -0.11332247570E+03  0.22872775656E+03  0.12500023003E+03 0.  0.
          4    1    3    3  501    0 -0.12675740774E+02 -0.44819036992E+01 -0.71556109804E+02  0.72819307984E+02  0.12700000000E+01 0. -1.
         -4    1    3    3    0  501 -0.86973592424E+02  0.12246222413E+03 -0.41766365898E+02  0.15590844858E+03  0.12700000000E+01 0. -1.
          2    1    1    2  502    0  0.65126778730E+01 -0.53214080895E+02 -0.85213544591E+03  0.85382022204E+03  0.00000000000E+00 0. -1.
          2    1    1    2  503    0  0.93136655325E+02 -0.64766239538E+02  0.84250324323E+03  0.85010635640E+03  0.00000000000E+00 0. -1.
<mgrwt>
<rscale>  0 0.78253338E+02</rscale>
<asrwt>0</asrwt>
<pdfrwt beam="1">  1        2 0.13920767E+00 0.11422227E+03</pdfrwt>
<pdfrwt beam="2">  1        2 0.15812377E+00 0.53611131E+02</pdfrwt>
<totfact> 0.13449127E+02</totfact>
</mgrwt>
</event>
<event>
 7    1  0.4251803E-004  0.1110996E+03  0.7546771E-02  0.1272770E+00
          2   -1    0    0  502    0  0.00000000000E+00  0.00000000000E+00  0.50206630487E+03  0.50206630487E+03  0.00000000000E+00 0. -1.
          1   -1    0    0  503    0 -0.00000000000E+00 -0.00000000000E+00 -0.29439309502E+03  0.29439309502E+03  0.00000000000E+00 0. -1.
         25    2    1    2    0    0  0.94767680217E+02  0.25862242064E+02 -0.53270227713E+02  0.16766476914E+03  0.12499595542E+03 0.  0.
          4    1    3    3  501    0  0.36770432125E+02  0.56697924446E+02  0.18788987383E+02  0.70152393131E+02  0.12700000000E+01 0. -1.
         -4    1    3    3    0  501  0.57997248091E+02 -0.30835682382E+02 -0.72059215095E+02  0.97512376005E+02  0.12700000000E+01 0. -1.
          2    1    1    2  502    0  0.10597141368E+02 -0.96147507384E+02  0.41684947622E+03  0.42792537715E+03  0.00000000000E+00 0. -1.
          1    1    1    2  503    0 -0.10536482158E+03  0.70285265320E+02 -0.15590603866E+03  0.20086925360E+03  0.00000000000E+00 0. -1.
<mgrwt>
<rscale>  0 0.10366599E+03</rscale>
<asrwt>0</asrwt>
<pdfrwt beam="1">  1        2 0.77240970E-01 0.96729740E+02</pdfrwt>
<pdfrwt beam="2">  1        1 0.45291245E-01 0.11109963E+03</pdfrwt>
<totfact> 0.76941296E+02</totfact>
</mgrwt>
</event>
<event>
 7    1  0.4251803E-004  0.3918627E+02  0.7546771E-02  0.1533090E+00
          2   -1    0    0  503    0  0.00000000000E+00  0.00000000000E+00  0.32189005541E+04  0.32189005541E+04  0.00000000000E+00 0. -1.
         -1   -1    0    0    0  501 -0.00000000000E+00 -0.00000000000E+00 -0.35689897015E+01  0.35689897015E+01  0.00000000000E+00 0.  1.
         25    2    1    2    0    0  0.13093901137E+01 -0.22386486694E+02  0.16519719235E+04  0.16568461763E+04  0.12500058569E+03 0.  0.
          4    1    3    3  502    0 -0.35206369470E+02  0.33480171664E+02  0.10616688621E+04  0.10627806904E+04  0.12700000000E+01 0.  1.
         -4    1    3    3    0  502  0.36515759583E+02 -0.55866658358E+02  0.59030306148E+03  0.59406548588E+03  0.12700000000E+01 0.  1.
          2    1    1    2  503    0  0.32735879124E+02  0.28432765033E+02  0.11510348904E+04  0.11518512833E+04  0.00000000000E+00 0. -1.
         -1    1    1    2    0  501 -0.34045269237E+02 -0.60462783393E+01  0.41232475040E+03  0.41377208416E+03  0.00000000000E+00 0.  1.
<mgrwt>
<rscale>  0 0.36810091E+02</rscale>
<asrwt>0</asrwt>
<pdfrwt beam="1">  1        2 0.49521315E+00 0.39186274E+02</pdfrwt>
<pdfrwt beam="2">  1       -1 0.54907791E-03 0.34577996E+02</pdfrwt>
<totfact> 0.74662789E+03</totfact>
</mgrwt>
</event>
<event>
 7    1  0.4251803E-004  0.1213516E+03  0.7546771E-02  0.1347902E+00
          3   -1    0    0  503    0  0.00000000000E+00  0.00000000000E+00  0.44399164645E+03  0.44399164645E+03  0.00000000000E+00 0. -1.
          3   -1    0    0  502    0 -0.00000000000E+00 -0.00000000000E+00 -0.19629718281E+03  0.19629718281E+03  0.00000000000E+00 0. -1.
         25    2    1    2    0    0  0.37024844551E+02 -0.10517688310E+03  0.26446609754E+03  0.31305479534E+03  0.12501188857E+03 0.  0.
          4    1    3    3  501    0  0.41889527357E+02 -0.18587370093E+02  0.19946491067E+03  0.20466579176E+03  0.12700000000E+01 0.  1.
         -4    1    3    3    0  501 -0.48646828059E+01 -0.86589513010E+02  0.65001186869E+02  0.10838900358E+03  0.12700000000E+01 0.  1.
          3    1    1    2  502    0 -0.80089902949E+02  0.92916640787E+02 -0.14586846982E+03  0.19059251081E+03  0.00000000000E+00 0. -1.
          3    1    1    2  503    0  0.43065058398E+02  0.12260242316E+02  0.12909683592E+03  0.13664152312E+03  0.00000000000E+00 0. -1.
<mgrwt>
<rscale>  0 0.73713421E+02</rscale>
<asrwt>0</asrwt>
<pdfrwt beam="1">  1        3 0.68306407E-01 0.44776253E+02</pdfrwt>
<pdfrwt beam="2">  1        3 0.30199567E-01 0.12135157E+03</pdfrwt>
<totfact> 0.49799546E+01</totfact>
</mgrwt>
</event>
<event>
 7    1  0.4251803E-004  0.5403484E+02  0.7546771E-02  0.1567844E+00
          3   -1    0    0  503    0 -0.00000000000E+00  0.00000000000E+00  0.64483035513E+03  0.64483035513E+03  0.00000000000E+00 0. -1.
          1   -1    0    0  502    0  0.00000000000E+00 -0.00000000000E+00 -0.66111264113E+02  0.66111264113E+02  0.00000000000E+00 0. -1.
         25    2    1    2    0    0 -0.25249129537E+02  0.56618997487E+02  0.11751023967E+03  0.18241987777E+03  0.12500050383E+03 0.  0.
          4    1    3    3  501    0  0.25480765612E+02  0.94331495506E+01 -0.16315363646E+02  0.31718412910E+02  0.12700000000E+01 0. -1.
         -4    1    3    3    0  501 -0.50729895149E+02  0.47185847936E+02  0.13382560332E+03  0.15070146486E+03  0.12700000000E+01 0. -1.
          1    1    1    2  502    0  0.19822938620E+02 -0.30849079169E+01 -0.29058211941E+02  0.35310695739E+02  0.00000000000E+00 0. -1.
          3    1    1    2  503    0  0.54261909168E+01 -0.53534089570E+02  0.49026706329E+03  0.49321104574E+03  0.00000000000E+00 0. -1.
<mgrwt>
<rscale>  0 0.32924495E+02</rscale>
<asrwt>0</asrwt>
<pdfrwt beam="2">  1        1 0.10170964E-01 0.20061544E+02</pdfrwt>
<pdfrwt beam="1">  1        3 0.99204665E-01 0.54034843E+02</pdfrwt>
<totfact> 0.25318601E+02</totfact>
</mgrwt>
</event>
<event>
 7    1  0.4251803E-004  0.5715132E+02  0.7546771E-02  0.1465618E+00
          2   -1    0    0  503    0  0.00000000000E+00  0.00000000000E+00  0.12031313349E+04  0.12031313349E+04  0.00000000000E+00 0. -1.
         -1   -1    0    0    0  501 -0.00000000000E+00 -0.00000000000E+00 -0.13603495637E+02  0.13603495637E+02  0.00000000000E+00 0.  1.
         25    2    1    2    0    0 -0.35725281773E+02  0.56825587419E+02  0.82913374364E+03  0.84118575096E+03  0.12500103852E+03 0.  0.
          4    1    3    3  502    0 -0.51834226405E+02  0.72763407856E+02  0.79614912766E+03  0.80114689472E+03  0.12700000000E+01 0. -1.
         -4    1    3    3    0  502  0.16108944631E+02 -0.15937820437E+02  0.32984615980E+02  0.40038856237E+02  0.12700000000E+01 0. -1.
          2    1    1    2  503    0 -0.19850896620E+01 -0.56126851245E+02  0.29286056231E+03  0.29819703716E+03  0.00000000000E+00 0. -1.
         -1    1    1    2    0  501  0.37710371435E+02 -0.69873617438E+00  0.67533533356E+02  0.77352042466E+02  0.00000000000E+00 0.  1.
<mgrwt>
<rscale>  0 0.46428088E+02</rscale>
<asrwt>0</asrwt>
<pdfrwt beam="1">  1        2 0.18509704E+00 0.57151317E+02</pdfrwt>
<pdfrwt beam="2">  1       -1 0.20928464E-02 0.37716844E+02</pdfrwt>
<totfact> 0.12358234E+04</totfact>
</mgrwt>
</event>
<event>
 7    1  0.4251803E-004  0.6471614E+02  0.7546771E-02  0.1438782E+00
          1   -1    0    0  503    0 -0.00000000000E+00  0.00000000000E+00  0.43106079116E+03  0.43106079116E+03  0.00000000000E+00 0. -1.
          2   -1    0    0  502    0  0.00000000000E+00 -0.00000000000E+00 -0.10127441640E+04  0.10127441640E+04  0.00000000000E+00 0. -1.
         25    2    1    2    0    0  0.30529483119E+02  0.16057221579E+02 -0.25823698846E+03  0.28896531703E+03  0.12499891413E+03 0.  0.
          4    1    3    3  501    0 -0.25821610274E+02  0.25117433555E+02 -0.14869811967E+02  0.38991861118E+02  0.12700000000E+01 0. -1.
         -4    1    3    3    0  501  0.56351093393E+02 -0.90602119767E+01 -0.24336717649E+03  0.24997345591E+03  0.12700000000E+01 0. -1.
          2    1    1    2  502    0  0.15406903165E+01  0.40535984436E+02 -0.73603639577E+03  0.73715338680E+03  0.00000000000E+00 0. -1.
          1    1    1    2  503    0 -0.32070173435E+02 -0.56593206014E+02  0.41259001143E+03  0.41768625130E+03  0.00000000000E+00 0. -1.
<mgrwt>
<rscale>  0 0.51236966E+02</rscale>
<asrwt>0</asrwt>
<pdfrwt beam="2">  1        2 0.15580679E+00 0.40565253E+02</pdfrwt>
<pdfrwt beam="1">  1        1 0.66317046E-01 0.64716143E+02</pdfrwt>
<totfact> 0.21925803E+02</totfact>
</mgrwt>
</event>
<event>
 7    1  0.4251803E-004  0.5633821E+02  0.7546771E-02  0.1536497E+00
          3   -1    0    0  503    0 -0.00000000000E+00  0.00000000000E+00  0.12608946177E+03  0.12608946177E+03  0.00000000000E+00 0. -1.
          1   -1    0    0  502    0  0.00000000000E+00 -0.00000000000E+00 -0.21160837733E+03  0.21160837733E+03  0.00000000000E+00 0. -1.
         25    2    1    2    0    0  0.42857981661E+02 -0.53703945781E+02 -0.14946208201E+02  0.14342386559E+03  0.12500438271E+03 0.  0.
          4    1    3    3  501    0  0.48346502832E+02 -0.37754239445E+02  0.48217736221E+02  0.78034158664E+02  0.12700000000E+01 0. -1.
         -4    1    3    3    0  501 -0.54885211710E+01 -0.15949706336E+02 -0.63163944423E+02  0.65389706926E+02  0.12700000000E+01 0. -1.
          1    1    1    2  502    0 -0.19401657272E+02  0.51977502846E+02 -0.12402901025E+03  0.13587229479E+03  0.00000000000E+00 0. -1.
          3    1    1    2  503    0 -0.23456324388E+02  0.17264429345E+01  0.53456302887E+02  0.58401678720E+02  0.00000000000E+00 0. -1.
<mgrwt>
<rscale>  0 0.36401401E+02</rscale>
<asrwt>0</asrwt>
<pdfrwt beam="2">  1        1 0.32555135E-01 0.56338213E+02</pdfrwt>
<pdfrwt beam="1">  1        3 0.19398379E-01 0.23519774E+02</pdfrwt>
<totfact> 0.13462833E+03</totfact>
</mgrwt>
</event>
<event>
 7    1  0.4251803E-004  0.5490881E+02  0.7546771E-02  0.1426573E+00
          2   -1    0    0  502    0  0.00000000000E+00  0.00000000000E+00  0.48503097671E+02  0.48503097671E+02  0.00000000000E+00 0. -1.
          2   -1    0    0  503    0 -0.00000000000E+00 -0.00000000000E+00 -0.19553694960E+04  0.19553694960E+04  0.00000000000E+00 0. -1.
         25    2    1    2    0    0  0.10495743422E+02 -0.19997196498E+02 -0.62578205028E+03  0.63854292215E+03  0.12499536183E+03 0.  0.
          4    1    3    3  501    0 -0.33773001987E+02 -0.20859911321E+02 -0.66123474951E+02  0.77134158472E+02  0.12700000000E+01 0. -1.
         -4    1    3    3    0  501  0.44268745409E+02  0.86271482346E+00 -0.55965857532E+03  0.56140876368E+03  0.12700000000E+01 0. -1.
          2    1    1    2  502    0  0.45272578972E+02  0.31070425602E+02  0.23342354216E+02  0.59664422014E+02  0.00000000000E+00 0. -1.
          2    1    1    2  503    0 -0.55768322394E+02 -0.11073229105E+02 -0.13044267022E+04  0.13056652495E+04  0.00000000000E+00 0. -1.
<mgrwt>
<rscale>  0 0.53654110E+02</rscale>
<asrwt>0</asrwt>
<pdfrwt beam="1">  1        2 0.74620154E-02 0.54908813E+02</pdfrwt>
<pdfrwt beam="2">  1        2 0.30082606E+00 0.52428077E+02</pdfrwt>
<totfact> 0.11935277E+03</totfact>
</mgrwt>
</event>
<event>
 7    1  0.4251803E-004  0.5173642E+02  0.7546771E-02  0.1460705E+00
         -1   -1    0    0    0  501 -0.00000000000E+00  0.00000000000E+00  0.14785394851E+02  0.14785394851E+02  0.00000000000E+00 0.  1.
          2   -1    0    0  503    0  0.00000000000E+00 -0.00000000000E+00 -0.11135184169E+04  0.11135184169E+04  0.00000000000E+00 0. -1.
         25    2    1    2    0    0  0.67468629486E+02 -0.35247262759E+02 -0.59196749697E+03  0.60979112552E+03  0.12500125517E+03 0.  0.
          4    1    3    3  502    0  0.48995968220E+02  0.40360359441E+02 -0.34675523994E+03  0.35252003183E+03  0.12700000000E+01 0. -1.
         -4    1    3    3    0  502  0.18472661266E+02 -0.75607622200E+02 -0.24521225703E+03  0.25727109369E+03  0.12700000000E+01 0. -1.
          2    1    1    2  503    0 -0.24902719161E+02  0.42451827036E+02 -0.40484874953E+03  0.40782939207E+03  0.00000000000E+00 0. -1.
         -1    1    1    2    0  501 -0.42565910325E+02 -0.72045642773E+01 -0.10191677552E+03  0.11068329414E+03  0.00000000000E+00 0.  1.
<mgrwt>
<rscale>  0 0.47260232E+02</rscale>
<asrwt>0</asrwt>
<pdfrwt beam="2">  1        2 0.17131053E+00 0.51736424E+02</pdfrwt>
<pdfrwt beam="1">  1       -1 0.22746761E-02 0.43171315E+02</pdfrwt>
<totfact> 0.12639931E+04</totfact>
</mgrwt>
</event>
<event>
 7    1  0.4251803E-004  0.2548938E+03  0.7546771E-02  0.1183086E+00
          3   -1    0    0  503    0 -0.00000000000E+00  0.00000000000E+00  0.23257769663E+03  0.23257769663E+03  0.00000000000E+00 0. -1.
          2   -1    0    0  502    0  0.00000000000E+00 -0.00000000000E+00 -0.25480888220E+04  0.25480888220E+04  0.00000000000E+00 0. -1.
         25    2    1    2    0    0 -0.16080452515E+03 -0.46865933409E+02 -0.19367916510E+03  0.28494136006E+03  0.12500179460E+03 0.  0.
          4    1    3    3  501    0  0.20928441402E+02 -0.11234985554E+02 -0.23058005600E+02  0.33128674621E+02  0.12700000000E+01 0. -1.
         -4    1    3    3    0  501 -0.18173296655E+03 -0.35630947854E+02 -0.17062115950E+03  0.25181268544E+03  0.12700000000E+01 0. -1.
          2    1    1    2  502    0  0.24694576816E+03  0.11017515146E+03 -0.22848419919E+04  0.23007876270E+04  0.00000000000E+00 0. -1.
          3    1    1    2  503    0 -0.86141243016E+02 -0.63309218056E+02  0.16301003161E+03  0.19493753165E+03  0.00000000000E+00 0. -1.
<mgrwt>
<rscale>  0 0.16507286E+03</rscale>
<asrwt>0</asrwt>
<pdfrwt beam="2">  1        2 0.39201367E+00 0.25489376E+03</pdfrwt>
<pdfrwt beam="1">  1        3 0.35781184E-01 0.10690356E+03</pdfrwt>
<totfact> 0.17525243E+01</totfact>
</mgrwt>
</event>
<event>
 7    1  0.4251803E-004  0.6012862E+02  0.7546771E-02  0.1528883E+00
         -2   -1    0    0    0  501 -0.00000000000E+00  0.00000000000E+00  0.18152320405E+03  0.18152320405E+03  0.00000000000E+00 0.  1.
          1   -1    0    0  503    0  0.00000000000E+00 -0.00000000000E+00 -0.81690437832E+03  0.81690437832E+03  0.00000000000E+00 0. -1.
         25    2    1    2    0    0 -0.22378902262E+02  0.38273721787E+02 -0.28087710075E+03  0.31061606843E+03  0.12499881276E+03 0.  0.
          4    1    3    3  502    0 -0.45128597714E+01  0.71433474814E+01  0.12449138887E+02  0.15099247517E+02  0.12700000000E+01 0.  1.
         -4    1    3    3    0  502 -0.17866042491E+02  0.31130374305E+02 -0.29332623964E+03  0.29551682091E+03  0.12700000000E+01 0.  1.
          1    1    1    2  503    0  0.45050943718E+02 -0.43042234001E+02 -0.51847825636E+03  0.52220869751E+03  0.00000000000E+00 0. -1.
         -2    1    1    2    0  501 -0.22672041455E+02  0.47685122142E+01  0.16397418284E+03  0.16560281644E+03  0.00000000000E+00 0.  1.
<mgrwt>
<rscale>  0 0.37323784E+02</rscale>
<asrwt>0</asrwt>
<pdfrwt beam="2">  1        1 0.12567760E+00 0.60128615E+02</pdfrwt>
<pdfrwt beam="1">  1       -2 0.27926647E-01 0.23168085E+02</pdfrwt>
<totfact> 0.23117653E+02</totfact>
</mgrwt>
</event>
<event>
 7    1  0.4251803E-004  0.7301141E+02  0.7546771E-02  0.1489745E+00
          2   -1    0    0  502    0  0.00000000000E+00  0.00000000000E+00  0.19533024967E+04  0.19533024967E+04  0.00000000000E+00 0. -1.
          2   -1    0    0  503    0 -0.00000000000E+00 -0.00000000000E+00 -0.23283895212E+03  0.23283895212E+03  0.00000000000E+00 0. -1.
         25    2    1    2    0    0  0.49034890657E+02  0.19770652533E+02  0.31599075933E+02  0.13934295529E+03  0.12499063319E+03 0.  0.
          4    1    3    3  501    0  0.52180136258E+02  0.37726455192E+02 -0.32890150861E+02  0.72314776947E+02  0.12700000000E+01 0.  1.
         -4    1    3    3    0  501 -0.31452456008E+01 -0.17955802659E+02  0.64489226793E+02  0.67028178339E+02  0.12700000000E+01 0.  1.
          2    1    1    2  502    0 -0.72425399809E+02 -0.11280351230E+02  0.18662435827E+04  0.18676824663E+04  0.00000000000E+00 0. -1.
          2    1    1    2  503    0  0.23390509152E+02 -0.84903013031E+01 -0.17737911404E+03  0.17911602729E+03  0.00000000000E+00 0. -1.
<mgrwt>
<rscale>  0 0.42623911E+02</rscale>
<asrwt>0</asrwt>
<pdfrwt beam="1">  1        2 0.30050807E+00 0.73011408E+02</pdfrwt>
<pdfrwt beam="2">  1        2 0.35821379E-01 0.24883752E+02</pdfrwt>
<totfact> 0.19281886E+02</totfact>
</mgrwt>
</event>
<event>
 7    1  0.7883740E-004  0.9351985E+02  0.7546771E-02  0.1379700E+00
          1   -1    0    0  503    0  0.00000000000E+00  0.00000000000E+00  0.10200600519E+04  0.10200600519E+04  0.00000000000E+00 0. -1.
         -2   -1    0    0    0  501 -0.00000000000E+00 -0.00000000000E+00 -0.29013259038E+02  0.29013259038E+02  0.00000000000E+00 0.  1.
         25    2    1    2    0    0 -0.78214112191E+02  0.68012147608E+02  0.80603859153E+03  0.82223220308E+03  0.12499794068E+03 0.  0.
          4    1    3    3  502    0  0.23758370638E+02  0.62882182890E+01  0.39925119519E+02  0.46900212508E+02  0.12700000000E+01 0.  1.
         -4    1    3    3    0  502 -0.10197248283E+03  0.61723929319E+02  0.76611347201E+03  0.77533199057E+03  0.12700000000E+01 0.  1.
          1    1    1    2  503    0  0.34513509444E+02 -0.76639558614E+02  0.14145636717E+03  0.16454393970E+03  0.00000000000E+00 0. -1.
         -2    1    1    2    0  501  0.43700602747E+02  0.86274110063E+01  0.43551834134E+02  0.62297168134E+02  0.00000000000E+00 0.  1.
<mgrwt>
<rscale>  0 0.64542665E+02</rscale>
<asrwt>0</asrwt>
<pdfrwt beam="1">  1        1 0.15693229E+00 0.93519852E+02</pdfrwt>
<pdfrwt beam="2">  1       -2 0.44635791E-02 0.44544078E+02</pdfrwt>
<totfact> 0.28283379E+03</totfact>
</mgrwt>
</event>
<event>
 7    1  0.4251803E-004  0.4691333E+02  0.7546771E-02  0.1492766E+00
          2   -1    0    0  503    0  0.00000000000E+00  0.00000000000E+00  0.49222378094E+03  0.49222378094E+03  0.00000000000E+00 0. -1.
         -1   -1    0    0    0  501 -0.00000000000E+00 -0.00000000000E+00 -0.49577172996E+02  0.49577172996E+02  0.00000000000E+00 0.  1.
         25    2    1    2    0    0 -0.11656066901E+02  0.48625273099E+02  0.42475622559E+03  0.44558198297E+03  0.12500068517E+03 0.  0.
          4    1    3    3  502    0 -0.40562790339E+02 -0.23920794501E+02  0.87234109046E+02  0.99141046245E+02  0.12700000000E+01 0.  1.
         -4    1    3    3    0  502  0.28906723437E+02  0.72546067600E+02  0.33752211654E+03  0.34644093672E+03  0.12700000000E+01 0.  1.
          2    1    1    2  503    0 -0.29068938371E+02 -0.24352482947E+02  0.28741978009E+02  0.47583063201E+02  0.00000000000E+00 0. -1.
         -1    1    1    2    0  501  0.40725005272E+02 -0.24272790152E+02 -0.10851595651E+02  0.48635907767E+02  0.00000000000E+00 0.  1.
<mgrwt>
<rscale>  0 0.42178522E+02</rscale>
<asrwt>0</asrwt>
<pdfrwt beam="1">  1        2 0.75726732E-01 0.37921585E+02</pdfrwt>
<pdfrwt beam="2">  1       -1 0.76272577E-02 0.46913328E+02</pdfrwt>
<totfact> 0.59750740E+03</totfact>
</mgrwt>
</event>
<event>
 7    1  0.4251803E-004  0.1564335E+03  0.7546771E-02  0.1259773E+00
         -1   -1    0    0    0  501  0.00000000000E+00  0.00000000000E+00  0.59392433815E+03  0.59392433815E+03  0.00000000000E+00 0.  1.
         -3   -1    0    0    0  502 -0.00000000000E+00 -0.00000000000E+00 -0.79944770776E+03  0.79944770776E+03  0.00000000000E+00 0.  1.
         25    2    1    2    0    0 -0.13231730239E+03  0.18089218583E+02 -0.38960530915E+03  0.43041060849E+03  0.12500362652E+03 0.  0.
          4    1    3    3  503    0 -0.11967413365E+03  0.62197056668E+02 -0.25974105881E+03  0.29267285944E+03  0.12700000000E+01 0. -1.
         -4    1    3    3    0  503 -0.12643168739E+02 -0.44107838085E+02 -0.12986425034E+03  0.13773774905E+03  0.12700000000E+01 0. -1.
         -1    1    1    2    0  501 -0.50192338433E+02 -0.59648979665E+02  0.54811131157E+03  0.55362738505E+03  0.00000000000E+00 0.  1.
         -3    1    1    2    0  502  0.18250964082E+03  0.41559761082E+02 -0.36402937203E+03  0.40933405237E+03  0.00000000000E+00 0.  1.
<mgrwt>
<rscale>  0 0.11043128E+03</rscale>
<asrwt>0</asrwt>
<pdfrwt beam="1">  1       -1 0.91372975E-01 0.77956857E+02</pdfrwt>
<pdfrwt beam="2">  1       -3 0.12299195E+00 0.15643354E+03</pdfrwt>
<totfact> 0.32861671E+00</totfact>
</mgrwt>
</event>
<event>
 7    1  0.4251803E-004  0.1920487E+03  0.7546771E-02  0.1326945E+00
         -1   -1    0    0    0  501  0.00000000000E+00  0.00000000000E+00  0.12217641604E+03  0.12217641604E+03  0.00000000000E+00 0.  1.
         -1   -1    0    0    0  502 -0.00000000000E+00 -0.00000000000E+00 -0.50437823248E+03  0.50437823248E+03  0.00000000000E+00 0.  1.
         25    2    1    2    0    0  0.18737060337E+03 -0.90278769757E+02 -0.15049810607E+03  0.28554910410E+03  0.12502244458E+03 0.  0.
          4    1    3    3  503    0 -0.17321789887E+02 -0.77748940189E+00 -0.21221478191E+02  0.27433791777E+02  0.12700000000E+01 0. -1.
         -4    1    3    3    0  503  0.20469239325E+03 -0.89501280356E+02 -0.12927662788E+03  0.25811531233E+03  0.12700000000E+01 0. -1.
         -1    1    1    2    0  502 -0.16785082389E+02  0.29510423391E+02 -0.12778965636E+03  0.13222254102E+03  0.00000000000E+00 0.  1.
         -1    1    1    2    0  501 -0.17058552098E+03  0.60768346366E+02 -0.10391405401E+03  0.20878300340E+03  0.00000000000E+00 0.  1.
<mgrwt>
<rscale>  0 0.80746870E+02</rscale>
<asrwt>0</asrwt>
<pdfrwt beam="1">  1       -1 0.18796372E-01 0.19204868E+03</pdfrwt>
<pdfrwt beam="2">  1       -1 0.77596651E-01 0.33950023E+02</pdfrwt>
<totfact> 0.34359693E+02</totfact>
</mgrwt>
</event>
<event>
 7    1  0.4251803E-004  0.4080894E+02  0.7546771E-02  0.1543959E+00
         -1   -1    0    0    0  501 -0.00000000000E+00  0.00000000000E+00  0.27637522452E+02  0.27637522452E+02  0.00000000000E+00 0.  1.
          2   -1    0    0  503    0  0.00000000000E+00 -0.00000000000E+00 -0.45418817651E+03  0.45418817651E+03  0.00000000000E+00 0. -1.
         25    2    1    2    0    0  0.28699582967E+02  0.51353041835E+01 -0.32203149441E+03  0.34666640225E+03  0.12499309439E+03 0.  0.
          4    1    3    3  502    0  0.16908733503E+02 -0.56871755501E+02 -0.20828941572E+03  0.21657884348E+03  0.12700000000E+01 0. -1.
         -4    1    3    3    0  502  0.11790849463E+02  0.62007059684E+02 -0.11374207869E+03  0.13008755877E+03  0.12700000000E+01 0. -1.
          2    1    1    2  503    0  0.62137705980E+01 -0.30300332015E+02 -0.79669042853E+02  0.85462725526E+02  0.00000000000E+00 0. -1.
         -1    1    1    2    0  501 -0.34913353565E+02  0.25165027832E+02 -0.24850116794E+02  0.49696571185E+02  0.00000000000E+00 0.  1.
<mgrwt>
<rscale>  0 0.35528262E+02</rscale>
<asrwt>0</asrwt>
<pdfrwt beam="2">  1        2 0.69875097E-01 0.30930908E+02</pdfrwt>
<pdfrwt beam="1">  1       -1 0.42519270E-02 0.40808936E+02</pdfrwt>
<totfact> 0.14826407E+04</totfact>
</mgrwt>
</event>
<event>
 7    1  0.4251803E-004  0.5181761E+02  0.7546771E-02  0.1488049E+00
          2   -1    0    0  502    0  0.00000000000E+00  0.00000000000E+00  0.24613921684E+04  0.24613921684E+04  0.00000000000E+00 0. -1.
          1   -1    0    0  503    0 -0.00000000000E+00 -0.00000000000E+00 -0.97983251555E+03  0.97983251555E+03  0.00000000000E+00 0. -1.
         25    2    1    2    0    0 -0.76806393517E+02  0.57740065239E+00 -0.61334803399E+03  0.63065453486E+03  0.12501910282E+03 0.  0.
          4    1    3    3  501    0 -0.90674550343E+02 -0.23761675307E+02 -0.26340004746E+03  0.27958485151E+03  0.12700000000E+01 0. -1.
         -4    1    3    3    0  501  0.13868156826E+02  0.24339075960E+02 -0.34994798653E+03  0.35106968335E+03  0.12700000000E+01 0. -1.
          2    1    1    2  502    0  0.47530024005E+02 -0.20617964891E+02  0.24515851381E+04  0.24521325195E+04  0.00000000000E+00 0. -1.
          1    1    1    2  503    0  0.29276369512E+02  0.20040564238E+02 -0.35667745131E+03  0.35843762958E+03  0.00000000000E+00 0. -1.
<mgrwt>
<rscale>  0 0.42876747E+02</rscale>
<asrwt>0</asrwt>
<pdfrwt beam="1">  1        2 0.37867572E+00 0.51817608E+02</pdfrwt>
<pdfrwt beam="2">  1        1 0.15074346E+00 0.35478585E+02</pdfrwt>
<totfact> 0.13582469E+01</totfact>
</mgrwt>
</event>
<event>
 7    1  0.4251803E-004  0.2383707E+03  0.7546771E-02  0.1236673E+00
          2   -1    0    0  502    0  0.00000000000E+00  0.00000000000E+00  0.10452098271E+03  0.10452098271E+03  0.00000000000E+00 0. -1.
          1   -1    0    0  503    0 -0.00000000000E+00 -0.00000000000E+00 -0.23915160036E+04  0.23915160036E+04  0.00000000000E+00 0. -1.
         25    2    1    2    0    0 -0.21891545317E+03  0.14213962034E+03 -0.78816195774E+03  0.83961433489E+03  0.12500124964E+03 0.  0.
          4    1    3    3  501    0 -0.67327971763E+01  0.50104879222E+02 -0.22878912529E+03  0.23431155804E+03  0.12700000000E+01 0. -1.
         -4    1    3    3    0  501 -0.21218265599E+03  0.92034741121E+02 -0.55937283245E+03  0.60530277685E+03  0.12700000000E+01 0. -1.
          2    1    1    2  502    0 -0.25319593679E+00 -0.64482650104E+02  0.55326662548E+02  0.84965380370E+02  0.00000000000E+00 0. -1.
          1    1    1    2  503    0  0.21916864910E+03 -0.77656970238E+02 -0.15541597257E+04  0.15714572711E+04  0.00000000000E+00 0. -1.
<mgrwt>
<rscale>  0 0.12397941E+03</rscale>
<asrwt>0</asrwt>
<pdfrwt beam="1">  1        2 0.16080152E-01 0.64483147E+02</pdfrwt>
<pdfrwt beam="2">  1        1 0.36792551E+00 0.23837071E+03</pdfrwt>
<totfact> 0.87440618E+01</totfact>
</mgrwt>
</event>
<event>
 7    1  0.4251803E-004  0.1189510E+03  0.7546771E-02  0.1311301E+00
          2   -1    0    0  502    0  0.00000000000E+00  0.00000000000E+00  0.74130538311E+03  0.74130538311E+03  0.00000000000E+00 0. -1.
          2   -1    0    0  503    0 -0.00000000000E+00 -0.00000000000E+00 -0.54396329386E+03  0.54396329386E+03  0.00000000000E+00 0. -1.
         25    2    1    2    0    0  0.94478503097E+02  0.64350152602E+02  0.14760314035E+03  0.22468007726E+03  0.12500928121E+03 0.  0.
          4    1    3    3  501    0  0.11197145870E+03  0.75363011155E+02  0.15223774345E+03  0.20345794270E+03  0.12700000000E+01 0.  1.
         -4    1    3    3    0  501 -0.17492955608E+02 -0.11012858553E+02 -0.46346031026E+01  0.21222134561E+02  0.12700000000E+01 0.  1.
          2    1    1    2  502    0 -0.51738286672E+02 -0.11069909291E+03  0.54642304959E+03  0.55991900182E+03  0.00000000000E+00 0. -1.
          2    1    1    2  503    0 -0.42740216424E+02  0.46348940306E+02 -0.49668410069E+03  0.50066959789E+03  0.00000000000E+00 0. -1.
<mgrwt>
<rscale>  0 0.86599835E+02</rscale>
<asrwt>0</asrwt>
<pdfrwt beam="1">  1        2 0.11404698E+00 0.11895105E+03</pdfrwt>
<pdfrwt beam="2">  1        2 0.83686660E-01 0.63047207E+02</pdfrwt>
<totfact> 0.36273564E+02</totfact>
</mgrwt>
</event>
<event>
 7    1  0.4251803E-004  0.9107008E+02  0.7546771E-02  0.1424780E+00
          2   -1    0    0  503    0  0.00000000000E+00  0.00000000000E+00  0.80229481723E+03  0.80229481723E+03  0.00000000000E+00 0. -1.
         -2   -1    0    0    0  501 -0.00000000000E+00 -0.00000000000E+00 -0.77395261901E+02  0.77395261901E+02  0.00000000000E+00 0.  1.
         25    2    1    2    0    0  0.99751126491E+02 -0.57889688914E+01  0.49484508537E+03  0.52007670909E+03  0.12499730164E+03 0.  0.
          4    1    3    3  502    0  0.15663797417E+02  0.37143805432E+02  0.44999248375E+02  0.60428156399E+02  0.12700000000E+01 0.  1.
         -4    1    3    3    0  502  0.84087329075E+02 -0.42932774324E+02  0.44984583700E+03  0.45964855269E+03  0.12700000000E+01 0.  1.
          2    1    1    2  503    0 -0.81887051365E+02  0.32393650161E+02  0.28373974451E+03  0.29709103044E+03  0.00000000000E+00 0. -1.
         -2    1    1    2    0  501 -0.17864075126E+02 -0.26604681270E+02 -0.53685274557E+02  0.62522339606E+02  0.00000000000E+00 0.  1.
<mgrwt>
<rscale>  0 0.54022355E+02</rscale>
<asrwt>0</asrwt>
<pdfrwt beam="1">  1        2 0.12342997E+00 0.91070077E+02</pdfrwt>
<pdfrwt beam="2">  1       -2 0.11906964E-01 0.32045815E+02</pdfrwt>
<totfact> 0.16129299E+03</totfact>
</mgrwt>
</event>
<event>
 7    1  0.4251803E-004  0.1219859E+03  0.7546771E-02  0.1256793E+00
          1   -1    0    0  503    0 -0.00000000000E+00  0.00000000000E+00  0.68695615012E+03  0.68695615012E+03  0.00000000000E+00 0. -1.
          2   -1    0    0  502    0  0.00000000000E+00 -0.00000000000E+00 -0.19827318217E+04  0.19827318217E+04  0.00000000000E+00 0. -1.
         25    2    1    2    0    0  0.79379215273E+02  0.16939714503E+03  0.18990368323E+03  0.29442563036E+03  0.12500636122E+03 0.  0.
          4    1    3    3  501    0  0.86579739704E+02  0.18649848986E+03  0.18040239984E+03  0.27354044822E+03  0.12700000000E+01 0.  1.
         -4    1    3    3    0  501 -0.72005244309E+01 -0.17101344823E+02  0.95012833841E+01  0.20885182134E+02  0.12700000000E+01 0.  1.
          2    1    1    2  502    0  0.14285164318E+02 -0.10195521319E+03 -0.19215821776E+04  0.19243380672E+04  0.00000000000E+00 0. -1.
          1    1    1    2  503    0 -0.93664379591E+02 -0.67441931841E+02  0.43590282283E+03  0.45092427427E+03  0.00000000000E+00 0. -1.
<mgrwt>
<rscale>  0 0.11206511E+03</rscale>
<asrwt>0</asrwt>
<pdfrwt beam="2">  1        2 0.30503566E+00 0.10295111E+03</pdfrwt>
<pdfrwt beam="1">  1        1 0.10568556E+00 0.12198594E+03</pdfrwt>
<totfact> 0.34487799E+01</totfact>
</mgrwt>
</event>
<event>
 7    1  0.4251803E-004  0.3098161E+02  0.7546771E-02  0.1624106E+00
         -1   -1    0    0    0  501 -0.00000000000E+00  0.00000000000E+00  0.86338980689E+03  0.86338980689E+03  0.00000000000E+00 0.  1.
          2   -1    0    0  503    0  0.00000000000E+00 -0.00000000000E+00 -0.17767793146E+02  0.17767793146E+02  0.00000000000E+00 0. -1.
         25    2    1    2    0    0 -0.56546637753E+01 -0.20780990829E+02  0.75542393901E+03  0.76599866696E+03  0.12499922142E+03 0.  0.
          4    1    3    3  502    0 -0.49430786215E+02 -0.18743264091E+02  0.15109087093E+03  0.16007740863E+03  0.12700000000E+01 0. -1.
         -4    1    3    3    0  502  0.43776122440E+02 -0.20377267385E+01  0.60433306808E+03  0.60592125833E+03  0.12700000000E+01 0. -1.
          2    1    1    2  503    0  0.13182401790E+02 -0.21118634403E+02  0.15931295188E+02  0.29556363145E+02  0.00000000000E+00 0. -1.
         -1    1    1    2    0  501 -0.75277380142E+01  0.41899625232E+02  0.74266779544E+02  0.85602569927E+02  0.00000000000E+00 0.  1.
<mgrwt>
<rscale>  0 0.27772186E+02</rscale>
<asrwt>0</asrwt>
<pdfrwt beam="2">  1        2 0.27335073E-02 0.24895229E+02</pdfrwt>
<pdfrwt beam="1">  1       -1 0.13282917E+00 0.30981611E+02</pdfrwt>
<totfact> 0.17742909E+03</totfact>
</mgrwt>
</event>
<event>
 7    1  0.4251803E-004  0.1504201E+03  0.7546771E-02  0.1207425E+00
         -2   -1    0    0    0  501 -0.00000000000E+00  0.00000000000E+00  0.18928562546E+03  0.18928562546E+03  0.00000000000E+00 0.  1.
          2   -1    0    0  503    0  0.00000000000E+00 -0.00000000000E+00 -0.18527646161E+04  0.18527646161E+04  0.00000000000E+00 0. -1.
         25    2    1    2    0    0  0.12282111374E+03 -0.12890471246E+02 -0.22063319382E+03  0.28204570896E+03  0.12497834011E+03 0.  0.
          4    1    3    3  502    0  0.99556403109E+02 -0.16361628952E+02 -0.55334464862E+02  0.11507691429E+03  0.12700000000E+01 0.  1.
         -4    1    3    3    0  502  0.23264710631E+02  0.34711577057E+01 -0.16529872896E+03  0.16696879467E+03  0.12700000000E+01 0.  1.
          2    1    1    2  503    0 -0.17364269447E+02  0.13768410853E+03 -0.15554158304E+04  0.15615943253E+04  0.00000000000E+00 0. -1.
         -2    1    1    2    0  501 -0.10545684429E+03 -0.12479363728E+03  0.11257003351E+03  0.19841020729E+03  0.00000000000E+00 0.  1.
<mgrwt>
<rscale>  0 0.14448014E+03</rscale>
<asrwt>0</asrwt>
<pdfrwt beam="2">  1        2 0.28504071E+00 0.13877475E+03</pdfrwt>
<pdfrwt beam="1">  1       -2 0.29120865E-01 0.15042010E+03</pdfrwt>
<totfact> 0.10220816E+02</totfact>
</mgrwt>
</event>
<event>
 7    1  0.4251803E-004  0.1197028E+03  0.7546771E-02  0.1399187E+00
          2   -1    0    0  502    0  0.00000000000E+00  0.00000000000E+00  0.15583030449E+04  0.15583030449E+04  0.00000000000E+00 0. -1.
          2   -1    0    0  503    0 -0.00000000000E+00 -0.00000000000E+00 -0.15325188485E+04  0.15325188485E+04  0.00000000000E+00 0. -1.
         25    2    1    2    0    0  0.10052171335E+03 -0.85185716277E+01  0.46089052453E+03  0.48808270876E+03  0.12500989588E+03 0.  0.
          4    1    3    3  501    0  0.88225586441E+02 -0.54341634000E+02  0.22856441730E+03  0.25095830938E+03  0.12700000000E+01 0. -1.
         -4    1    3    3    0  501  0.12296126913E+02  0.45823062372E+02  0.23232610723E+03  0.23712439939E+03  0.12700000000E+01 0. -1.
          2    1    1    2  502    0 -0.12463858388E+03 -0.89056089465E+01  0.10800682523E+04  0.10872725124E+04  0.00000000000E+00 0. -1.
          2    1    1    2  503    0  0.24116870526E+02  0.17424180574E+02 -0.15151745804E+04  0.15154666723E+04  0.00000000000E+00 0. -1.
<mgrwt>
<rscale>  0 0.59678192E+02</rscale>
<asrwt>0</asrwt>
<pdfrwt beam="1">  1        2 0.23973893E+00 0.11970281E+03</pdfrwt>
<pdfrwt beam="2">  1        2 0.23577213E+00 0.29752740E+02</pdfrwt>
<totfact> 0.33633932E+01</totfact>
</mgrwt>
</event>
<event>
 7    1  0.4251803E-004  0.9142995E+02  0.7546771E-02  0.1362392E+00
          2   -1    0    0  502    0  0.00000000000E+00  0.00000000000E+00  0.21226183348E+04  0.21226183348E+04  0.00000000000E+00 0. -1.
          1   -1    0    0  503    0 -0.00000000000E+00 -0.00000000000E+00 -0.66988174325E+03  0.66988174325E+03  0.00000000000E+00 0. -1.
         25    2    1    2    0    0  0.12763805617E+03 -0.19221050780E+02  0.10061595795E+03  0.20593494189E+03  0.12499882847E+03 0.  0.
          4    1    3    3  501    0  0.18195831104E+02 -0.16328519687E+01  0.93037203142E+02  0.94822405283E+02  0.12700000000E+01 0.  1.
         -4    1    3    3    0  501  0.10944222507E+03 -0.17588198811E+02  0.75787548067E+01  0.11111253660E+03  0.12700000000E+01 0.  1.
          2    1    1    2  502    0 -0.47282815757E+02 -0.22975733077E+02  0.19656530328E+04  0.19663558666E+04  0.00000000000E+00 0. -1.
          1    1    1    2  503    0 -0.80355240418E+02  0.42196783857E+02 -0.61353239916E+03  0.62020926956E+03  0.00000000000E+00 0. -1.
<mgrwt>
<rscale>  0 0.69328377E+02</rscale>
<asrwt>0</asrwt>
<pdfrwt beam="1">  1        2 0.32655666E+00 0.52569468E+02</pdfrwt>
<pdfrwt beam="2">  1        1 0.10305873E+00 0.91429952E+02</pdfrwt>
<totfact> 0.33256836E+01</totfact>
</mgrwt>
</event>
<event>
 7    1  0.4251803E-004  0.5216314E+02  0.7546771E-02  0.1451383E+00
         -1   -1    0    0    0  501 -0.00000000000E+00  0.00000000000E+00  0.49276923903E+02  0.49276923903E+02  0.00000000000E+00 0.  1.
          1   -1    0    0  503    0  0.00000000000E+00 -0.00000000000E+00 -0.23119481573E+04  0.23119481573E+04  0.00000000000E+00 0. -1.
         25    2    1    2    0    0  0.12006644711E+02 -0.77356075451E+02 -0.23762365571E+03  0.27967420713E+03  0.12499815381E+03 0.  0.
          4    1    3    3  502    0 -0.35697893314E+02  0.13831328314E+02 -0.10521322723E+03  0.11196910875E+03  0.12700000000E+01 0. -1.
         -4    1    3    3    0  502  0.47704538025E+02 -0.91187403765E+02 -0.13241042848E+03  0.16770509838E+03  0.12700000000E+01 0. -1.
          1    1    1    2  503    0 -0.33529339822E+02  0.31251897979E+02 -0.20299202092E+04  0.20304376261E+04  0.00000000000E+00 0. -1.
         -1    1    1    2    0  501  0.21522695111E+02  0.46104177472E+02  0.48726314692E+01  0.51113248015E+02  0.00000000000E+00 0.  1.
<mgrwt>
<rscale>  0 0.48897100E+02</rscale>
<asrwt>0</asrwt>
<pdfrwt beam="2">  1        1 0.35568436E+00 0.45835551E+02</pdfrwt>
<pdfrwt beam="1">  1       -1 0.75810647E-02 0.52163142E+02</pdfrwt>
<totfact> 0.22343267E+02</totfact>
</mgrwt>
</event>
<event>
 7    1  0.4251803E-004  0.1428509E+03  0.7546771E-02  0.1304617E+00
          2   -1    0    0  502    0  0.00000000000E+00  0.00000000000E+00  0.11498437219E+03  0.11498437219E+03  0.00000000000E+00 0. -1.
          2   -1    0    0  503    0 -0.00000000000E+00 -0.00000000000E+00 -0.10776126582E+04  0.10776126582E+04  0.00000000000E+00 0. -1.
         25    2    1    2    0    0  0.10741113751E+03 -0.47958318741E+02 -0.16391573237E+03  0.23734165489E+03  0.12500216411E+03 0.  0.
          4    1    3    3  501    0  0.67623311532E+02 -0.90606438488E+02 -0.11400420408E+03  0.16056466114E+03  0.12700000000E+01 0. -1.
         -4    1    3    3    0  501  0.39787825973E+02  0.42648119747E+02 -0.49911528282E+02  0.76776993749E+02  0.12700000000E+01 0. -1.
          2    1    1    2  502    0 -0.13872871162E+01 -0.55775150800E+02  0.61100920112E+02  0.82741249995E+02  0.00000000000E+00 0. -1.
          2    1    1    2  503    0 -0.10602385039E+03  0.10373346954E+03 -0.85981347375E+03  0.87251412550E+03  0.00000000000E+00 0. -1.
<mgrwt>
<rscale>  0 0.89274815E+02</rscale>
<asrwt>0</asrwt>
<pdfrwt beam="1">  1        2 0.17689903E-01 0.55792401E+02</pdfrwt>
<pdfrwt beam="2">  1        2 0.16578657E+00 0.14285086E+03</pdfrwt>
<totfact> 0.11347794E+03</totfact>
</mgrwt>
</event>
<event>
 7    1  0.4251803E-004  0.9115885E+02  0.7546771E-02  0.1336000E+00
         -3   -1    0    0    0  502 -0.00000000000E+00  0.00000000000E+00  0.47970755463E+03  0.47970755463E+03  0.00000000000E+00 0.  1.
         -2   -1    0    0    0  501  0.00000000000E+00 -0.00000000000E+00 -0.26026193078E+03  0.26026193078E+03  0.00000000000E+00 0.  1.
         25    2    1    2    0    0 -0.31193587290E+02 -0.35932644564E+01  0.86092344659E+02  0.15499473894E+03  0.12500210339E+03 0.  0.
          4    1    3    3  503    0 -0.66994681161E+02 -0.39290346576E+02  0.44535022814E+02  0.89537700411E+02  0.12700000000E+01 0.  1.
         -4    1    3    3    0  503  0.35801093871E+02  0.35697082119E+02  0.41557321845E+02  0.65457038530E+02  0.12700000000E+01 0.  1.
         -2    1    1    2    0  501  0.91184219885E+02  0.31252080632E+02 -0.21225128377E+03  0.23311341008E+03  0.00000000000E+00 0.  1.
         -3    1    1    2    0  502 -0.59990632594E+02 -0.27658816176E+02  0.34560456296E+03  0.35186133639E+03  0.00000000000E+00 0.  1.
<mgrwt>
<rscale>  0 0.77601081E+02</rscale>
<asrwt>0</asrwt>
<pdfrwt beam="2">  1       -2 0.40040297E-01 0.91158850E+02</pdfrwt>
<pdfrwt beam="1">  1       -3 0.73801162E-01 0.66059716E+02</pdfrwt>
<totfact> 0.40584750E+01</totfact>
</mgrwt>
</event>
<event>
 7    1  0.4251803E-004  0.1129980E+03  0.7546771E-02  0.1259199E+00
          1   -1    0    0  503    0 -0.00000000000E+00  0.00000000000E+00  0.16844285654E+04  0.16844285654E+04  0.00000000000E+00 0. -1.
          2   -1    0    0  502    0  0.00000000000E+00 -0.00000000000E+00 -0.18030539192E+03  0.18030539192E+03  0.00000000000E+00 0.  1.
         25    2    1    2    0    0 -0.23375497858E+01  0.82932887744E+02  0.80912244113E+03  0.82291373087E+03  0.12499822282E+03 0.  0.
          4    1    3    3  501    0  0.37672776669E+02 -0.45292832319E+01  0.94407914986E+02  0.10175568692E+03  0.12700000000E+01 0.  1.
         -4    1    3    3    0  501 -0.40010326454E+02  0.87462170976E+02  0.71471452614E+03  0.72115804395E+03  0.12700000000E+01 0.  1.
          2    1    1    2  502    0  0.10475077442E+03 -0.47001139191E+02 -0.15054940866E+03  0.18933292443E+03  0.00000000000E+00 0.  1.
          1    1    1    2  503    0 -0.10241322464E+03 -0.35931748553E+02  0.84555014106E+03  0.85248730207E+03  0.00000000000E+00 0. -1.
<mgrwt>
<rscale>  0 0.11074334E+03</rscale>
<asrwt>0</asrwt>
<pdfrwt beam="2">  1        2 0.27739292E-01 0.11299799E+03</pdfrwt>
<pdfrwt beam="1">  1        1 0.25914285E+00 0.10853368E+03</pdfrwt>
<totfact> 0.15206883E+02</totfact>
</mgrwt>
</event>
<event>
 7    1  0.4251803E-004  0.9662210E+02  0.7546771E-02  0.1355350E+00
         -2   -1    0    0    0  501 -0.00000000000E+00  0.00000000000E+00  0.33604167262E+02  0.33604167262E+02  0.00000000000E+00 0.  1.
          2   -1    0    0  503    0  0.00000000000E+00 -0.00000000000E+00 -0.18567384942E+04  0.18567384942E+04  0.00000000000E+00 0. -1.
         25    2    1    2    0    0 -0.27096296399E+02 -0.13978157636E+03 -0.61497164533E+03  0.64349733040E+03  0.12500236518E+03 0.  0.
          4    1    3    3  502    0 -0.31554628803E+02 -0.27389570049E+02 -0.38733400439E+03  0.38958327351E+03  0.12700000000E+01 0. -1.
         -4    1    3    3    0  502  0.44583324041E+01 -0.11239200631E+03 -0.22763764095E+03  0.25391405689E+03  0.12700000000E+01 0. -1.
          2    1    1    2  503    0  0.27044254976E+02  0.86999394146E+02 -0.11861715319E+04  0.11896651585E+04  0.00000000000E+00 0. -1.
         -2    1    1    2    0  501  0.52041422565E-01  0.52782182211E+02 -0.21991149718E+02  0.57180172553E+02  0.00000000000E+00 0.  1.
<mgrwt>
<rscale>  0 0.71413779E+02</rscale>
<asrwt>0</asrwt>
<pdfrwt beam="2">  1        2 0.28565200E+00 0.96622100E+02</pdfrwt>
<pdfrwt beam="1">  1       -2 0.51698732E-02 0.52782208E+02</pdfrwt>
<totfact> 0.15666877E+03</totfact>
</mgrwt>
</event>
<event>
 7    1  0.4251803E-004  0.4627867E+02  0.7546771E-02  0.1501660E+00
          2   -1    0    0  502    0  0.00000000000E+00  0.00000000000E+00  0.34373635631E+04  0.34373635631E+04  0.00000000000E+00 0. -1.
          3   -1    0    0  503    0 -0.00000000000E+00 -0.00000000000E+00 -0.72487123738E+02  0.72487123738E+02  0.00000000000E+00 0. -1.
         25    2    1    2    0    0  0.21835268109E+02 -0.30249219437E+02  0.18306973279E+04  0.18353392969E+04  0.12500333722E+03 0.  0.
          4    1    3    3  501    0  0.61036414060E+02 -0.50165799772E+02  0.85272838842E+03  0.85638155551E+03  0.12700000000E+01 0.  1.
         -4    1    3    3    0  501 -0.39201145952E+02  0.19916580335E+02  0.97796893945E+03  0.97895774140E+03  0.12700000000E+01 0.  1.
          2    1    1    2  502    0 -0.49077616813E+02  0.64798229021E+01  0.15992794364E+04  0.16000454107E+04  0.00000000000E+00 0. -1.
          3    1    1    2  503    0  0.27242348705E+02  0.23769396534E+02 -0.65100324857E+02  0.74465979286E+02  0.00000000000E+00 0. -1.
<mgrwt>
<rscale>  0 0.40904408E+02</rscale>
<asrwt>0</asrwt>
<pdfrwt beam="1">  1        2 0.52882504E+00 0.46278671E+02</pdfrwt>
<pdfrwt beam="2">  1        3 0.11151868E-01 0.36154250E+02</pdfrwt>
<totfact> 0.47554533E+01</totfact>
</mgrwt>
</event>
<event>
 7    1  0.4251803E-004  0.8298299E+02  0.7546771E-02  0.1392476E+00
         -3   -1    0    0    0  501 -0.00000000000E+00  0.00000000000E+00  0.89068847444E+02  0.89068847444E+02  0.00000000000E+00 0.  1.
          2   -1    0    0  503    0  0.00000000000E+00 -0.00000000000E+00 -0.10728953368E+04  0.10728953368E+04  0.00000000000E+00 0. -1.
         25    2    1    2    0    0 -0.64973805764E+02 -0.15735233737E+02 -0.23759658370E+03  0.27666674765E+03  0.12499263841E+03 0.  0.
          4    1    3    3  502    0 -0.11334362776E+02  0.34271871653E+02 -0.99047105467E+01  0.37453239608E+02  0.12700000000E+01 0. -1.
         -4    1    3    3    0  502 -0.53639442988E+02 -0.50007105390E+02 -0.22769187315E+03  0.23921350805E+03  0.12700000000E+01 0. -1.
          2    1    1    2  503    0  0.60709097741E+02  0.60809175390E+02 -0.80585933948E+03  0.81042743375E+03  0.00000000000E+00 0. -1.
         -3    1    1    2    0  501  0.42647080222E+01 -0.45073941652E+02  0.59629433805E+02  0.74870002848E+02  0.00000000000E+00 0.  1.
<mgrwt>
<rscale>  0 0.61294985E+02</rscale>
<asrwt>0</asrwt>
<pdfrwt beam="2">  1        2 0.16506083E+00 0.82982986E+02</pdfrwt>
<pdfrwt beam="1">  1       -3 0.13702899E-01 0.45275247E+02</pdfrwt>
<totfact> 0.57593336E+02</totfact>
</mgrwt>
</event>
<event>
 7    1  0.4251803E-004  0.1112564E+03  0.7546771E-02  0.1336927E+00
          1   -1    0    0  503    0 -0.00000000000E+00  0.00000000000E+00  0.11265006144E+04  0.11265006144E+04  0.00000000000E+00 0. -1.
          2   -1    0    0  502    0  0.00000000000E+00 -0.00000000000E+00 -0.12269501311E+03  0.12269501311E+03  0.00000000000E+00 0. -1.
         25    2    1    2    0    0  0.55577654620E+02  0.12203604234E+03  0.52475602486E+03  0.55585579726E+03  0.12500044159E+03 0.  0.
          4    1    3    3  501    0  0.25114977983E+01  0.76490601303E+02  0.43692080143E+03  0.44357470546E+03  0.12700000000E+01 0. -1.
         -4    1    3    3    0  501  0.53066156822E+02  0.45545441038E+02  0.87835223435E+02  0.11228109180E+03  0.12700000000E+01 0. -1.
          2    1    1    2  502    0  0.21781252854E+02 -0.49075208513E+02 -0.95216501638E+02  0.10931139579E+03  0.00000000000E+00 0. -1.
          1    1    1    2  503    0 -0.77358907473E+02 -0.72960833829E+02  0.57426607802E+03  0.58402843441E+03  0.00000000000E+00 0. -1.
<mgrwt>
<rscale>  0 0.77288705E+02</rscale>
<asrwt>0</asrwt>
<pdfrwt beam="2">  1        2 0.18876157E-01 0.53691704E+02</pdfrwt>
<pdfrwt beam="1">  1        1 0.17330778E+00 0.11125637E+03</pdfrwt>
<totfact> 0.52266778E+02</totfact>
</mgrwt>
</event>
<event>
 7    1  0.4251803E-004  0.3833954E+02  0.7546771E-02  0.1522377E+00
         -1   -1    0    0    0  501 -0.00000000000E+00  0.00000000000E+00  0.71990922064E+01  0.71990922064E+01  0.00000000000E+00 0.  1.
          2   -1    0    0  503    0  0.00000000000E+00 -0.00000000000E+00 -0.16979508819E+04  0.16979508819E+04  0.00000000000E+00 0. -1.
         25    2    1    2    0    0  0.17884731324E+02 -0.39404212879E+02 -0.10614938027E+04  0.10697039757E+04  0.12499978748E+03 0.  0.
          4    1    3    3  502    0  0.43564065073E+02  0.30232746403E+02 -0.59278535467E+03  0.59515370816E+03  0.12700000000E+01 0.  1.
         -4    1    3    3    0  502 -0.25679333749E+02 -0.69636959282E+02 -0.46870844803E+03  0.47455026755E+03  0.12700000000E+01 0.  1.
          2    1    1    2  503    0  0.21373073163E+02  0.31344489582E+02 -0.45768037195E+03  0.45925004971E+03  0.00000000000E+00 0. -1.
         -1    1    1    2    0  501 -0.39257804487E+02  0.80597232977E+01 -0.17157761509E+03  0.17619594874E+03  0.00000000000E+00 0.  1.
<mgrwt>
<rscale>  0 0.38138200E+02</rscale>
<asrwt>0</asrwt>
<pdfrwt beam="2">  1        2 0.26122329E+00 0.37937914E+02</pdfrwt>
<pdfrwt beam="1">  1       -1 0.11075523E-02 0.38339544E+02</pdfrwt>
<totfact> 0.17502666E+04</totfact>
</mgrwt>
</event>
<event>
 7    1  0.4465972E-004  0.7696561E+02  0.7546771E-02  0.1411549E+00
          2   -1    0    0  503    0  0.00000000000E+00  0.00000000000E+00  0.18945283117E+04  0.18945283117E+04  0.00000000000E+00 0. -1.
         -1   -1    0    0    0  501 -0.00000000000E+00 -0.00000000000E+00 -0.12091167755E+02  0.12091167755E+02  0.00000000000E+00 0.  1.
         25    2    1    2    0    0 -0.19180787831E+02 -0.10708638355E+03  0.11288929693E+04  0.11409902904E+04  0.12499644145E+03 0.  0.
          4    1    3    3  502    0  0.11210766558E+02 -0.16853732930E+02  0.75137004747E+03  0.75164372594E+03  0.12700000000E+01 0.  1.
         -4    1    3    3    0  502 -0.30391554390E+02 -0.90232650622E+02  0.37752292186E+03  0.38934656445E+03  0.12700000000E+01 0.  1.
          2    1    1    2  503    0  0.20728799857E+02  0.36518249143E+02  0.51895135926E+03  0.52064746129E+03  0.00000000000E+00 0. -1.
         -1    1    1    2    0  501 -0.15480120253E+01  0.70568134409E+02  0.23459281536E+03  0.24498172779E+03  0.00000000000E+00 0.  1.
<mgrwt>
<rscale>  0 0.56849651E+02</rscale>
<asrwt>0</asrwt>
<pdfrwt beam="1">  1        2 0.29146566E+00 0.41991257E+02</pdfrwt>
<pdfrwt beam="2">  1       -1 0.18601812E-02 0.76965612E+02</pdfrwt>
<totfact> 0.75909952E+03</totfact>
</mgrwt>
</event>
<event>
 7    1  0.4251803E-004  0.6710175E+02  0.7546771E-02  0.1444831E+00
         -2   -1    0    0    0  501 -0.00000000000E+00  0.00000000000E+00  0.32762489758E+03  0.32762489758E+03  0.00000000000E+00 0.  1.
          1   -1    0    0  503    0  0.00000000000E+00 -0.00000000000E+00 -0.65511688456E+02  0.65511688456E+02  0.00000000000E+00 0. -1.
         25    2    1    2    0    0 -0.53533353918E+02  0.77978704431E+02  0.20464025500E+03  0.25778958945E+03  0.12502535797E+03 0.  0.
          4    1    3    3  502    0  0.23263307875E+02  0.54801667059E+02  0.14814757284E+03  0.15966753096E+03  0.12700000000E+01 0.  1.
         -4    1    3    3    0  502 -0.76796661793E+02  0.23177037372E+02  0.56492682161E+02  0.98122058487E+02  0.12700000000E+01 0.  1.
          1    1    1    2  503    0  0.49132117904E+02 -0.40840403409E+02 -0.33154608212E+01  0.63975744160E+02  0.00000000000E+00 0. -1.
         -2    1    1    2    0  501  0.44012360141E+01 -0.37138301022E+02  0.60788414942E+02  0.71371252423E+02  0.00000000000E+00 0.  1.
<mgrwt>
<rscale>  0 0.50094746E+02</rscale>
<asrwt>0</asrwt>
<pdfrwt beam="2">  1        1 0.10078722E-01 0.67101746E+02</pdfrwt>
<pdfrwt beam="1">  1       -2 0.50403829E-01 0.37398186E+02</pdfrwt>
<totfact> 0.19350112E+03</totfact>
</mgrwt>
</event>
<event>
 7    1  0.4251803E-004  0.3171027E+02  0.7546771E-02  0.1649913E+00
          1   -1    0    0  503    0  0.00000000000E+00  0.00000000000E+00  0.55760891483E+03  0.55760891483E+03  0.00000000000E+00 0. -1.
         -2   -1    0    0    0  501 -0.00000000000E+00 -0.00000000000E+00 -0.19290769865E+02  0.19290769865E+02  0.00000000000E+00 0.  1.
         25    2    1    2    0    0  0.72704721363E+00 -0.13672022555E+02  0.30828163678E+03  0.33293520919E+03  0.12498333147E+03 0.  0.
          4    1    3    3  502    0  0.20114630062E+02 -0.66373179977E+02  0.17955154913E+03  0.19248472422E+03  0.12700000000E+01 0. -1.
         -4    1    3    3    0  502 -0.19387582848E+02  0.52701157422E+02  0.12873008764E+03  0.14045048497E+03  0.12700000000E+01 0. -1.
          1    1    1    2  503    0 -0.11570142151E+02  0.31626199818E+02  0.21626904136E+03  0.21887526803E+03  0.00000000000E+00 0. -1.
         -2    1    1    2    0  501  0.10843094938E+02 -0.17954177263E+02  0.13767466828E+02  0.25089207478E+02  0.00000000000E+00 0.  1.
<mgrwt>
<rscale>  0 0.25789605E+02</rscale>
<asrwt>0</asrwt>
<pdfrwt beam="1">  1        1 0.85785975E-01 0.31710273E+02</pdfrwt>
<pdfrwt beam="2">  1       -2 0.29678112E-02 0.20974394E+02</pdfrwt>
<totfact> 0.11247966E+04</totfact>
</mgrwt>
</event>
<event>
 7    1  0.4251803E-004  0.1646750E+03  0.7546771E-02  0.1247524E+00
          2   -1    0    0  503    0  0.00000000000E+00  0.00000000000E+00  0.31308186907E+04  0.31308186907E+04  0.00000000000E+00 0. -1.
         -3   -1    0    0    0  501 -0.00000000000E+00 -0.00000000000E+00 -0.60246279138E+02  0.60246279138E+02  0.00000000000E+00 0.  1.
         25    2    1    2    0    0 -0.85121394045E+02  0.15664075768E+03  0.53175483149E+03  0.57460509881E+03  0.12500336026E+03 0.  0.
          4    1    3    3  502    0 -0.12605997800E+02  0.15025110182E+02  0.25203681718E+03  0.25280196841E+03  0.12700000000E+01 0. -1.
         -4    1    3    3    0  502 -0.72515396245E+02  0.14161564749E+03  0.27971801431E+03  0.32180313040E+03  0.12700000000E+01 0. -1.
          2    1    1    2  503    0  0.83187308204E+02  0.86304057950E+01  0.23976182253E+04  0.23990764404E+04  0.00000000000E+00 0. -1.
         -3    1    1    2    0  501  0.19340858412E+01 -0.16527116347E+03  0.14119935477E+03  0.21738343072E+03  0.00000000000E+00 0.  1.
<mgrwt>
<rscale>  0 0.11735587E+03</rscale>
<asrwt>0</asrwt>
<pdfrwt beam="1">  1        2 0.48166429E+00 0.83633798E+02</pdfrwt>
<pdfrwt beam="2">  1       -3 0.92686607E-02 0.16467505E+03</pdfrwt>
<totfact> 0.10678471E+02</totfact>
</mgrwt>
</event>
<event>
 7    1  0.4251803E-004  0.8817074E+02  0.7546771E-02  0.1383818E+00
          2   -1    0    0  503    0  0.00000000000E+00  0.00000000000E+00  0.26550399878E+04  0.26550399878E+04  0.00000000000E+00 0. -1.
         -1   -1    0    0    0  501 -0.00000000000E+00 -0.00000000000E+00 -0.45177050005E+02  0.45177050005E+02  0.00000000000E+00 0.  1.
         25    2    1    2    0    0  0.95250562798E+02  0.51486660379E+02  0.30941069807E+03  0.35083233104E+03  0.12499919403E+03 0.  0.
          4    1    3    3  502    0  0.94175140542E+02  0.30338379084E+02  0.31391932584E+03  0.32914484711E+03  0.12700000000E+01 0.  1.
         -4    1    3    3    0  502  0.10754222556E+01  0.21148281294E+02 -0.45086277693E+01  0.21687483927E+02  0.12700000000E+01 0.  1.
          2    1    1    2  503    0 -0.87486949636E+02 -0.64607748049E+01  0.23019973604E+04  0.23036682824E+04  0.00000000000E+00 0. -1.
         -1    1    1    2    0  501 -0.77636131616E+01 -0.45025885574E+02 -0.15451206751E+01  0.45716424389E+02  0.00000000000E+00 0.  1.
<mgrwt>
<rscale>  0 0.63470845E+02</rscale>
<asrwt>0</asrwt>
<pdfrwt beam="1">  1        2 0.40846757E+00 0.88170741E+02</pdfrwt>
<pdfrwt beam="2">  1       -1 0.69503175E-02 0.45690306E+02</pdfrwt>
<totfact> 0.40515293E+02</totfact>
</mgrwt>
</event>
<event>
 7    1  0.4251803E-004  0.3643861E+02  0.7546771E-02  0.1572067E+00
         -1   -1    0    0    0  501 -0.00000000000E+00  0.00000000000E+00  0.17419120638E+03  0.17419120638E+03  0.00000000000E+00 0.  1.
          2   -1    0    0  503    0  0.00000000000E+00 -0.00000000000E+00 -0.23186906190E+03  0.23186906190E+03  0.00000000000E+00 0. -1.
         25    2    1    2    0    0 -0.38160087486E+02 -0.45720858398E+02  0.75165384516E+01  0.13866261992E+03  0.12499693854E+03 0.  0.
          4    1    3    3  502    0 -0.82239044690E+02 -0.40543618887E+02 -0.69589053357E+01  0.91962409535E+02  0.12700000000E+01 0.  1.
         -4    1    3    3    0  502  0.44078957204E+02 -0.51772395116E+01  0.14475443787E+02  0.46700210385E+02  0.12700000000E+01 0.  1.
          2    1    1    2  503    0  0.26236087556E+02  0.12293685444E+02 -0.16185488666E+03  0.16442770851E+03  0.00000000000E+00 0. -1.
         -1    1    1    2    0  501  0.11923999930E+02  0.33427172954E+02  0.96660492687E+02  0.10296993985E+03  0.00000000000E+00 0.  1.
<mgrwt>
<rscale>  0 0.32492400E+02</rscale>
<asrwt>0</asrwt>
<pdfrwt beam="2">  1        2 0.35672163E-01 0.28973557E+02</pdfrwt>
<pdfrwt beam="1">  1       -1 0.26798647E-01 0.36438608E+02</pdfrwt>
<totfact> 0.18679375E+03</totfact>
</mgrwt>
</event>
<event>
 7    1  0.4251803E-004  0.2796463E+02  0.7546771E-02  0.1629304E+00
          2   -1    0    0  502    0  0.00000000000E+00  0.00000000000E+00  0.12868963803E+04  0.12868963803E+04  0.00000000000E+00 0. -1.
          2   -1    0    0  503    0 -0.00000000000E+00 -0.00000000000E+00 -0.27731617452E+02  0.27731617452E+02  0.00000000000E+00 0. -1.
         25    2    1    2    0    0  0.15682740663E+02 -0.15223934303E+02  0.29610729650E+03  0.32215231138E+03  0.12499945664E+03 0.  0.
          4    1    3    3  501    0 -0.41990969457E+02 -0.44930204689E+02  0.12987740660E+03  0.14370705777E+03  0.12700000000E+01 0.  1.
         -4    1    3    3    0  501  0.57673710120E+02  0.29706270386E+02  0.16622988990E+03  0.17844525361E+03  0.12700000000E+01 0.  1.
          2    1    1    2  502    0  0.11690984153E+02  0.24070937367E+02  0.96333487981E+03  0.96370648011E+03  0.00000000000E+00 0. -1.
          2    1    1    2  503    0 -0.27373724816E+02 -0.88470030639E+01 -0.27741341484E+00  0.28769206311E+02  0.00000000000E+00 0. -1.
<mgrwt>
<rscale>  0 0.27355603E+02</rscale>
<asrwt>0</asrwt>
<pdfrwt beam="1">  1        2 0.19798401E+00 0.26759842E+02</pdfrwt>
<pdfrwt beam="2">  1        2 0.42664037E-02 0.27964628E+02</pdfrwt>
<totfact> 0.49921503E+03</totfact>
</mgrwt>
</event>
<event>
 7    1  0.4251803E-004  0.4622199E+02  0.7546771E-02  0.1498397E+00
          2   -1    0    0  503    0  0.00000000000E+00  0.00000000000E+00  0.36512856432E+04  0.36512856432E+04  0.00000000000E+00 0. -1.
         -2   -1    0    0    0  501 -0.00000000000E+00 -0.00000000000E+00 -0.49238492670E+01  0.49238492670E+01  0.00000000000E+00 0.  1.
         25    2    1    2    0    0  0.30917514152E+02  0.72631446379E+02  0.18740096111E+04  0.18798321885E+04  0.12500325896E+03 0.  0.
          4    1    3    3  502    0  0.67056216181E+02  0.63698787691E+01  0.64565306451E+03  0.64915838137E+03  0.12700000000E+01 0. -1.
         -4    1    3    3    0  502 -0.36138702029E+02  0.66261567610E+02  0.12283565466E+04  0.12306738071E+04  0.12700000000E+01 0. -1.
          2    1    1    2  503    0 -0.15296717562E+02 -0.33710944363E+02  0.15282786251E+04  0.15287269126E+04  0.00000000000E+00 0. -1.
         -2    1    1    2    0  501 -0.15620796590E+02 -0.38920502017E+02  0.24407355769E+03  0.24765039133E+03  0.00000000000E+00 0.  1.
<mgrwt>
<rscale>  0 0.41365428E+02</rscale>
<asrwt>0</asrwt>
<pdfrwt beam="1">  1        2 0.56173409E+00 0.37019148E+02</pdfrwt>
<pdfrwt beam="2">  1       -2 0.75751819E-03 0.46221988E+02</pdfrwt>
<totfact> 0.28276986E+03</totfact>
</mgrwt>
</event>
<event>
 7    1  0.4251803E-004  0.8381064E+02  0.7546771E-02  0.1374199E+00
          2   -1    0    0  503    0  0.00000000000E+00  0.00000000000E+00  0.94086742445E+03  0.94086742445E+03  0.00000000000E+00 0.  1.
          2   -1    0    0  502    0 -0.00000000000E+00 -0.00000000000E+00 -0.42641388201E+02  0.42641388201E+02  0.00000000000E+00 0. -1.
         25    2    1    2    0    0 -0.92118258653E+02  0.68589640879E+02  0.71602307140E+03  0.73585770421E+03  0.12492881836E+03 0.  0.
          4    1    3    3  501    0 -0.10278345846E+03  0.62158941654E+01  0.36851467010E+03  0.38263265889E+03  0.12700000000E+01 0.  1.
         -4    1    3    3    0  501  0.10665199806E+02  0.62373746714E+02  0.34750840130E+03  0.35322504532E+03  0.12700000000E+01 0.  1.
          2    1    1    2  502    0  0.48635212453E+02 -0.18388976666E+02 -0.18024451333E+01  0.52026792728E+02  0.00000000000E+00 0. -1.
          2    1    1    2  503    0  0.43483046201E+02 -0.50200664213E+02  0.18400540998E+03  0.19562431571E+03  0.00000000000E+00 0.  1.
<mgrwt>
<rscale>  0 0.66013493E+02</rscale>
<asrwt>0</asrwt>
<pdfrwt beam="1">  1        2 0.14474882E+00 0.83810641E+02</pdfrwt>
<pdfrwt beam="2">  1        2 0.65602142E-02 0.51995561E+02</pdfrwt>
<totfact> 0.45007106E+03</totfact>
</mgrwt>
</event>
<event>
 7    1  0.4251803E-004  0.1169914E+03  0.7546771E-02  0.1357631E+00
          1   -1    0    0  503    0 -0.00000000000E+00  0.00000000000E+00  0.34432696480E+04  0.34432696480E+04  0.00000000000E+00 0. -1.
          2   -1    0    0  502    0  0.00000000000E+00 -0.00000000000E+00 -0.16199630156E+02  0.16199630156E+02  0.00000000000E+00 0. -1.
         25    2    1    2    0    0 -0.34567525581E+02 -0.82803422510E+02  0.85777339531E+03  0.87146502433E+03  0.12499908130E+03 0.  0.
          4    1    3    3  501    0 -0.46623432501E+02 -0.61544388188E+02  0.21886759377E+03  0.23209069925E+03  0.12700000000E+01 0. -1.
         -4    1    3    3    0  501  0.12055906921E+02 -0.21259034323E+02  0.63890580154E+03  0.63937432508E+03  0.12700000000E+01 0. -1.
          2    1    1    2  502    0  0.44353669443E+02  0.12442898867E+03  0.46835168262E+03  0.48662420802E+03  0.00000000000E+00 0. -1.
          1    1    1    2  503    0 -0.97861438626E+01 -0.41625566163E+02  0.21009449400E+04  0.21013800458E+04  0.00000000000E+00 0. -1.
<mgrwt>
<rscale>  0 0.70729102E+02</rscale>
<asrwt>0</asrwt>
<pdfrwt beam="2">  1        2 0.24922535E-02 0.11699141E+03</pdfrwt>
<pdfrwt beam="1">  1        1 0.52973321E+00 0.42760453E+02</pdfrwt>
<totfact> 0.24790340E+02</totfact>
</mgrwt>
</event>
<event>
 7    1  0.4251803E-004  0.4448001E+02  0.7546771E-02  0.1573077E+00
         -2   -1    0    0    0  501 -0.00000000000E+00  0.00000000000E+00  0.40467512954E+02  0.40467512954E+02  0.00000000000E+00 0.  1.
          1   -1    0    0  503    0  0.00000000000E+00 -0.00000000000E+00 -0.37118668177E+03  0.37118668177E+03  0.00000000000E+00 0. -1.
         25    2    1    2    0    0  0.32782135252E+02  0.93118259015E+01 -0.91564833585E+02  0.15865653381E+03  0.12500559379E+03 0.  0.
          4    1    3    3  502    0 -0.31307794196E+02 -0.26301475008E+02  0.55530532773E+00  0.40912917631E+02  0.12700000000E+01 0. -1.
         -4    1    3    3    0  502  0.64089929449E+02  0.35613300910E+02 -0.92120138912E+02  0.11774361618E+03  0.12700000000E+01 0. -1.
          1    1    1    2  503    0  0.23537749555E+02 -0.15170823265E+01 -0.98537219881E+02  0.10132083149E+03  0.00000000000E+00 0. -1.
         -2    1    1    2    0  501 -0.56319884807E+02 -0.77947435750E+01 -0.14061711535E+03  0.15167682941E+03  0.00000000000E+00 0.  1.
<mgrwt>
<rscale>  0 0.32390304E+02</rscale>
<asrwt>0</asrwt>
<pdfrwt beam="2">  1        1 0.57105642E-01 0.23586589E+02</pdfrwt>
<pdfrwt beam="1">  1       -2 0.62257714E-02 0.44480014E+02</pdfrwt>
<totfact> 0.71172384E+03</totfact>
</mgrwt>
</event>
<event>
 7    1  0.4251803E-004  0.6327307E+02  0.7546771E-02  0.1393104E+00
          2   -1    0    0  503    0  0.00000000000E+00  0.00000000000E+00  0.79123161485E+03  0.79123161485E+03  0.00000000000E+00 0. -1.
         -1   -1    0    0    0  501 -0.00000000000E+00 -0.00000000000E+00 -0.52167259984E+03  0.52167259984E+03  0.00000000000E+00 0.  1.
         25    2    1    2    0    0 -0.65579766278E+01 -0.11133706115E+02 -0.10803594014E+02  0.12613533924E+03  0.12500575864E+03 0.  0.
          4    1    3    3  502    0  0.49204801440E+02 -0.25035046295E+02 -0.33210417789E+02  0.64439202179E+02  0.12700000000E+01 0. -1.
         -4    1    3    3    0  502 -0.55762778068E+02  0.13901340180E+02  0.22406823775E+02  0.61696137062E+02  0.12700000000E+01 0. -1.
          2    1    1    2  503    0  0.64447274927E+02 -0.67385324128E+00  0.73021478954E+03  0.73305357525E+03  0.00000000000E+00 0. -1.
         -1    1    1    2    0  501 -0.57889298300E+02  0.11807559356E+02 -0.44985218051E+03  0.45371530019E+03  0.00000000000E+00 0.  1.
<mgrwt>
<rscale>  0 0.61141228E+02</rscale>
<asrwt>0</asrwt>
<pdfrwt beam="1">  1        2 0.12172794E+00 0.63273073E+02</pdfrwt>
<pdfrwt beam="2">  1       -1 0.80257324E-01 0.59081209E+02</pdfrwt>
<totfact> 0.74324141E+01</totfact>
</mgrwt>
</event>
<event>
 7    1  0.4251803E-004  0.1074861E+03  0.7546771E-02  0.1341384E+00
          2   -1    0    0  502    0  0.00000000000E+00  0.00000000000E+00  0.11043616633E+04  0.11043616633E+04  0.00000000000E+00 0. -1.
          3   -1    0    0  503    0 -0.00000000000E+00 -0.00000000000E+00 -0.15898134656E+03  0.15898134656E+03  0.00000000000E+00 0. -1.
         25    2    1    2    0    0 -0.93108053241E+02 -0.84322541364E+02  0.48887428252E+02  0.18382891786E+03  0.12499475926E+03 0.  0.
          4    1    3    3  501    0  0.22042589468E+02  0.78511552278E+01  0.25241492801E+02  0.34442158000E+02  0.12700000000E+01 0. -1.
         -4    1    3    3    0  501 -0.11515064271E+03 -0.92173696592E+02  0.23645935451E+02  0.14938675986E+03  0.12700000000E+01 0. -1.
          2    1    1    2  502    0  0.52013451714E+02 -0.12384722783E+02  0.95684577480E+03  0.95833846697E+03  0.00000000000E+00 0. -1.
          3    1    1    2  503    0  0.41094601527E+02  0.96707264147E+02 -0.60352886317E+02  0.12117562503E+03  0.00000000000E+00 0. -1.
<mgrwt>
<rscale>  0 0.75809089E+02</rscale>
<asrwt>0</asrwt>
<pdfrwt beam="1">  1        2 0.16990179E+00 0.53467565E+02</pdfrwt>
<pdfrwt beam="2">  1        3 0.24458669E-01 0.10748606E+03</pdfrwt>
<totfact> 0.23043125E+02</totfact>
</mgrwt>
</event>
<event>
 7    1  0.4251803E-004  0.4969388E+02  0.7546771E-02  0.1466766E+00
          2   -1    0    0  503    0  0.00000000000E+00  0.00000000000E+00  0.10031638831E+04  0.10031638831E+04  0.00000000000E+00 0. -1.
         -3   -1    0    0    0  501 -0.00000000000E+00 -0.00000000000E+00 -0.26977458906E+02  0.26977458906E+02  0.00000000000E+00 0.  1.
         25    2    1    2    0    0 -0.22820179239E+01 -0.79869162279E+02  0.48755764911E+03  0.50962929861E+03  0.12500108039E+03 0.  0.
          4    1    3    3  502    0  0.12763307586E+02 -0.95415796729E+02  0.47483976976E+03  0.48450128600E+03  0.12700000000E+01 0. -1.
         -4    1    3    3    0  502 -0.15045325510E+02  0.15546634450E+02  0.12717879350E+02  0.25128012607E+02  0.12700000000E+01 0. -1.
          2    1    1    2  503    0  0.22763251545E+02  0.36503988506E+02  0.46511331151E+03  0.46709859702E+03  0.00000000000E+00 0. -1.
         -3    1    1    2    0  501 -0.20481233621E+02  0.43365173773E+02  0.23515463572E+02  0.53413446379E+02  0.00000000000E+00 0.  1.
<mgrwt>
<rscale>  0 0.46236597E+02</rscale>
<asrwt>0</asrwt>
<pdfrwt beam="1">  1        2 0.15433288E+00 0.43019842E+02</pdfrwt>
<pdfrwt beam="2">  1       -3 0.41503791E-02 0.49693882E+02</pdfrwt>
<totfact> 0.43895354E+03</totfact>
</mgrwt>
</event>
<event>
 7    1  0.4251803E-004  0.4720975E+02  0.7546771E-02  0.1502731E+00
         -1   -1    0    0    0  501  0.00000000000E+00  0.00000000000E+00  0.85702032806E+03  0.85702032806E+03  0.00000000000E+00 0.  1.
         -1   -1    0    0    0  502 -0.00000000000E+00 -0.00000000000E+00 -0.34655943336E+02  0.34655943336E+02  0.00000000000E+00 0.  1.
         25    2    1    2    0    0 -0.64745558699E+02 -0.41289061606E+02  0.21091578522E+03  0.25691688399E+03  0.12499617130E+03 0.  0.
          4    1    3    3  503    0  0.11358051294E+02 -0.65646824665E+02  0.10168051092E+03  0.12156911663E+03  0.12700000000E+01 0.  1.
         -4    1    3    3    0  503 -0.76103609993E+02  0.24357763060E+02  0.10923527430E+03  0.13534776735E+03  0.12700000000E+01 0.  1.
         -1    1    1    2    0  502  0.37940104912E+02  0.18502326662E+02  0.28916662831E+02  0.51166014520E+02  0.00000000000E+00 0.  1.
         -1    1    1    2    0  501  0.26805453787E+02  0.22786734944E+02  0.58253193667E+03  0.58359337289E+03  0.00000000000E+00 0.  1.
<mgrwt>
<rscale>  0 0.40754505E+02</rscale>
<asrwt>0</asrwt>
<pdfrwt beam="1">  1       -1 0.13184927E+00 0.35181922E+02</pdfrwt>
<pdfrwt beam="2">  1       -1 0.53316842E-02 0.47209748E+02</pdfrwt>
<totfact> 0.67929575E+02</totfact>
</mgrwt>
</event>
<event>
 7    1  0.4251803E-004  0.1011773E+03  0.7546771E-02  0.1459095E+00
          1   -1    0    0  503    0 -0.00000000000E+00  0.00000000000E+00  0.96911659428E+02  0.96911659428E+02  0.00000000000E+00 0. -1.
          2   -1    0    0  502    0  0.00000000000E+00 -0.00000000000E+00 -0.53908606364E+03  0.53908606364E+03  0.00000000000E+00 0. -1.
         25    2    1    2    0    0 -0.27892708502E+02  0.79972061239E+02 -0.12285825922E+03  0.19466186770E+03  0.12500222843E+03 0.  0.
          4    1    3    3  501    0 -0.44971833067E+02  0.10366665513E+03 -0.12070028529E+03  0.16534634234E+03  0.12700000000E+01 0. -1.
         -4    1    3    3    0  501  0.17079124565E+02 -0.23694593894E+02 -0.21579739269E+01  0.29315525361E+02  0.12700000000E+01 0. -1.
          2    1    1    2  502    0  0.23588625164E+02 -0.10188867907E+03 -0.37077301428E+03  0.38524064463E+03  0.00000000000E+00 0. -1.
          1    1    1    2  503    0  0.43040833385E+01  0.21916617827E+02  0.51456869288E+02  0.56095210734E+02  0.00000000000E+00 0. -1.
<mgrwt>
<rscale>  0 0.47537562E+02</rscale>
<asrwt>0</asrwt>
<pdfrwt beam="2">  1        2 0.82936316E-01 0.10117729E+03</pdfrwt>
<pdfrwt beam="1">  1        1 0.14909486E-01 0.22335247E+02</pdfrwt>
<totfact> 0.25968821E+03</totfact>
</mgrwt>
</event>
<event>
 7    1  0.4251803E-004  0.1412595E+03  0.7546771E-02  0.1258156E+00
         -3   -1    0    0    0  502 -0.00000000000E+00  0.00000000000E+00  0.35697448030E+03  0.35697448030E+03  0.00000000000E+00 0.  1.
         -2   -1    0    0    0  501  0.00000000000E+00 -0.00000000000E+00 -0.31986350972E+03  0.31986350972E+03  0.00000000000E+00 0.  1.
         25    2    1    2    0    0 -0.30882947474E+02 -0.57263069003E+02 -0.10676842018E+03  0.17679563214E+03  0.12499753790E+03 0.  0.
          4    1    3    3  503    0 -0.44323049099E+01  0.30920171640E+00 -0.11302284440E+03  0.11311727185E+03  0.12700000000E+01 0.  1.
         -4    1    3    3    0  503 -0.26450642564E+02 -0.57572270720E+02  0.62544242204E+01  0.63678360298E+02  0.12700000000E+01 0.  1.
         -2    1    1    2    0  501 -0.18462571816E+02 -0.85751238000E+02 -0.14756713351E+03  0.17166886809E+03  0.00000000000E+00 0.  1.
         -3    1    1    2    0  502  0.49345519290E+02  0.14301430700E+03  0.29144652428E+03  0.32837348979E+03  0.00000000000E+00 0.  1.
<mgrwt>
<rscale>  0 0.11131376E+03</rscale>
<asrwt>0</asrwt>
<pdfrwt beam="2">  1       -2 0.49209771E-01 0.87716255E+02</pdfrwt>
<pdfrwt beam="1">  1       -3 0.54919151E-01 0.14125948E+03</pdfrwt>
<totfact> 0.51877066E+01</totfact>
</mgrwt>
</event>
<event>
 7    1  0.4251803E-004  0.2091228E+03  0.7546771E-02  0.1352288E+00
          2   -1    0    0  503    0  0.00000000000E+00  0.00000000000E+00  0.93078426910E+03  0.93078426910E+03  0.00000000000E+00 0.  1.
         -3   -1    0    0    0  501 -0.00000000000E+00 -0.00000000000E+00 -0.74888308453E+03  0.74888308453E+03  0.00000000000E+00 0. -1.
         25    2    1    2    0    0 -0.19595919479E+03 -0.12174088199E+03  0.36385434169E+03  0.44859396985E+03  0.12500287778E+03 0.  0.
          4    1    3    3  502    0 -0.19444834106E+03 -0.14192923521E+03  0.32161143542E+03  0.40173323667E+03  0.12700000000E+01 0. -1.
         -4    1    3    3    0  502 -0.15108537216E+01  0.20188353218E+02  0.42242906270E+02  0.46860733186E+02  0.12700000000E+01 0. -1.
          2    1    1    2  503    0  0.24859546577E+02  0.29079385534E+01  0.50889003827E+03  0.50950517585E+03  0.00000000000E+00 0.  1.
         -3    1    1    2    0  501  0.17109964821E+03  0.11883294344E+03 -0.69084319540E+03  0.72156820793E+03  0.00000000000E+00 0. -1.
<mgrwt>
<rscale>  0 0.72347394E+02</rscale>
<asrwt>0</asrwt>
<pdfrwt beam="1">  1        2 0.14319758E+00 0.25029046E+02</pdfrwt>
<pdfrwt beam="2">  1       -3 0.11521278E+00 0.20912284E+03</pdfrwt>
<totfact> 0.13053353E+01</totfact>
</mgrwt>
</event>
<event>
 7    1  0.4251803E-004  0.2275557E+03  0.7546771E-02  0.1365163E+00
          2   -1    0    0  503    0  0.00000000000E+00  0.00000000000E+00  0.10468397931E+04  0.10468397931E+04  0.00000000000E+00 0. -1.
         -1   -1    0    0    0  501 -0.00000000000E+00 -0.00000000000E+00 -0.72286969442E+02  0.72286969442E+02  0.00000000000E+00 0.  1.
         25    2    1    2    0    0  0.74450167436E+02 -0.23049580146E+03  0.66106733825E+03  0.71505703507E+03  0.12500158312E+03 0.  0.
          4    1    3    3  502    0  0.49153901062E+02 -0.17328601044E+03  0.60430593353E+03  0.63058022614E+03  0.12700000000E+01 0. -1.
         -4    1    3    3    0  502  0.25296266374E+02 -0.57209791017E+02  0.56761404719E+02  0.84476808926E+02  0.12700000000E+01 0. -1.
          2    1    1    2  503    0 -0.55146167640E+01  0.19888077312E+02  0.78110394173E+02  0.80790966667E+02  0.00000000000E+00 0. -1.
         -1    1    1    2    0  501 -0.68935550672E+02  0.21060772414E+03  0.23537509125E+03  0.32327876082E+03  0.00000000000E+00 0.  1.
<mgrwt>
<rscale>  0 0.68530310E+02</rscale>
<asrwt>0</asrwt>
<pdfrwt beam="1">  1        2 0.16105227E+00 0.20638474E+02</pdfrwt>
<pdfrwt beam="2">  1       -1 0.11121073E-01 0.22755575E+03</pdfrwt>
<totfact> 0.16514201E+03</totfact>
</mgrwt>
</event>
<event>
 7    1  0.4251803E-004  0.4204916E+02  0.7546771E-02  0.1506086E+00
         -1   -1    0    0    0  501 -0.00000000000E+00  0.00000000000E+00  0.34800756080E+03  0.34800756080E+03  0.00000000000E+00 0.  1.
          2   -1    0    0  503    0  0.00000000000E+00 -0.00000000000E+00 -0.10831020608E+03  0.10831020608E+03  0.00000000000E+00 0. -1.
         25    2    1    2    0    0  0.18217741929E+02  0.55041081376E+01 -0.64007741388E+02  0.14171669801E+03  0.12499780082E+03 0.  0.
          4    1    3    3  502    0  0.50159102977E+02 -0.19171486868E+02 -0.81581334987E+02  0.97676039224E+02  0.12700000000E+01 0.  1.
         -4    1    3    3    0  502 -0.31941361048E+02  0.24675595006E+02  0.17573593599E+02  0.44040658788E+02  0.12700000000E+01 0.  1.
          2    1    1    2  503    0 -0.11097449515E+02  0.36975453239E+02  0.15916330954E+03  0.16377819339E+03  0.00000000000E+00 0. -1.
         -1    1    1    2    0  501 -0.71202924139E+01 -0.42479561376E+02  0.14454178658E+03  0.15082287547E+03  0.00000000000E+00 0.  1.
<mgrwt>
<rscale>  0 0.40290235E+02</rscale>
<asrwt>0</asrwt>
<pdfrwt beam="2">  1        2 0.16663109E-01 0.38604890E+02</pdfrwt>
<pdfrwt beam="1">  1       -1 0.53539624E-01 0.42049157E+02</pdfrwt>
<totfact> 0.13215360E+03</totfact>
</mgrwt>
</event>
<event>
 7    1  0.4251803E-004  0.3267869E+02  0.7546771E-02  0.1601295E+00
         -2   -1    0    0    0  501 -0.00000000000E+00  0.00000000000E+00  0.60129714265E+02  0.60129714265E+02  0.00000000000E+00 0.  1.
          1   -1    0    0  503    0  0.00000000000E+00 -0.00000000000E+00 -0.18875509318E+03  0.18875509318E+03  0.00000000000E+00 0. -1.
         25    2    1    2    0    0  0.23722816294E+02  0.66328243626E+01 -0.96891636798E+02  0.16006043707E+03  0.12499835144E+03 0.  0.
          4    1    3    3  502    0  0.40542894770E+02  0.54658929973E+02 -0.82914362299E+02  0.10727408502E+03  0.12700000000E+01 0. -1.
         -4    1    3    3    0  502 -0.16820078476E+02 -0.48026105611E+02 -0.13977274499E+02  0.52786352047E+02  0.12700000000E+01 0. -1.
          1    1    1    2  503    0  0.39981293024E+01 -0.26716977824E+02 -0.44691766750E+02  0.52221987297E+02  0.00000000000E+00 0. -1.
         -2    1    1    2    0  501 -0.27720945596E+02  0.20084153461E+02  0.12958024630E+02  0.36602383082E+02  0.00000000000E+00 0.  1.
<mgrwt>
<rscale>  0 0.29711911E+02</rscale>
<asrwt>0</asrwt>
<pdfrwt beam="2">  1        1 0.29039245E-01 0.27014477E+02</pdfrwt>
<pdfrwt beam="1">  1       -2 0.92507254E-02 0.32678689E+02</pdfrwt>
<totfact> 0.84234235E+03</totfact>
</mgrwt>
</event>
<event>
 7    1  0.4251803E-004  0.5044059E+02  0.7546771E-02  0.1445500E+00
          1   -1    0    0  503    0  0.00000000000E+00  0.00000000000E+00  0.79675172117E+03  0.79675172117E+03  0.00000000000E+00 0. -1.
         -1   -1    0    0    0  501 -0.00000000000E+00 -0.00000000000E+00 -0.21090006057E+02  0.21090006057E+02  0.00000000000E+00 0.  1.
         25    2    1    2    0    0  0.18126858145E+01  0.57282238021E+02  0.55261451234E+03  0.56946837730E+03  0.12500757126E+03 0.  0.
          4    1    3    3  502    0 -0.29727411369E+02  0.23071207601E+02  0.49001239737E+03  0.49145677539E+03  0.12700000000E+01 0. -1.
         -4    1    3    3    0  502  0.31540097184E+02  0.34211030420E+02  0.62602114969E+02  0.78011601902E+02  0.12700000000E+01 0. -1.
          1    1    1    2  503    0  0.42342063603E+02 -0.34896902514E+02  0.15345433351E+03  0.16296894375E+03  0.00000000000E+00 0. -1.
         -1    1    1    2    0  501 -0.44154749417E+02 -0.22385335507E+02  0.69592869276E+02  0.85404406186E+02  0.00000000000E+00 0.  1.
<mgrwt>
<rscale>  0 0.49970608E+02</rscale>
<asrwt>0</asrwt>
<pdfrwt beam="1">  1        1 0.12257716E+00 0.50440594E+02</pdfrwt>
<pdfrwt beam="2">  1       -1 0.32446169E-02 0.49505001E+02</pdfrwt>
<totfact> 0.70109787E+03</totfact>
</mgrwt>
</event>
<event>
 7    1  0.4251803E-004  0.3651310E+02  0.7546771E-02  0.1590711E+00
          2   -1    0    0  503    0  0.00000000000E+00  0.00000000000E+00  0.19470239393E+02  0.19470239393E+02  0.00000000000E+00 0. -1.
         -1   -1    0    0    0  501 -0.00000000000E+00 -0.00000000000E+00 -0.56956640562E+03  0.56956640562E+03  0.00000000000E+00 0.  1.
         25    2    1    2    0    0  0.76850798360E+01  0.78136985626E+00 -0.40633430407E+03  0.42519989182E+03  0.12501084091E+03 0.  0.
          4    1    3    3  502    0 -0.25452271376E+02 -0.35130518198E+02 -0.34022451985E+03  0.34298149838E+03  0.12700000000E+01 0. -1.
         -4    1    3    3    0  502  0.33137351212E+02  0.35911888054E+02 -0.66109784223E+02  0.82218393434E+02  0.12700000000E+01 0. -1.
          2    1    1    2  503    0  0.17299682414E+02 -0.32154743209E+02 -0.86846612761E+02  0.94210087944E+02  0.00000000000E+00 0. -1.
         -1    1    1    2    0  501 -0.24984762250E+02  0.31373373353E+02 -0.56915249394E+02  0.69626665250E+02  0.00000000000E+00 0.  1.
<mgrwt>
<rscale>  0 0.30678204E+02</rscale>
<asrwt>0</asrwt>
<pdfrwt beam="1">  1        2 0.29954216E-02 0.36513101E+02</pdfrwt>
<pdfrwt beam="2">  1       -1 0.87625597E-01 0.25775740E+02</pdfrwt>
<totfact> 0.41585103E+03</totfact>
</mgrwt>
</event>
<event>
 7    1  0.4251803E-004  0.1315024E+03  0.7546771E-02  0.1294182E+00
         -2   -1    0    0    0  501 -0.00000000000E+00  0.00000000000E+00  0.76807076471E+03  0.76807076471E+03  0.00000000000E+00 0.  1.
          3   -1    0    0  503    0  0.00000000000E+00 -0.00000000000E+00 -0.38486564604E+03  0.38486564604E+03  0.00000000000E+00 0. -1.
         25    2    1    2    0    0 -0.19762337671E+02  0.64953920191E+02 -0.92568218566E+02  0.16971594667E+03  0.12500026291E+03 0.  0.
          4    1    3    3  502    0 -0.15012709971E+02 -0.34502497491E+02 -0.46964969528E+02  0.60192400322E+02  0.12700000000E+01 0.  1.
         -4    1    3    3    0  502 -0.47496277001E+01  0.99456417682E+02 -0.45603249038E+02  0.10952354635E+03  0.12700000000E+01 0.  1.
          3    1    1    2  503    0 -0.24156353892E+02  0.62207097781E+02 -0.24298404078E+03  0.25198114319E+03  0.00000000000E+00 0. -1.
         -2    1    1    2    0  501  0.43918691563E+02 -0.12716101797E+03  0.71875737802E+03  0.73123932089E+03  0.00000000000E+00 0.  1.
<mgrwt>
<rscale>  0 0.93677693E+02</rscale>
<asrwt>0</asrwt>
<pdfrwt beam="2">  1        3 0.59210100E-01 0.66732694E+02</pdfrwt>
<pdfrwt beam="1">  1       -2 0.11816473E+00 0.13150241E+03</pdfrwt>
<totfact> 0.64505509E+00</totfact>
</mgrwt>
</event>
<event>
 7    1  0.4251803E-004  0.8032948E+02  0.7546771E-02  0.1486896E+00
          2   -1    0    0  503    0  0.00000000000E+00  0.00000000000E+00  0.22210897864E+04  0.22210897864E+04  0.00000000000E+00 0. -1.
         -1   -1    0    0    0  501 -0.00000000000E+00 -0.00000000000E+00 -0.95201704018E+01  0.95201704018E+01  0.00000000000E+00 0.  1.
         25    2    1    2    0    0 -0.22465861815E+02  0.74415365037E+02  0.17151886776E+04  0.17214932977E+04  0.12499844989E+03 0.  0.
          4    1    3    3  502    0 -0.56142898944E+02 -0.22983839125E+01  0.96598639329E+03  0.96762008691E+03  0.12700000000E+01 0.  1.
         -4    1    3    3    0  502  0.33677037129E+02  0.76713748949E+02  0.74920228435E+03  0.75387321075E+03  0.12700000000E+01 0.  1.
          2    1    1    2  503    0  0.21474366480E+01 -0.85344304744E+02  0.43986321335E+03  0.44807132055E+03  0.00000000000E+00 0. -1.
         -1    1    1    2    0  501  0.20318425167E+02  0.10928939708E+02  0.56517724988E+02  0.61045338579E+02  0.00000000000E+00 0.  1.
<mgrwt>
<rscale>  0 0.43049938E+02</rscale>
<asrwt>0</asrwt>
<pdfrwt beam="1">  1        2 0.34170571E+00 0.80329476E+02</pdfrwt>
<pdfrwt beam="2">  1       -1 0.14646434E-02 0.23071197E+02</pdfrwt>
<totfact> 0.54811402E+03</totfact>
</mgrwt>
</event>
<event>
 7    1  0.4251803E-004  0.6471584E+02  0.7546771E-02  0.1467892E+00
         -1   -1    0    0    0  501 -0.00000000000E+00  0.00000000000E+00  0.21044778265E+03  0.21044778265E+03  0.00000000000E+00 0.  1.
          1   -1    0    0  503    0  0.00000000000E+00 -0.00000000000E+00 -0.10197832414E+04  0.10197832414E+04  0.00000000000E+00 0. -1.
         25    2    1    2    0    0 -0.33353676219E+02 -0.60863507469E+02 -0.39848056290E+03  0.42335634876E+03  0.12500801883E+03 0.  0.
          4    1    3    3  502    0 -0.11660279612E+02 -0.68150873272E+02 -0.87477052457E+02  0.11150942227E+03  0.12700000000E+01 0. -1.
         -4    1    3    3    0  502 -0.21693396606E+02  0.72873658033E+01 -0.31100351044E+03  0.31184692649E+03  0.12700000000E+01 0. -1.
          1    1    1    2  503    0  0.32536045965E+02 -0.38901948686E+01 -0.60311329238E+03  0.60400279085E+03  0.00000000000E+00 0. -1.
         -1    1    1    2    0  501  0.81763025376E+00  0.64753702337E+02  0.19225839650E+03  0.20287188448E+03  0.00000000000E+00 0.  1.
<mgrwt>
<rscale>  0 0.46049918E+02</rscale>
<asrwt>0</asrwt>
<pdfrwt beam="2">  1        1 0.15688972E+00 0.32767788E+02</pdfrwt>
<pdfrwt beam="1">  1       -1 0.32376584E-01 0.64715840E+02</pdfrwt>
<totfact> 0.15815301E+02</totfact>
</mgrwt>
</event>
<event>
 7    1  0.4251803E-004  0.1086832E+03  0.7546771E-02  0.1307196E+00
          2   -1    0    0  502    0  0.00000000000E+00  0.00000000000E+00  0.14832175568E+03  0.14832175568E+03  0.00000000000E+00 0.  1.
          1   -1    0    0  503    0 -0.00000000000E+00 -0.00000000000E+00 -0.84831602567E+03  0.84831602567E+03  0.00000000000E+00 0. -1.
         25    2    1    2    0    0 -0.76291605977E+02 -0.25190893322E+01 -0.13322776441E+03  0.19800335042E+03  0.12501573746E+03 0.  0.
          4    1    3    3  501    0 -0.40796564751E+02  0.49401101702E+02 -0.17735848023E+02  0.66490613999E+02  0.12700000000E+01 0.  1.
         -4    1    3    3    0  501 -0.35495041226E+02 -0.51920191035E+02 -0.11549191639E+03  0.13151273642E+03  0.12700000000E+01 0.  1.
          2    1    1    2  502    0 -0.18440559045E+02  0.69211387827E+02  0.99372722882E+02  0.12249574881E+03  0.00000000000E+00 0.  1.
          1    1    1    2  503    0  0.94732165022E+02 -0.66692298495E+02 -0.66613922846E+03  0.67613868213E+03  0.00000000000E+00 0. -1.
<mgrwt>
<rscale>  0 0.88229997E+02</rscale>
<asrwt>0</asrwt>
<pdfrwt beam="1">  1        2 0.22818732E-01 0.71625906E+02</pdfrwt>
<pdfrwt beam="2">  1        1 0.13051016E+00 0.10868320E+03</pdfrwt>
<totfact> 0.68778466E+02</totfact>
</mgrwt>
</event>
<event>
 7    1  0.4251803E-004  0.8469569E+02  0.7546771E-02  0.1373775E+00
          2   -1    0    0  503    0  0.00000000000E+00  0.00000000000E+00  0.21435730854E+03  0.21435730854E+03  0.00000000000E+00 0. -1.
          2   -1    0    0  502    0 -0.00000000000E+00 -0.00000000000E+00 -0.37296973517E+03  0.37296973517E+03  0.00000000000E+00 0. -1.
         25    2    1    2    0    0 -0.36255567715E+02  0.15171011752E+02 -0.16692278316E+03  0.21221082503E+03  0.12500237171E+03 0.  0.
          4    1    3    3  501    0  0.95435883540E+01 -0.42741584450E+02 -0.20822592294E+02  0.48508930825E+02  0.12700000000E+01 0.  1.
         -4    1    3    3    0  501 -0.45799156070E+02  0.57912596202E+02 -0.14610019086E+03  0.16370189420E+03  0.12700000000E+01 0.  1.
          2    1    1    2  502    0 -0.28993997036E+02  0.42722798286E+02 -0.16943087307E+03  0.17712343184E+03  0.00000000000E+00 0. -1.
          2    1    1    2  503    0  0.65249564752E+02 -0.57893810038E+02  0.17774122960E+03  0.19799278684E+03  0.00000000000E+00 0. -1.
<mgrwt>
<rscale>  0 0.66128881E+02</rscale>
<asrwt>0</asrwt>
<pdfrwt beam="1">  1        2 0.32978048E-01 0.84695687E+02</pdfrwt>
<pdfrwt beam="2">  1        2 0.57379959E-01 0.51632251E+02</pdfrwt>
<totfact> 0.20666952E+03</totfact>
</mgrwt>
</event>
<event>
 7    1  0.4251803E-004  0.6104006E+02  0.7546771E-02  0.1510873E+00
         -2   -1    0    0    0  501 -0.00000000000E+00  0.00000000000E+00  0.33043675703E+02  0.33043675703E+02  0.00000000000E+00 0.  1.
          1   -1    0    0  503    0  0.00000000000E+00 -0.00000000000E+00 -0.57260311963E+03  0.57260311963E+03  0.00000000000E+00 0. -1.
         25    2    1    2    0    0  0.38537991395E+02  0.72975084851E+02 -0.21956336214E+03  0.26579098270E+03  0.12500494670E+03 0.  0.
          4    1    3    3  502    0 -0.39294771628E+02  0.37545275415E+02 -0.13492207832E+03  0.14546238999E+03  0.12700000000E+01 0.  1.
         -4    1    3    3    0  502  0.77832763023E+02  0.35429809435E+02 -0.84641283827E+02  0.12032859271E+03  0.12700000000E+01 0.  1.
          1    1    1    2  503    0 -0.20173213563E+02 -0.54934570106E+02 -0.30392455770E+03  0.30950751576E+03  0.00000000000E+00 0. -1.
         -2    1    1    2    0  501 -0.18364777831E+02 -0.18040514745E+02 -0.16071524090E+02  0.30348296882E+02  0.00000000000E+00 0.  1.
<mgrwt>
<rscale>  0 0.39640657E+02</rscale>
<asrwt>0</asrwt>
<pdfrwt beam="2">  1        1 0.88092788E-01 0.61040058E+02</pdfrwt>
<pdfrwt beam="1">  1       -2 0.50836424E-02 0.25743450E+02</pdfrwt>
<totfact> 0.51738015E+03</totfact>
</mgrwt>
</event>
<event>
 7    1  0.4251803E-004  0.1086914E+03  0.7546771E-02  0.1366727E+00
          2   -1    0    0  502    0  0.00000000000E+00  0.00000000000E+00  0.24337312531E+04  0.24337312531E+04  0.00000000000E+00 0. -1.
          2   -1    0    0  503    0 -0.00000000000E+00 -0.00000000000E+00 -0.13513529177E+04  0.13513529177E+04  0.00000000000E+00 0. -1.
         25    2    1    2    0    0 -0.70071909935E+02 -0.27994359289E+01  0.36860569039E+02  0.14799091898E+03  0.12499880458E+03 0.  0.
          4    1    3    3  501    0 -0.59877388723E+02  0.53541860558E+01  0.81604063870E+02  0.10136471343E+03  0.12700000000E+01 0. -1.
         -4    1    3    3    0  501 -0.10194521212E+02 -0.81536219846E+01 -0.44743494831E+02  0.46626205549E+02  0.12700000000E+01 0. -1.
          2    1    1    2  502    0 -0.38512500426E+02  0.18324471720E+02  0.23387894480E+04  0.23391782918E+04  0.00000000000E+00 0. -1.
          2    1    1    2  503    0  0.10858441036E+03 -0.15525035792E+02 -0.12932716817E+04  0.12979149600E+04  0.00000000000E+00 0. -1.
<mgrwt>
<rscale>  0 0.68085655E+02</rscale>
<asrwt>0</asrwt>
<pdfrwt beam="1">  1        2 0.37442019E+00 0.42649724E+02</pdfrwt>
<pdfrwt beam="2">  1        2 0.20790045E+00 0.10869136E+03</pdfrwt>
<totfact> 0.15278922E+01</totfact>
</mgrwt>
</event>
<event>
 7    1  0.4251803E-004  0.1080842E+03  0.7546771E-02  0.1387527E+00
          1   -1    0    0  503    0 -0.00000000000E+00  0.00000000000E+00  0.44781649270E+03  0.44781649270E+03  0.00000000000E+00 0. -1.
          2   -1    0    0  502    0  0.00000000000E+00 -0.00000000000E+00 -0.19686281288E+03  0.19686281288E+03  0.00000000000E+00 0. -1.
         25    2    1    2    0    0  0.85960375050E+02 -0.49539867669E+02 -0.49075567934E+02  0.16696283472E+03  0.12499916896E+03 0.  0.
          4    1    3    3  501    0  0.56124639369E+02 -0.10535702940E+02  0.36858628374E+02  0.67979022988E+02  0.12700000000E+01 0. -1.
         -4    1    3    3    0  501  0.29835735681E+02 -0.39004164729E+02 -0.85934196307E+02  0.98983811731E+02  0.12700000000E+01 0. -1.
          2    1    1    2  502    0  0.21234728109E+02  0.29281598452E+02 -0.77079914474E+02  0.85144811357E+02  0.00000000000E+00 0. -1.
          1    1    1    2  503    0 -0.10719510316E+03  0.20258269217E+02  0.37710916223E+03  0.39257165951E+03  0.00000000000E+00 0. -1.
<mgrwt>
<rscale>  0 0.62525915E+02</rscale>
<asrwt>0</asrwt>
<pdfrwt beam="2">  1        2 0.30286587E-01 0.36170785E+02</pdfrwt>
<pdfrwt beam="1">  1        1 0.68894845E-01 0.10808419E+03</pdfrwt>
<totfact> 0.11964130E+03</totfact>
</mgrwt>
</event>
<event>
 7    1  0.4251803E-004  0.7685458E+02  0.7546771E-02  0.1441701E+00
          2   -1    0    0  503    0  0.00000000000E+00  0.00000000000E+00  0.14846752518E+04  0.14846752518E+04  0.00000000000E+00 0. -1.
         -1   -1    0    0    0  501 -0.00000000000E+00 -0.00000000000E+00 -0.55748007136E+02  0.55748007136E+02  0.00000000000E+00 0.  1.
         25    2    1    2    0    0  0.10499989357E+03  0.13040966315E+02  0.44350738194E+03  0.47277949552E+03  0.12500643622E+03 0.  0.
          4    1    3    3  502    0  0.62449516121E+02 -0.55118489087E+02  0.23432243263E+03  0.24868977711E+03  0.12700000000E+01 0.  1.
         -4    1    3    3    0  502  0.42550377449E+02  0.68159455402E+02  0.20918494931E+03  0.22408971841E+03  0.12700000000E+01 0.  1.
          2    1    1    2  503    0 -0.71980089176E+02 -0.18207081806E+02  0.10181566889E+04  0.10208602618E+04  0.00000000000E+00 0. -1.
         -1    1    1    2    0  501 -0.33019804394E+02  0.51661154915E+01 -0.32736826173E+02  0.46783501572E+02  0.00000000000E+00 0.  1.
<mgrwt>
<rscale>  0 0.50681307E+02</rscale>
<asrwt>0</asrwt>
<pdfrwt beam="1">  1        2 0.22841155E+00 0.76854580E+02</pdfrwt>
<pdfrwt beam="2">  1       -1 0.85766176E-02 0.33421494E+02</pdfrwt>
<totfact> 0.11569271E+03</totfact>
</mgrwt>
</event>
<event>
 7    1  0.4251803E-004  0.6402072E+02  0.7546771E-02  0.1459590E+00
          2   -1    0    0  502    0  0.00000000000E+00  0.00000000000E+00  0.10555401051E+04  0.10555401051E+04  0.00000000000E+00 0. -1.
          2   -1    0    0  503    0 -0.00000000000E+00 -0.00000000000E+00 -0.60611368556E+03  0.60611368556E+03  0.00000000000E+00 0. -1.
         25    2    1    2    0    0  0.41157675985E+02  0.83029946200E+02  0.16266423082E+03  0.22510777513E+03  0.12500372865E+03 0.  0.
          4    1    3    3  501    0  0.22141215485E+02  0.54511807342E+02 -0.16290141333E-01  0.58850520203E+02  0.12700000000E+01 0. -1.
         -4    1    3    3    0  501  0.19016460500E+02  0.28518138859E+02  0.16268052097E+03  0.16625725493E+03  0.12700000000E+01 0. -1.
          2    1    1    2  502    0 -0.28583517876E+02 -0.20494015948E+02  0.85952394767E+03  0.86024324398E+03  0.00000000000E+00 0. -1.
          2    1    1    2  503    0 -0.12574158109E+02 -0.62535930252E+02 -0.57276175894E+03  0.57630277158E+03  0.00000000000E+00 0. -1.
<mgrwt>
<rscale>  0 0.47452014E+02</rscale>
<asrwt>0</asrwt>
<pdfrwt beam="1">  1        2 0.16239078E+00 0.35171326E+02</pdfrwt>
<pdfrwt beam="2">  1        2 0.93248260E-01 0.64020722E+02</pdfrwt>
<totfact> 0.21838968E+02</totfact>
</mgrwt>
</event>
<event>
 7    1  0.4251803E-004  0.5433310E+02  0.7546771E-02  0.1473766E+00
          1   -1    0    0  503    0  0.00000000000E+00  0.00000000000E+00  0.27629985348E+04  0.27629985348E+04  0.00000000000E+00 0. -1.
         -1   -1    0    0    0  501 -0.00000000000E+00 -0.00000000000E+00 -0.36291325453E+02  0.36291325453E+02  0.00000000000E+00 0.  1.
         25    2    1    2    0    0 -0.12228100764E+02 -0.68717366795E+02  0.14772495034E+04  0.14841709127E+04  0.12500239886E+03 0.  0.
          4    1    3    3  502    0 -0.17043210794E+02 -0.68314941489E+02  0.14774917944E+04  0.14791690295E+04  0.12700000000E+01 0.  1.
         -4    1    3    3    0  502  0.48151100299E+01 -0.40242530584E+00 -0.24229099191E+00  0.50018832105E+01  0.12700000000E+01 0.  1.
          1    1    1    2  503    0  0.32575905134E+02  0.18420187698E+02  0.12594021049E+04  0.12599579972E+04  0.00000000000E+00 0. -1.
         -1    1    1    2    0  501 -0.20347804370E+02  0.50297179098E+02 -0.99443990259E+01  0.55160950317E+02  0.00000000000E+00 0.  1.
<mgrwt>
<rscale>  0 0.45092308E+02</rscale>
<asrwt>0</asrwt>
<pdfrwt beam="1">  1        1 0.42507653E+00 0.37423160E+02</pdfrwt>
<pdfrwt beam="2">  1       -1 0.55832830E-02 0.54333099E+02</pdfrwt>
<totfact> 0.18866546E+02</totfact>
</mgrwt>
</event>
<event>
 7    1  0.4251803E-004  0.4405875E+02  0.7546771E-02  0.1525047E+00
         -1   -1    0    0    0  501 -0.00000000000E+00  0.00000000000E+00  0.23224547156E+03  0.23224547156E+03  0.00000000000E+00 0.  1.
          1   -1    0    0  503    0  0.00000000000E+00 -0.00000000000E+00 -0.99094126371E+02  0.99094126371E+02  0.00000000000E+00 0. -1.
         25    2    1    2    0    0  0.15561841944E+02 -0.13674328293E+02  0.12068775124E+03  0.17500188811E+03  0.12502387517E+03 0.  0.
          4    1    3    3  502    0  0.27251384260E+02 -0.62205107084E+02  0.36477305407E+02  0.77099416348E+02  0.12700000000E+01 0.  1.
         -4    1    3    3    0  502 -0.11689542316E+02  0.48530778791E+02  0.84210445834E+02  0.97902471762E+02  0.12700000000E+01 0.  1.
          1    1    1    2  503    0 -0.69868159287E+01  0.44952176188E+02 -0.60964034596E+02  0.76066597498E+02  0.00000000000E+00 0. -1.
         -1    1    1    2    0  501 -0.85750260153E+01 -0.31277847894E+02  0.73427628547E+02  0.80271112327E+02  0.00000000000E+00 0.  1.
<mgrwt>
<rscale>  0 0.37800974E+02</rscale>
<asrwt>0</asrwt>
<pdfrwt beam="2">  1        1 0.15245250E-01 0.44058754E+02</pdfrwt>
<pdfrwt beam="1">  1       -1 0.35730072E-01 0.32432003E+02</pdfrwt>
<totfact> 0.24684055E+03</totfact>
</mgrwt>
</event>
<event>
 7    1  0.4251803E-004  0.3820963E+02  0.7546771E-02  0.1533091E+00
         -2   -1    0    0    0  501 -0.00000000000E+00  0.00000000000E+00  0.93366716074E+02  0.93366716074E+02  0.00000000000E+00 0.  1.
          2   -1    0    0  503    0  0.00000000000E+00 -0.00000000000E+00 -0.13022929773E+03  0.13022929773E+03  0.00000000000E+00 0. -1.
         25    2    1    2    0    0  0.10329541755E+02 -0.13863199606E+02 -0.33473997018E+02  0.13055362762E+03  0.12499941388E+03 0.  0.
          4    1    3    3  502    0 -0.51766057639E+02 -0.18073961272E+02  0.84627147445E+01  0.55494353230E+02  0.12700000000E+01 0. -1.
         -4    1    3    3    0  502  0.62095599395E+02  0.42107616659E+01 -0.41936711762E+02  0.75059274386E+02  0.12700000000E+01 0. -1.
          2    1    1    2  503    0  0.35291107021E+02 -0.34723743164E+01  0.17987781970E+02  0.39762795656E+02  0.00000000000E+00 0. -1.
         -2    1    1    2    0  501 -0.45620648776E+02  0.17335573922E+02 -0.21376366611E+02  0.53279590534E+02  0.00000000000E+00 0.  1.
<mgrwt>
<rscale>  0 0.36809938E+02</rscale>
<asrwt>0</asrwt>
<pdfrwt beam="2">  1        2 0.20035277E-01 0.35461523E+02</pdfrwt>
<pdfrwt beam="1">  1       -2 0.14364110E-01 0.38209626E+02</pdfrwt>
<totfact> 0.84355508E+03</totfact>
</mgrwt>
</event>
<event>
 7    1  0.4251803E-004  0.7491423E+02  0.7546771E-02  0.1439999E+00
          2   -1    0    0  503    0  0.00000000000E+00  0.00000000000E+00  0.17646449335E+04  0.17646449335E+04  0.00000000000E+00 0. -1.
         -1   -1    0    0    0  501 -0.00000000000E+00 -0.00000000000E+00 -0.80724986494E+02  0.80724986494E+02  0.00000000000E+00 0.  1.
         25    2    1    2    0    0  0.70046828056E+02 -0.76681740610E+02  0.16138694763E+03  0.22908102552E+03  0.12508286023E+03 0.  0.
          4    1    3    3  502    0  0.42753725628E+00 -0.86004538942E+02  0.56753469716E+02  0.10305111708E+03  0.12700000000E+01 0.  1.
         -4    1    3    3    0  502  0.69619290800E+02  0.93227983322E+01  0.10463347791E+03  0.12602990844E+03  0.12700000000E+01 0.  1.
          2    1    1    2  503    0 -0.29431329721E+02  0.18429884146E+02  0.15422091331E+04  0.15426000370E+04  0.00000000000E+00 0. -1.
         -1    1    1    2    0  501 -0.40615498336E+02  0.58251856464E+02 -0.19676133713E+02  0.73688857533E+02  0.00000000000E+00 0.  1.
<mgrwt>
<rscale>  0 0.51004293E+02</rscale>
<asrwt>0</asrwt>
<pdfrwt beam="1">  1        2 0.27148381E+00 0.34725550E+02</pdfrwt>
<pdfrwt beam="2">  1       -1 0.12419230E-01 0.74914233E+02</pdfrwt>
<totfact> 0.55927745E+02</totfact>
</mgrwt>
</event>
<event>
 7    1  0.4251803E-004  0.7345477E+02  0.7546771E-02  0.1442857E+00
          3   -1    0    0  503    0 -0.00000000000E+00  0.00000000000E+00  0.25635989616E+03  0.25635989616E+03  0.00000000000E+00 0. -1.
          2   -1    0    0  502    0  0.00000000000E+00 -0.00000000000E+00 -0.10489936157E+04  0.10489936157E+04  0.00000000000E+00 0. -1.
         25    2    1    2    0    0 -0.77011486817E+02  0.75159277850E+02  0.19356054669E+02  0.16606803339E+03  0.12499699482E+03 0.  0.
          4    1    3    3  501    0  0.76291518795E+01 -0.25730836500E+02 -0.13878697696E+02  0.30240883835E+02  0.12700000000E+01 0.  1.
         -4    1    3    3    0  501 -0.84640638697E+02  0.10089011435E+03  0.33234752365E+02  0.13582714956E+03  0.12700000000E+01 0.  1.
          2    1    1    2  502    0  0.51698906811E+02 -0.51469861800E+02 -0.97241974008E+03  0.97515233402E+03  0.00000000000E+00 0. -1.
          3    1    1    2  503    0  0.25312580007E+02 -0.23689416050E+02  0.16042996590E+03  0.16413314443E+03  0.00000000000E+00 0. -1.
<mgrwt>
<rscale>  0 0.50463626E+02</rscale>
<asrwt>0</asrwt>
<pdfrwt beam="2">  1        2 0.16138363E+00 0.73454769E+02</pdfrwt>
<pdfrwt beam="1">  1        3 0.39439984E-01 0.34668648E+02</pdfrwt>
<totfact> 0.91910649E+01</totfact>
</mgrwt>
</event>
<event>
 7    1  0.4251803E-004  0.5484549E+02  0.7546771E-02  0.1511440E+00
         -1   -1    0    0    0  501 -0.00000000000E+00  0.00000000000E+00  0.14984614354E+03  0.14984614354E+03  0.00000000000E+00 0.  1.
          1   -1    0    0  503    0  0.00000000000E+00 -0.00000000000E+00 -0.92799517548E+02  0.92799517548E+02  0.00000000000E+00 0. -1.
         25    2    1    2    0    0 -0.30821138393E+02 -0.28566136005E+02  0.53309955280E+02  0.14224841731E+03  0.12500677660E+03 0.  0.
          4    1    3    3  502    0  0.31731956038E+02 -0.29519532580E+02 -0.18378525888E+02  0.47092493580E+02  0.12700000000E+01 0. -1.
         -4    1    3    3    0  502 -0.62553094431E+02  0.95339657502E+00  0.71688481168E+02  0.95155923726E+02  0.12700000000E+01 0. -1.
          1    1    1    2  503    0 -0.27679911478E+02  0.69585299281E+01 -0.18698174475E+02  0.34120673599E+02  0.00000000000E+00 0. -1.
         -1    1    1    2    0  501  0.58501049871E+02  0.21607606077E+02  0.22434845183E+02  0.66276570180E+02  0.00000000000E+00 0.  1.
<mgrwt>
<rscale>  0 0.39564564E+02</rscale>
<asrwt>0</asrwt>
<pdfrwt beam="2">  1        1 0.14276849E-01 0.28541174E+02</pdfrwt>
<pdfrwt beam="1">  1       -1 0.23053253E-01 0.54845491E+02</pdfrwt>
<totfact> 0.53710336E+03</totfact>
</mgrwt>
</event>
<event>
 7    1  0.4251803E-004  0.8875732E+02  0.7546771E-02  0.1457857E+00
          2   -1    0    0  502    0  0.00000000000E+00  0.00000000000E+00  0.23180926420E+03  0.23180926420E+03  0.00000000000E+00 0. -1.
          1   -1    0    0  503    0 -0.00000000000E+00 -0.00000000000E+00 -0.21676330053E+03  0.21676330053E+03  0.00000000000E+00 0. -1.
         25    2    1    2    0    0 -0.62876971786E+02  0.69862347163E+02 -0.12137961986E+03  0.19796067404E+03  0.12498461991E+03 0.  0.
          4    1    3    3  501    0 -0.97988316985E+02  0.70363098056E+02 -0.86472117528E+02  0.14843084532E+03  0.12700000000E+01 0.  1.
         -4    1    3    3    0  501  0.35111345199E+02 -0.50075089275E+00 -0.34907502334E+02  0.49529828713E+02  0.12700000000E+01 0.  1.
          2    1    1    2  502    0  0.39083375253E+02 -0.79552282702E+02  0.17965208228E+03  0.20032709895E+03  0.00000000000E+00 0. -1.
          1    1    1    2  503    0  0.23793596533E+02  0.96899355387E+01 -0.43226498747E+02  0.50284791743E+02  0.00000000000E+00 0. -1.
<mgrwt>
<rscale>  0 0.47752161E+02</rscale>
<asrwt>0</asrwt>
<pdfrwt beam="1">  1        2 0.35662964E-01 0.88757321E+02</pdfrwt>
<pdfrwt beam="2">  1        1 0.33348200E-01 0.25691051E+02</pdfrwt>
<totfact> 0.24585130E+03</totfact>
</mgrwt>
</event>
<event>
 7    1  0.4251803E-004  0.8905724E+02  0.7546771E-02  0.1420644E+00
          1   -1    0    0  502    0  0.00000000000E+00  0.00000000000E+00  0.24057589073E+03  0.24057589073E+03  0.00000000000E+00 0. -1.
          1   -1    0    0  503    0 -0.00000000000E+00 -0.00000000000E+00 -0.15133221039E+04  0.15133221039E+04  0.00000000000E+00 0. -1.
         25    2    1    2    0    0  0.11630565117E+03  0.19198165401E+02 -0.12680862222E+03  0.21354718421E+03  0.12500559655E+03 0.  0.
          4    1    3    3  501    0  0.40196601091E+02  0.34581381677E+02  0.12101419549E+02  0.54403087717E+02  0.12700000000E+01 0.  1.
         -4    1    3    3    0  501  0.76109050074E+02 -0.15383216276E+02 -0.13891004177E+03  0.15914409650E+03  0.12700000000E+01 0.  1.
          1    1    1    2  502    0 -0.87465778858E+02 -0.15235046391E+01  0.18728031111E+03  0.20670389079E+03  0.00000000000E+00 0. -1.
          1    1    1    2  503    0 -0.28839872307E+02 -0.17674660762E+02 -0.13332179021E+04  0.13336469197E+04  0.00000000000E+00 0. -1.
<mgrwt>
<rscale>  0 0.54884997E+02</rscale>
<asrwt>0</asrwt>
<pdfrwt beam="1">  1        1 0.37011675E-01 0.89057244E+02</pdfrwt>
<pdfrwt beam="2">  1        1 0.23281879E+00 0.33825018E+02</pdfrwt>
<totfact> 0.11879035E+02</totfact>
</mgrwt>
</event>
<event>
 7    1  0.4251803E-004  0.8502844E+02  0.7546771E-02  0.1372757E+00
         -3   -1    0    0    0  501 -0.00000000000E+00  0.00000000000E+00  0.85028309304E+03  0.85028309304E+03  0.00000000000E+00 0.  1.
          1   -1    0    0  503    0  0.00000000000E+00 -0.00000000000E+00 -0.10649973716E+04  0.10649973716E+04  0.00000000000E+00 0. -1.
         25    2    1    2    0    0 -0.12205127268E+03  0.41396271385E+02  0.33708086551E+03  0.38191376852E+03  0.12499780895E+03 0.  0.
          4    1    3    3  502    0 -0.69772588095E+02 -0.99382079009E+01  0.52074799653E+02  0.87637775444E+02  0.12700000000E+01 0. -1.
         -4    1    3    3    0  502 -0.52278684589E+02  0.51334479286E+02  0.28500606585E+03  0.29427599307E+03  0.12700000000E+01 0. -1.
          1    1    1    2  503    0  0.44486129311E+02 -0.26660641867E+02 -0.10387545085E+04  0.10400484289E+04  0.00000000000E+00 0. -1.
         -3    1    1    2    0  501  0.77565143373E+02 -0.14735629518E+02  0.48695936439E+03  0.49331826726E+03  0.00000000000E+00 0.  1.
<mgrwt>
<rscale>  0 0.66406764E+02</rscale>
<asrwt>0</asrwt>
<pdfrwt beam="2">  1        1 0.16384575E+00 0.51863335E+02</pdfrwt>
<pdfrwt beam="1">  1       -3 0.13081278E+00 0.85028437E+02</pdfrwt>
<totfact> 0.42000111E+00</totfact>
</mgrwt>
</event>
<event>
 7    1  0.4251803E-004  0.3852040E+02  0.7546771E-02  0.1560285E+00
         -1   -1    0    0    0  501  0.00000000000E+00  0.00000000000E+00  0.18492831065E+02  0.18492831065E+02  0.00000000000E+00 0.  1.
         -3   -1    0    0    0  502 -0.00000000000E+00 -0.00000000000E+00 -0.80066511338E+03  0.80066511338E+03  0.00000000000E+00 0.  1.
         25    2    1    2    0    0  0.58715781668E+02  0.23746518063E+01 -0.41212099107E+03  0.43465672979E+03  0.12501831662E+03 0.  0.
          4    1    3    3  503    0  0.62904482216E+02  0.28020434862E+02 -0.99829402733E+02  0.12128330966E+03  0.12700000000E+01 0. -1.
         -4    1    3    3    0  503 -0.41887005481E+01 -0.25645783056E+02 -0.31229158833E+03  0.31337342013E+03  0.12700000000E+01 0. -1.
         -1    1    1    2    0  501 -0.24407997129E+02 -0.16594701301E+02 -0.28810138409E+02  0.41245102864E+02  0.00000000000E+00 0.  1.
         -3    1    1    2    0  502 -0.34307784539E+02  0.14220049495E+02 -0.34124115284E+03  0.34325611179E+03  0.00000000000E+00 0.  1.
<mgrwt>
<rscale>  0 0.33718377E+02</rscale>
<asrwt>0</asrwt>
<pdfrwt beam="1">  1       -1 0.28450519E-02 0.29514987E+02</pdfrwt>
<pdfrwt beam="2">  1       -3 0.12317921E+00 0.38520396E+02</pdfrwt>
<totfact> 0.76515985E+02</totfact>
</mgrwt>
</event>
<event>
 7    1  0.4251803E-004  0.6827088E+02  0.7546771E-02  0.1437967E+00
          2   -1    0    0  502    0  0.00000000000E+00  0.00000000000E+00  0.27389066035E+04  0.27389066035E+04  0.00000000000E+00 0. -1.
          1   -1    0    0  503    0 -0.00000000000E+00 -0.00000000000E+00 -0.26508883633E+02  0.26508883633E+02  0.00000000000E+00 0. -1.
         25    2    1    2    0    0 -0.72767278884E+02  0.53119309666E+02  0.14319823493E+04  0.14402499160E+04  0.12501853424E+03 0.  0.
          4    1    3    3  501    0 -0.85233241114E+02  0.62604763396E+02  0.68625367174E+03  0.69435565575E+03  0.12700000000E+01 0.  1.
         -4    1    3    3    0  501  0.12465962230E+02 -0.94854537303E+01  0.74572867759E+03  0.74589426029E+03  0.12700000000E+01 0.  1.
          2    1    1    2  502    0  0.38335631969E+02  0.52125471835E+01  0.12505326679E+04  0.12511309862E+04  0.00000000000E+00 0. -1.
          1    1    1    2  503    0  0.34431646915E+02 -0.58331856850E+02  0.29882702627E+02  0.74034584818E+02  0.00000000000E+00 0. -1.
<mgrwt>
<rscale>  0 0.51393483E+02</rscale>
<asrwt>0</asrwt>
<pdfrwt beam="1">  1        2 0.42137002E+00 0.38688387E+02</pdfrwt>
<pdfrwt beam="2">  1        1 0.40782919E-02 0.68270876E+02</pdfrwt>
<totfact> 0.10387422E+03</totfact>
</mgrwt>
</event>
<event>
 7    1  0.4251803E-004  0.5524675E+02  0.7546771E-02  0.1434482E+00
          2   -1    0    0  503    0  0.00000000000E+00  0.00000000000E+00  0.98905603806E+03  0.98905603806E+03  0.00000000000E+00 0. -1.
         -1   -1    0    0    0  501 -0.00000000000E+00 -0.00000000000E+00 -0.49670893140E+03  0.49670893140E+03  0.00000000000E+00 0.  1.
         25    2    1    2    0    0 -0.66078620576E+02 -0.79444560514E+02 -0.63753474928E+02  0.17425878174E+03  0.12499518053E+03 0.  0.
          4    1    3    3  502    0 -0.51817548781E+02  0.24289207805E+02 -0.18233145542E+02  0.60075656250E+02  0.12700000000E+01 0. -1.
         -4    1    3    3    0  502 -0.14261071795E+02 -0.10373376832E+03 -0.45520329385E+02  0.11418312549E+03  0.12700000000E+01 0. -1.
          2    1    1    2  503    0  0.30404845990E+02  0.45740274078E+02  0.93139671908E+03  0.93301472423E+03  0.00000000000E+00 0. -1.
         -1    1    1    2    0  501  0.35673774586E+02  0.33704286436E+02 -0.37529613749E+03  0.37849146349E+03  0.00000000000E+00 0.  1.
<mgrwt>
<rscale>  0 0.52070818E+02</rscale>
<asrwt>0</asrwt>
<pdfrwt beam="1">  1        2 0.15216247E+00 0.55246748E+02</pdfrwt>
<pdfrwt beam="2">  1       -1 0.76416759E-01 0.49077460E+02</pdfrwt>
<totfact> 0.62691476E+01</totfact>
</mgrwt>
</event>
<event>
 7    1  0.4251803E-004  0.7251770E+02  0.7546771E-02  0.1399145E+00
          1   -1    0    0  503    0 -0.00000000000E+00  0.00000000000E+00  0.13648147042E+03  0.13648147042E+03  0.00000000000E+00 0. -1.
          2   -1    0    0  502    0  0.00000000000E+00 -0.00000000000E+00 -0.15351872285E+04  0.15351872285E+04  0.00000000000E+00 0. -1.
         25    2    1    2    0    0  0.68764134372E+02  0.68075538723E+02 -0.29141387645E+03  0.33152496317E+03  0.12499587460E+03 0.  0.
          4    1    3    3  501    0  0.10262402299E+03  0.59396511858E+02 -0.18718833110E+03  0.22158682252E+03  0.12700000000E+01 0. -1.
         -4    1    3    3    0  501 -0.33859888618E+02  0.86790268652E+01 -0.10422554535E+03  0.10993814065E+03  0.12700000000E+01 0. -1.
          2    1    1    2  502    0 -0.19646609796E+02 -0.69116913704E+02 -0.12174281579E+04  0.12195468243E+04  0.00000000000E+00 0. -1.
          1    1    1    2  503    0 -0.49117524576E+02  0.10413749803E+01  0.11013627631E+03  0.12059691141E+03  0.00000000000E+00 0. -1.
<mgrwt>
<rscale>  0 0.59688278E+02</rscale>
<asrwt>0</asrwt>
<pdfrwt beam="2">  1        2 0.23618265E+00 0.72517704E+02</pdfrwt>
<pdfrwt beam="1">  1        1 0.20997149E-01 0.49128563E+02</pdfrwt>
<totfact> 0.44967971E+02</totfact>
</mgrwt>
</event>
<event>
 7    1  0.4251803E-004  0.9460508E+02  0.7546771E-02  0.1390197E+00
         -1   -1    0    0    0  501 -0.00000000000E+00  0.00000000000E+00  0.11853694844E+04  0.11853694844E+04  0.00000000000E+00 0.  1.
          2   -1    0    0  503    0  0.00000000000E+00 -0.00000000000E+00 -0.19489133178E+02  0.19489133178E+02  0.00000000000E+00 0. -1.
         25    2    1    2    0    0 -0.13720495935E+02  0.10490952376E+03  0.76740283453E+03  0.78468069555E+03  0.12498969294E+03 0.  0.
          4    1    3    3  502    0 -0.23565244505E+02  0.12415577612E+03  0.47655002052E+03  0.49302283157E+03  0.12700000000E+01 0.  1.
         -4    1    3    3    0  502  0.98447485698E+01 -0.19246252358E+02  0.29085281401E+03  0.29165786398E+03  0.12700000000E+01 0.  1.
          2    1    1    2  503    0 -0.30195689888E+02 -0.26908834308E+02  0.84354866120E+02  0.93550032014E+02  0.00000000000E+00 0. -1.
         -1    1    1    2    0  501  0.43916185823E+02 -0.78000689454E+02  0.31412265057E+03  0.32662789002E+03  0.00000000000E+00 0.  1.
<mgrwt>
<rscale>  0 0.61857748E+02</rscale>
<asrwt>0</asrwt>
<pdfrwt beam="2">  1        2 0.29983291E-02 0.40445829E+02</pdfrwt>
<pdfrwt beam="1">  1       -1 0.18236448E+00 0.94605085E+02</pdfrwt>
<totfact> 0.69186169E+02</totfact>
</mgrwt>
</event>
<event>
 7    1  0.4251803E-004  0.3843191E+02  0.7546771E-02  0.1559188E+00
          3   -1    0    0  503    0 -0.00000000000E+00  0.00000000000E+00  0.44724104862E+02  0.44724104862E+02  0.00000000000E+00 0. -1.
          1   -1    0    0  502    0  0.00000000000E+00 -0.00000000000E+00 -0.55813249664E+03  0.55813249664E+03  0.00000000000E+00 0. -1.
         25    2    1    2    0    0  0.43982036362E+02 -0.25348268947E+02 -0.28212517429E+03  0.31272571261E+03  0.12500321236E+03 0.  0.
          4    1    3    3  501    0 -0.18180815661E+01  0.11454297755E+02  0.96192219003E+01  0.15121133807E+02  0.12700000000E+01 0. -1.
         -4    1    3    3    0  501  0.45800117928E+02 -0.36802566702E+02 -0.29174439619E+03  0.29760457881E+03  0.12700000000E+01 0. -1.
          1    1    1    2  502    0 -0.15696134224E+02  0.34692894520E+02 -0.25134681536E+03  0.25421484448E+03  0.00000000000E+00 0. -1.
          3    1    1    2  503    0 -0.28285902138E+02 -0.93446255722E+01  0.20063597871E+02  0.35916044414E+02  0.00000000000E+00 0. -1.
<mgrwt>
<rscale>  0 0.33835891E+02</rscale>
<asrwt>0</asrwt>
<pdfrwt beam="2">  1        1 0.85866535E-01 0.38431914E+02</pdfrwt>
<pdfrwt beam="1">  1        3 0.68806318E-02 0.29789500E+02</pdfrwt>
<totfact> 0.22930365E+03</totfact>
</mgrwt>
</event>
<event>
 7    1  0.4251803E-004  0.1157838E+03  0.7546771E-02  0.1316050E+00
          2   -1    0    0  503    0  0.00000000000E+00  0.00000000000E+00  0.47120207650E+04  0.47120207650E+04  0.00000000000E+00 0.  1.
         -2   -1    0    0    0  501 -0.00000000000E+00 -0.00000000000E+00 -0.89518616483E+01  0.89518616483E+01  0.00000000000E+00 0.  1.
         25    2    1    2    0    0  0.12702545872E+03  0.47639783246E+02  0.19371055540E+04  0.19458694069E+04  0.12499922128E+03 0.  0.
          4    1    3    3  502    0  0.84830806347E+02 -0.27310129814E+02  0.67868249467E+03  0.68450978836E+03  0.12700000000E+01 0. -1.
         -4    1    3    3    0  502  0.42194652373E+02  0.74949913060E+02  0.12584230593E+04  0.12613596185E+04  0.12700000000E+01 0. -1.
          2    1    1    2  503    0 -0.11246075248E+03  0.12682038359E+02  0.24754699437E+04  0.24780556283E+04  0.00000000000E+00 0.  1.
         -2    1    1    2    0  501 -0.14564706242E+02 -0.60321821605E+02  0.29049340564E+03  0.29704759139E+03  0.00000000000E+00 0.  1.
<mgrwt>
<rscale>  0 0.84764324E+02</rscale>
<asrwt>0</asrwt>
<pdfrwt beam="1">  1        2 0.72492429E+00 0.11578378E+03</pdfrwt>
<pdfrwt beam="2">  1       -2 0.13772132E-02 0.62055240E+02</pdfrwt>
<totfact> 0.14199763E+02</totfact>
</mgrwt>
</event>
<event>
 7    1  0.4251803E-004  0.1038286E+03  0.7546771E-02  0.1297113E+00
         -1   -1    0    0    0  501 -0.00000000000E+00  0.00000000000E+00  0.11946331410E+04  0.11946331410E+04  0.00000000000E+00 0.  1.
          1   -1    0    0  503    0  0.00000000000E+00 -0.00000000000E+00 -0.86035850688E+03  0.86035850688E+03  0.00000000000E+00 0. -1.
         25    2    1    2    0    0  0.65406726383E+02  0.17259182672E+03 -0.47769774244E+03  0.52714994408E+03  0.12500380757E+03 0.  0.
          4    1    3    3  502    0 -0.73754391576E+01  0.10119770425E+03 -0.13061183973E+03  0.16539781747E+03  0.12700000000E+01 0. -1.
         -4    1    3    3    0  502  0.72782165541E+02  0.71394122471E+02 -0.34708590271E+03  0.36175212661E+03  0.12700000000E+01 0. -1.
          1    1    1    2  503    0 -0.38484832187E+02 -0.72692253120E+02 -0.35088209988E+03  0.36039352656E+03  0.00000000000E+00 0. -1.
         -1    1    1    2    0  501 -0.26921894196E+02 -0.99899573598E+02  0.11628544764E+04  0.11674481773E+04  0.00000000000E+00 0.  1.
<mgrwt>
<rscale>  0 0.92412217E+02</rscale>
<asrwt>0</asrwt>
<pdfrwt beam="2">  1        1 0.13236285E+00 0.82251115E+02</pdfrwt>
<pdfrwt beam="1">  1       -1 0.18378971E+00 0.10382860E+03</pdfrwt>
<totfact> 0.51699748E+00</totfact>
</mgrwt>
</event>
<event>
 7    1  0.4251803E-004  0.4815320E+02  0.7546771E-02  0.1474922E+00
         -1   -1    0    0    0  501 -0.00000000000E+00  0.00000000000E+00  0.47616536706E+02  0.47616536706E+02  0.00000000000E+00 0.  1.
          1   -1    0    0  503    0  0.00000000000E+00 -0.00000000000E+00 -0.77562103751E+03  0.77562103751E+03  0.00000000000E+00 0.  1.
         25    2    1    2    0    0 -0.62170182145E+02  0.54115627415E+02 -0.25264434779E+03  0.29366538242E+03  0.12496622617E+03 0.  0.
          4    1    3    3  502    0 -0.48180163092E+02 -0.44752278596E+01 -0.21975328347E+03  0.22502105296E+03  0.12700000000E+01 0. -1.
         -4    1    3    3    0  502 -0.13990019053E+02  0.58590855275E+02 -0.32891064327E+02  0.68644329463E+02  0.12700000000E+01 0. -1.
          1    1    1    2  503    0  0.19532426188E+02 -0.37046217552E+02 -0.48142741497E+03  0.48324558331E+03  0.00000000000E+00 0.  1.
         -1    1    1    2    0  501  0.42637755957E+02 -0.17069409863E+02  0.60672619540E+01  0.46326608485E+02  0.00000000000E+00 0.  1.
<mgrwt>
<rscale>  0 0.44907218E+02</rscale>
<asrwt>0</asrwt>
<pdfrwt beam="2">  1        1 0.11932632E+00 0.41880042E+02</pdfrwt>
<pdfrwt beam="1">  1       -1 0.73256209E-02 0.48153204E+02</pdfrwt>
<totfact> 0.22773268E+03</totfact>
</mgrwt>
</event>
<event>
 7    1  0.4251803E-004  0.5165942E+02  0.7546771E-02  0.1461597E+00
          2   -1    0    0  502    0  0.00000000000E+00  0.00000000000E+00  0.20593705741E+02  0.20593705741E+02  0.00000000000E+00 0. -1.
          2   -1    0    0  503    0 -0.00000000000E+00 -0.00000000000E+00 -0.20255235140E+04  0.20255235140E+04  0.00000000000E+00 0. -1.
         25    2    1    2    0    0 -0.23250683149E+01  0.81967906498E+02 -0.91961811169E+03  0.93169018489E+03  0.12499994253E+03 0.  0.
          4    1    3    3  501    0  0.54112442163E+02  0.51634418223E+02 -0.66232912550E+03  0.66654013602E+03  0.12700000000E+01 0. -1.
         -4    1    3    3    0  501 -0.56437510477E+02  0.30333488275E+02 -0.25728898619E+03  0.26515004886E+03  0.12700000000E+01 0. -1.
          2    1    1    2  502    0  0.23659997567E+02 -0.44683602482E+02 -0.31141415015E+02  0.59381878926E+02  0.00000000000E+00 0. -1.
          2    1    1    2  503    0 -0.21334929252E+02 -0.37284304015E+02 -0.10541702815E+04  0.10550451559E+04  0.00000000000E+00 0. -1.
<mgrwt>
<rscale>  0 0.47107648E+02</rscale>
<asrwt>0</asrwt>
<pdfrwt beam="1">  1        2 0.31682614E-02 0.51659419E+02</pdfrwt>
<pdfrwt beam="2">  1        2 0.31161911E+00 0.42956938E+02</pdfrwt>
<totfact> 0.33225207E+03</totfact>
</mgrwt>
</event>
<event>
 7    1  0.4251803E-004  0.7288652E+02  0.7546771E-02  0.1375007E+00
          1   -1    0    0  503    0  0.00000000000E+00  0.00000000000E+00  0.21729465204E+03  0.21729465204E+03  0.00000000000E+00 0. -1.
         -1   -1    0    0    0  501 -0.00000000000E+00 -0.00000000000E+00 -0.12720391323E+03  0.12720391323E+03  0.00000000000E+00 0.  1.
         25    2    1    2    0    0  0.70384630998E+02 -0.74153148847E+02  0.12511230135E+03  0.20428038364E+03  0.12499880571E+03 0.  0.
          4    1    3    3  502    0  0.84766454603E+02 -0.28108061009E+02  0.24373340291E+02  0.92580168160E+02  0.12700000000E+01 0. -1.
         -4    1    3    3    0  502 -0.14381823605E+02 -0.46045087837E+02  0.10073896106E+03  0.11170021548E+03  0.12700000000E+01 0. -1.
          1    1    1    2  503    0 -0.85307353776E+00  0.59386613821E+02  0.32616624402E+01  0.59482233292E+02  0.00000000000E+00 0. -1.
         -1    1    1    2    0  501 -0.69531557460E+02  0.14766535026E+02 -0.38283224975E+02  0.80735948338E+02  0.00000000000E+00 0.  1.
<mgrwt>
<rscale>  0 0.65794608E+02</rscale>
<asrwt>0</asrwt>
<pdfrwt beam="1">  1        1 0.33429946E-01 0.59392741E+02</pdfrwt>
<pdfrwt beam="2">  1       -1 0.19569833E-01 0.72886524E+02</pdfrwt>
<totfact> 0.25838769E+03</totfact>
</mgrwt>
</event>
<event>
 7    1  0.4251803E-004  0.3673962E+02  0.7546771E-02  0.1577726E+00
          1   -1    0    0  503    0 -0.00000000000E+00  0.00000000000E+00  0.28590641138E+02  0.28590641138E+02  0.00000000000E+00 0. -1.
          2   -1    0    0  502    0  0.00000000000E+00 -0.00000000000E+00 -0.56085583662E+03  0.56085583662E+03  0.00000000000E+00 0. -1.
         25    2    1    2    0    0 -0.36453811540E+02  0.44522090914E+02 -0.42479259605E+03  0.44652535471E+03  0.12500018314E+03 0.  0.
          4    1    3    3  501    0 -0.19176155635E+02 -0.40408126024E+02 -0.87551040077E+02  0.98322627672E+02  0.12700000000E+01 0.  1.
         -4    1    3    3    0  501 -0.17277655905E+02  0.84930216937E+02 -0.33724155597E+03  0.34820272704E+03  0.12700000000E+01 0.  1.
          2    1    1    2  502    0  0.26819314055E+02 -0.18505763698E+02 -0.11032087344E+03  0.11503231726E+03  0.00000000000E+00 0. -1.
          1    1    1    2  503    0  0.96344974849E+01 -0.26016327216E+02  0.28482740091E+01  0.27888805790E+02  0.00000000000E+00 0. -1.
<mgrwt>
<rscale>  0 0.31925951E+02</rscale>
<asrwt>0</asrwt>
<pdfrwt beam="2">  1        2 0.86285517E-01 0.36739616E+02</pdfrwt>
<pdfrwt beam="1">  1        1 0.43985600E-02 0.27742978E+02</pdfrwt>
<totfact> 0.12055688E+04</totfact>
</mgrwt>
</event>
<event>
 7    1  0.4251803E-004  0.9619652E+02  0.7546771E-02  0.1305756E+00
          2   -1    0    0  502    0  0.00000000000E+00  0.00000000000E+00  0.86923871708E+03  0.86923871708E+03  0.00000000000E+00 0. -1.
          1   -1    0    0  503    0 -0.00000000000E+00 -0.00000000000E+00 -0.11063577414E+04  0.11063577414E+04  0.00000000000E+00 0. -1.
         25    2    1    2    0    0 -0.10926599084E+02 -0.13936792776E+03  0.53657023393E+01  0.18761053836E+03  0.12500445387E+03 0.  0.
          4    1    3    3  501    0  0.19644763769E+02 -0.11517032332E+02 -0.42068596177E+02  0.47853301471E+02  0.12700000000E+01 0. -1.
         -4    1    3    3    0  501 -0.30571362853E+02 -0.12785089542E+03  0.47434298517E+02  0.13975723689E+03  0.12700000000E+01 0. -1.
          2    1    1    2  502    0 -0.49666097772E+02  0.65239130324E+02  0.76830712318E+03  0.77266985248E+03  0.00000000000E+00 0. -1.
          1    1    1    2  503    0  0.60592696855E+02  0.74128797432E+02 -0.10107918498E+04  0.10153160677E+04  0.00000000000E+00 0. -1.
<mgrwt>
<rscale>  0 0.88811313E+02</rscale>
<asrwt>0</asrwt>
<pdfrwt beam="1">  1        2 0.13372903E+00 0.81993081E+02</pdfrwt>
<pdfrwt beam="2">  1        1 0.17020888E+00 0.96196523E+02</pdfrwt>
<totfact> 0.65981416E+01</totfact>
</mgrwt>
</event>
<event>
 7    1  0.4251803E-004  0.6493904E+02  0.7546771E-02  0.1479091E+00
         -2   -1    0    0    0  501 -0.00000000000E+00  0.00000000000E+00  0.10432564718E+03  0.10432564718E+03  0.00000000000E+00 0.  1.
          2   -1    0    0  503    0  0.00000000000E+00 -0.00000000000E+00 -0.13722267143E+03  0.13722267143E+03  0.00000000000E+00 0. -1.
         25    2    1    2    0    0 -0.12386116120E+02 -0.43847781835E+02  0.11090162921E+01  0.13304677382E+03  0.12499668101E+03 0.  0.
          4    1    3    3  502    0 -0.61860687056E+02 -0.54430818630E+02 -0.55118415589E+00  0.82409801139E+02  0.12700000000E+01 0.  1.
         -4    1    3    3    0  502  0.49474570936E+02  0.10583036794E+02  0.16602004480E+01  0.50636972684E+02  0.12700000000E+01 0.  1.
          2    1    1    2  503    0  0.34751490861E+02  0.64066338637E+02 -0.24225759591E+02  0.76805268642E+02  0.00000000000E+00 0. -1.
         -2    1    1    2    0  501 -0.22365374740E+02 -0.20218556802E+02 -0.97802809525E+01  0.31696276152E+02  0.00000000000E+00 0.  1.
<mgrwt>
<rscale>  0 0.44248027E+02</rscale>
<asrwt>0</asrwt>
<pdfrwt beam="2">  1        2 0.21111180E-01 0.64939042E+02</pdfrwt>
<pdfrwt beam="1">  1       -2 0.16050100E-01 0.30149627E+02</pdfrwt>
<totfact> 0.67618724E+03</totfact>
</mgrwt>
</event>
<event>
 7    1  0.4251803E-004  0.1654731E+03  0.7546771E-02  0.1309704E+00
          3   -1    0    0  503    0 -0.00000000000E+00  0.00000000000E+00  0.11514356020E+03  0.11514356020E+03  0.00000000000E+00 0. -1.
          2   -1    0    0  502    0  0.00000000000E+00 -0.00000000000E+00 -0.80161864235E+03  0.80161864235E+03  0.00000000000E+00 0. -1.
         25    2    1    2    0    0  0.42202365209E+02 -0.18181601435E+03 -0.33617890277E+03  0.40432632407E+03  0.12500167585E+03 0.  0.
          4    1    3    3  501    0 -0.25691755907E+02 -0.23331797010E+02 -0.13488283078E+03  0.13928183662E+03  0.12700000000E+01 0.  1.
         -4    1    3    3    0  501  0.67894121116E+02 -0.15848421734E+03 -0.20129607199E+03  0.26504448745E+03  0.12700000000E+01 0.  1.
          2    1    1    2  502    0 -0.41295707247E+02  0.20225359484E+02 -0.34779681420E+03  0.35082335238E+03  0.00000000000E+00 0. -1.
          3    1    1    2  503    0 -0.90665796160E+00  0.16159065487E+03 -0.24993651865E+01  0.16161252611E+03  0.00000000000E+00 0. -1.
<mgrwt>
<rscale>  0 0.87228929E+02</rscale>
<asrwt>0</asrwt>
<pdfrwt beam="2">  1        2 0.12332594E+00 0.45982612E+02</pdfrwt>
<pdfrwt beam="1">  1        3 0.17714394E-01 0.16547312E+03</pdfrwt>
<totfact> 0.63923312E+02</totfact>
</mgrwt>
</event>
<event>
 7    1  0.4251803E-004  0.2725886E+02  0.7546771E-02  0.1635913E+00
         -1   -1    0    0    0  501 -0.00000000000E+00  0.00000000000E+00  0.65225023487E+03  0.65225023487E+03  0.00000000000E+00 0.  1.
          1   -1    0    0  503    0  0.00000000000E+00 -0.00000000000E+00 -0.30682908830E+03  0.30682908830E+03  0.00000000000E+00 0. -1.
         25    2    1    2    0    0 -0.28132820663E+02  0.10627713461E+02  0.34174929275E+03  0.36513293261E+03  0.12500030195E+03 0.  0.
          4    1    3    3  502    0 -0.41253968099E+02  0.45980537667E+02  0.30916808813E+03  0.31528180942E+03  0.12700000000E+01 0. -1.
         -4    1    3    3    0  502  0.13121147436E+02 -0.35352824206E+02  0.32581204616E+02  0.49851123193E+02  0.12700000000E+01 0. -1.
          1    1    1    2  503    0  0.69189534484E+01 -0.26384290811E+02 -0.29392032683E+03  0.29518326721E+03  0.00000000000E+00 0. -1.
         -1    1    1    2    0  501  0.21213867215E+02  0.15756577349E+02  0.29759218064E+03  0.29876312335E+03  0.00000000000E+00 0.  1.
<mgrwt>
<rscale>  0 0.26838859E+02</rscale>
<asrwt>0</asrwt>
<pdfrwt beam="2">  1        1 0.47204475E-01 0.27258863E+02</pdfrwt>
<pdfrwt beam="1">  1       -1 0.10034619E+00 0.26425327E+02</pdfrwt>
<totfact> 0.94680422E+01</totfact>
</mgrwt>
</event>
<event>
 7    1  0.4251803E-004  0.1184097E+03  0.7546771E-02  0.1307420E+00
          2   -1    0    0  503    0  0.00000000000E+00  0.00000000000E+00  0.83249081184E+03  0.83249081184E+03  0.00000000000E+00 0. -1.
          2   -1    0    0  502    0 -0.00000000000E+00 -0.00000000000E+00 -0.77323882012E+03  0.77323882012E+03  0.00000000000E+00 0. -1.
         25    2    1    2    0    0 -0.28893465739E+02  0.17919797654E+03  0.66911075621E+02  0.23032097041E+03  0.12499564076E+03 0.  0.
          4    1    3    3  501    0 -0.75048818865E+02  0.13701647146E+03  0.34961855067E+02  0.16009304443E+03  0.12700000000E+01 0.  1.
         -4    1    3    3    0  501  0.46155353127E+02  0.42181505083E+02  0.31949220554E+02  0.70227925979E+02  0.12700000000E+01 0.  1.
          2    1    1    2  502    0  0.12565393983E+02 -0.11565451131E+03 -0.68504504892E+03  0.69485291549E+03  0.00000000000E+00 0. -1.
          2    1    1    2  503    0  0.16328071756E+02 -0.63543465230E+02  0.67738596502E+03  0.68055574607E+03  0.00000000000E+00 0. -1.
<mgrwt>
<rscale>  0 0.88139642E+02</rscale>
<asrwt>0</asrwt>
<pdfrwt beam="1">  1        2 0.12807551E+00 0.65607758E+02</pdfrwt>
<pdfrwt beam="2">  1        2 0.11895982E+00 0.11840972E+03</pdfrwt>
<totfact> 0.21201864E+02</totfact>
</mgrwt>
</event>
<event>
 7    1  0.4251803E-004  0.3896827E+02  0.7546771E-02  0.1559398E+00
         -2   -1    0    0    0  501 -0.00000000000E+00  0.00000000000E+00  0.75938921982E+02  0.75938921982E+02  0.00000000000E+00 0.  1.
          1   -1    0    0  503    0  0.00000000000E+00 -0.00000000000E+00 -0.16445105491E+03  0.16445105491E+03  0.00000000000E+00 0. -1.
         25    2    1    2    0    0 -0.20220175268E+02 -0.62949625045E+01 -0.10899282255E+02  0.12724884151E+03  0.12499996509E+03 0.  0.
          4    1    3    3  502    0  0.25834186961E+02 -0.49541691876E+02 -0.26960081090E+02  0.62050328946E+02  0.12700000000E+01 0.  1.
         -4    1    3    3    0  502 -0.46054362229E+02  0.43246729371E+02  0.16060798835E+02  0.65198512566E+02  0.12700000000E+01 0.  1.
          1    1    1    2  503    0  0.20495446971E+02 -0.33143064631E+02 -0.55835392791E+02  0.68089038529E+02  0.00000000000E+00 0. -1.
         -2    1    1    2    0  501 -0.27527170342E+00  0.39438027136E+02 -0.21777457881E+02  0.45052096851E+02  0.00000000000E+00 0.  1.
<mgrwt>
<rscale>  0 0.33813353E+02</rscale>
<asrwt>0</asrwt>
<pdfrwt beam="2">  1        1 0.25300162E-01 0.38968270E+02</pdfrwt>
<pdfrwt beam="1">  1       -2 0.11682911E-01 0.29340354E+02</pdfrwt>
<totfact> 0.69949307E+03</totfact>
</mgrwt>
</event>
<event>
 7    1  0.4251803E-004  0.1065232E+03  0.7546771E-02  0.1309760E+00
         -3   -1    0    0    0  502 -0.00000000000E+00  0.00000000000E+00  0.39034804071E+03  0.39034804071E+03  0.00000000000E+00 0.  1.
         -1   -1    0    0    0  501  0.00000000000E+00 -0.00000000000E+00 -0.11249875239E+03  0.11249875239E+03  0.00000000000E+00 0.  1.
         25    2    1    2    0    0  0.59890538887E+02 -0.15225901785E+02  0.10009802464E+03  0.17164842562E+03  0.12499945100E+03 0.  0.
          4    1    3    3  503    0  0.85744461320E+02  0.14011763680E+02  0.10016163184E+03  0.13259867104E+03  0.12700000000E+01 0.  1.
         -4    1    3    3    0  503 -0.25853922434E+02 -0.29237665465E+02 -0.63607207150E-01  0.39049754582E+02  0.12700000000E+01 0.  1.
         -1    1    1    2    0  501  0.70012753530E+02  0.13973176626E+02 -0.36847577265E+02  0.80341640960E+02  0.00000000000E+00 0.  1.
         -3    1    1    2    0  502 -0.12990329242E+03  0.12527251586E+01  0.21459884095E+03  0.25085672651E+03  0.00000000000E+00 0.  1.
<mgrwt>
<rscale>  0 0.87207015E+02</rscale>
<asrwt>0</asrwt>
<pdfrwt beam="2">  1       -1 0.17307501E-01 0.71393524E+02</pdfrwt>
<pdfrwt beam="1">  1       -3 0.60053544E-01 0.10652315E+03</pdfrwt>
<totfact> 0.29471251E+02</totfact>
</mgrwt>
</event>
<event>
 7    1  0.4251803E-004  0.9467555E+02  0.7546771E-02  0.1425407E+00
          3   -1    0    0  503    0 -0.00000000000E+00  0.00000000000E+00  0.11468606351E+03  0.11468606351E+03  0.00000000000E+00 0. -1.
          2   -1    0    0  502    0  0.00000000000E+00 -0.00000000000E+00 -0.92470394883E+03  0.92470394883E+03  0.00000000000E+00 0. -1.
         25    2    1    2    0    0 -0.52672893104E+02 -0.10723860568E+03 -0.83974045040E+02  0.19222327299E+03  0.12499437676E+03 0.  0.
          4    1    3    3  501    0 -0.22490218216E+02 -0.13193701809E+03 -0.66817732213E+02  0.14959748961E+03  0.12700000000E+01 0.  1.
         -4    1    3    3    0  501 -0.30182674888E+02  0.24698412409E+02 -0.17156312827E+02  0.42625783380E+02  0.12700000000E+01 0.  1.
          2    1    1    2  502    0  0.13772398717E+02  0.27412996288E+02 -0.75357343219E+03  0.75419763261E+03  0.00000000000E+00 0. -1.
          3    1    1    2  503    0  0.38900494387E+02  0.79825609395E+02  0.27529591911E+02  0.92969106749E+02  0.00000000000E+00 0. -1.
<mgrwt>
<rscale>  0 0.53893177E+02</rscale>
<asrwt>0</asrwt>
<pdfrwt beam="2">  1        2 0.14226214E+00 0.30678190E+02</pdfrwt>
<pdfrwt beam="1">  1        3 0.17644010E-01 0.94675553E+02</pdfrwt>
<totfact> 0.52522311E+02</totfact>
</mgrwt>
</event>
<event>
 7    1  0.4251803E-004  0.6110021E+02  0.7546771E-02  0.1515671E+00
         -1   -1    0    0    0  501 -0.00000000000E+00  0.00000000000E+00  0.53014228542E+03  0.53014228542E+03  0.00000000000E+00 0.  1.
          2   -1    0    0  503    0  0.00000000000E+00 -0.00000000000E+00 -0.32298817188E+02  0.32298817188E+02  0.00000000000E+00 0. -1.
         25    2    1    2    0    0 -0.54138892505E+02 -0.34896014098E+02  0.18139523390E+03  0.22951785816E+03  0.12500185939E+03 0.  0.
          4    1    3    3  502    0 -0.39816033835E+02  0.27185863837E+02  0.15175915380E+03  0.15923831639E+03  0.12700000000E+01 0.  1.
         -4    1    3    3    0  502 -0.14322858670E+02 -0.62081877934E+02  0.29636080101E+02  0.70279541775E+02  0.12700000000E+01 0.  1.
          2    1    1    2  503    0  0.19434047629E+02 -0.15564756379E+02  0.25654905735E+02  0.35750776728E+02  0.00000000000E+00 0. -1.
         -1    1    1    2    0  501  0.34704844875E+02  0.50460770476E+02  0.29079332859E+03  0.29717246772E+03  0.00000000000E+00 0.  1.
<mgrwt>
<rscale>  0 0.39004025E+02</rscale>
<asrwt>0</asrwt>
<pdfrwt beam="2">  1        2 0.49690492E-02 0.24898672E+02</pdfrwt>
<pdfrwt beam="1">  1       -1 0.81560345E-01 0.61100208E+02</pdfrwt>
<totfact> 0.23493543E+03</totfact>
</mgrwt>
</event>
<event>
 7    1  0.4251803E-004  0.1660699E+03  0.7546771E-02  0.1281773E+00
          2   -1    0    0  502    0  0.00000000000E+00  0.00000000000E+00  0.46995488159E+03  0.46995488159E+03  0.00000000000E+00 0. -1.
          1   -1    0    0  503    0 -0.00000000000E+00 -0.00000000000E+00 -0.11578530812E+04  0.11578530812E+04  0.00000000000E+00 0. -1.
         25    2    1    2    0    0 -0.11203906240E+03 -0.50773249823E+02  0.28655890772E+03  0.33596279626E+03  0.12499727388E+03 0.  0.
          4    1    3    3  501    0 -0.71433559359E+02  0.15238863834E+02  0.22625492656E+03  0.23775592751E+03  0.12700000000E+01 0. -1.
         -4    1    3    3    0  501 -0.40605503039E+02 -0.66012113656E+02  0.60303981168E+02  0.98206868757E+02  0.12700000000E+01 0. -1.
          2    1    1    2  502    0 -0.53190178449E+02  0.26388978496E+02  0.14672879615E+03  0.15828743756E+03  0.00000000000E+00 0. -1.
          1    1    1    2  503    0  0.16522924085E+03  0.24384271327E+02 -0.11211859035E+04  0.11335577290E+04  0.00000000000E+00 0. -1.
<mgrwt>
<rscale>  0 0.99300820E+02</rscale>
<asrwt>0</asrwt>
<pdfrwt beam="1">  1        2 0.72300752E-01 0.59376538E+02</pdfrwt>
<pdfrwt beam="2">  1        1 0.17813124E+00 0.16606985E+03</pdfrwt>
<totfact> 0.11831489E+02</totfact>
</mgrwt>
</event>
<event>
 7    1  0.4251803E-004  0.1003213E+03  0.7546771E-02  0.1372911E+00
          2   -1    0    0  503    0  0.00000000000E+00  0.00000000000E+00  0.96203248002E+03  0.96203248002E+03  0.00000000000E+00 0.  1.
          2   -1    0    0  502    0 -0.00000000000E+00 -0.00000000000E+00 -0.16528918266E+04  0.16528918266E+04  0.00000000000E+00 0. -1.
         25    2    1    2    0    0 -0.16689406307E+02  0.85987422861E+02 -0.16982486961E+03  0.22833702772E+03  0.12499975486E+03 0.  0.
          4    1    3    3  501    0 -0.58484714970E+02  0.43896061711E+01 -0.86024695304E+02  0.10412296399E+03  0.12700000000E+01 0. -1.
         -4    1    3    3    0  501  0.41795308663E+02  0.81597816690E+02 -0.83800174307E+02  0.12421406373E+03  0.12700000000E+01 0. -1.
          2    1    1    2  502    0 -0.43566283591E+02 -0.54135087763E+01 -0.14507647541E+04  0.14514288473E+04  0.00000000000E+00 0. -1.
          2    1    1    2  503    0  0.60255689898E+02 -0.80573914085E+02  0.92973027716E+03  0.93515843153E+03  0.00000000000E+00 0.  1.
<mgrwt>
<rscale>  0 0.66364454E+02</rscale>
<asrwt>0</asrwt>
<pdfrwt beam="1">  1        2 0.14800500E+00 0.10032134E+03</pdfrwt>
<pdfrwt beam="2">  1        2 0.25429105E+00 0.43901334E+02</pdfrwt>
<totfact> 0.60608750E+01</totfact>
</mgrwt>
</event>
<event>
 7    1  0.4251803E-004  0.9727951E+02  0.7546771E-02  0.1290340E+00
          3   -1    0    0  503    0  0.00000000000E+00  0.00000000000E+00  0.28829294692E+03  0.28829294692E+03  0.00000000000E+00 0. -1.
         -3   -1    0    0    0  501 -0.00000000000E+00 -0.00000000000E+00 -0.23291558186E+03  0.23291558186E+03  0.00000000000E+00 0.  1.
         25    2    1    2    0    0  0.49898964111E+02  0.46333834902E+02  0.26046192044E+02  0.14471496673E+03  0.12500914607E+03 0.  0.
          4    1    3    3  502    0 -0.60887587146E+01  0.67155344288E+02  0.46098629987E+02  0.81692165082E+02  0.12700000000E+01 0. -1.
         -4    1    3    3    0  502  0.55987722826E+02 -0.20821509386E+02 -0.20052437944E+02  0.63022801650E+02  0.12700000000E+01 0. -1.
          3    1    1    2  503    0 -0.70233977839E+02  0.61723618866E+02  0.17235820849E+03  0.19608663597E+03  0.00000000000E+00 0. -1.
         -3    1    1    2    0  501  0.20335013728E+02 -0.10805745377E+03 -0.14302703548E+03  0.18040692608E+03  0.00000000000E+00 0.  1.
<mgrwt>
<rscale>  0 0.95372032E+02</rscale>
<asrwt>0</asrwt>
<pdfrwt beam="1">  1        3 0.44352761E-01 0.93501961E+02</pdfrwt>
<pdfrwt beam="2">  1       -3 0.35833166E-01 0.97279505E+02</pdfrwt>
<totfact> 0.88076123E+01</totfact>
</mgrwt>
</event>
<event>
 7    1  0.4251803E-004  0.2624591E+02  0.7546771E-02  0.1789080E+00
         -1   -1    0    0    0  501 -0.00000000000E+00  0.00000000000E+00  0.28752041146E+02  0.28752041146E+02  0.00000000000E+00 0.  1.
          2   -1    0    0  503    0  0.00000000000E+00 -0.00000000000E+00 -0.78278232307E+03  0.78278232307E+03  0.00000000000E+00 0. -1.
         25    2    1    2    0    0  0.37601755252E+01  0.26529872483E+01 -0.11472416419E+03  0.16972902154E+03  0.12500051856E+03 0.  0.
          4    1    3    3  502    0 -0.27022536066E+02 -0.18069696538E+02 -0.12662609327E+03  0.13073833326E+03  0.12700000000E+01 0.  1.
         -4    1    3    3    0  502  0.30782711592E+02  0.20722683786E+02  0.11901929074E+02  0.38990688272E+02  0.12700000000E+01 0.  1.
          2    1    1    2  503    0  0.14564348897E+01  0.26205467648E+02 -0.36290153378E+03  0.36384937949E+03  0.00000000000E+00 0. -1.
         -1    1    1    2    0  501 -0.52166104149E+01 -0.28858454896E+02 -0.27640458395E+03  0.27795596319E+03  0.00000000000E+00 0.  1.
<mgrwt>
<rscale>  0 0.17966430E+02</rscale>
<asrwt>0</asrwt>
<pdfrwt beam="2">  1        2 0.12042807E+00 0.26245909E+02</pdfrwt>
<pdfrwt beam="1">  1       -1 0.44233903E-02 0.12298778E+02</pdfrwt>
<totfact> 0.65813297E+03</totfact>
</mgrwt>
</event>
<event>
 7    1  0.4251803E-004  0.1417206E+03  0.7546771E-02  0.1280811E+00
          2   -1    0    0  502    0  0.00000000000E+00  0.00000000000E+00  0.17091706401E+04  0.17091706401E+04  0.00000000000E+00 0. -1.
          1   -1    0    0  503    0 -0.00000000000E+00 -0.00000000000E+00 -0.29674594793E+04  0.29674594793E+04  0.00000000000E+00 0. -1.
         25    2    1    2    0    0  0.15685336480E+03  0.11604642007E+03 -0.36713636582E+03  0.43414735973E+03  0.12500027676E+03 0.  0.
          4    1    3    3  501    0  0.16437994751E+02 -0.26734817360E+02 -0.46732526937E+02  0.56307194075E+02  0.12700000000E+01 0. -1.
         -4    1    3    3    0  501  0.14041537005E+03  0.14278123743E+03 -0.32040383888E+03  0.37784016565E+03  0.12700000000E+01 0. -1.
          2    1    1    2  502    0 -0.69803069061E+02 -0.76110050602E+01  0.16730449217E+04  0.16745177532E+04  0.00000000000E+00 0. -1.
          1    1    1    2  503    0 -0.87050295740E+02 -0.10843541501E+03 -0.25641973950E+04  0.25679650064E+04  0.00000000000E+00 0. -1.
<mgrwt>
<rscale>  0 0.99755522E+02</rscale>
<asrwt>0</asrwt>
<pdfrwt beam="1">  1        2 0.26294933E+00 0.70216778E+02</pdfrwt>
<pdfrwt beam="2">  1        1 0.45653223E+00 0.14172060E+03</pdfrwt>
<totfact> 0.13911272E+00</totfact>
</mgrwt>
</event>
<event>
 7    1  0.4251803E-004  0.9632168E+02  0.7546771E-02  0.1368981E+00
         -2   -1    0    0    0  501 -0.00000000000E+00  0.00000000000E+00  0.30807350702E+03  0.30807350702E+03  0.00000000000E+00 0.  1.
          1   -1    0    0  503    0  0.00000000000E+00 -0.00000000000E+00 -0.94550206195E+02  0.94550206195E+02  0.00000000000E+00 0. -1.
         25    2    1    2    0    0  0.12119548098E+03  0.57109329226E+02  0.92805280235E+02  0.20540045055E+03  0.12500681962E+03 0.  0.
          4    1    3    3  502    0  0.88416594289E+02  0.20966218886E+02 -0.10168402666E+02  0.91444441016E+02  0.12700000000E+01 0. -1.
         -4    1    3    3    0  502  0.32778886689E+02  0.36143110340E+02  0.10297368290E+03  0.11395600953E+03  0.12700000000E+01 0. -1.
          1    1    1    2  503    0 -0.44368322864E+02 -0.16202451474E+02 -0.14075363012E+01  0.47255144334E+02  0.00000000000E+00 0. -1.
         -2    1    1    2    0  501 -0.76827158114E+02 -0.40906877751E+02  0.12212555689E+03  0.14996811834E+03  0.00000000000E+00 0.  1.
<mgrwt>
<rscale>  0 0.67451281E+02</rscale>
<asrwt>0</asrwt>
<pdfrwt beam="2">  1        1 0.14546186E-01 0.47234177E+02</pdfrwt>
<pdfrwt beam="1">  1       -2 0.47395924E-01 0.96321681E+02</pdfrwt>
<totfact> 0.13438775E+03</totfact>
</mgrwt>
</event>
<event>
 7    1  0.4251803E-004  0.1160457E+03  0.7546771E-02  0.1288330E+00
          1   -1    0    0  502    0  0.00000000000E+00  0.00000000000E+00  0.59271343704E+03  0.59271343704E+03  0.00000000000E+00 0. -1.
          1   -1    0    0  503    0 -0.00000000000E+00 -0.00000000000E+00 -0.22376859407E+04  0.22376859407E+04  0.00000000000E+00 0. -1.
         25    2    1    2    0    0 -0.44445860788E+02  0.35928340143E+02 -0.24845205231E+03  0.28393623216E+03  0.12500032586E+03 0.  0.
          4    1    3    3  501    0 -0.21675830819E+02  0.23138318239E+02  0.23100183103E+01  0.31814658528E+02  0.12700000000E+01 0. -1.
         -4    1    3    3    0  501 -0.22770029969E+02  0.12790021903E+02 -0.25076207063E+03  0.25212157363E+03  0.12700000000E+01 0. -1.
          1    1    1    2  502    0 -0.77646712585E+02 -0.18724587523E+02  0.57025759000E+03  0.57582405395E+03  0.00000000000E+00 0. -1.
          1    1    1    2  503    0  0.12209257337E+03 -0.17203752620E+02 -0.19667780414E+04  0.19706390917E+04  0.00000000000E+00 0. -1.
<mgrwt>
<rscale>  0 0.96274958E+02</rscale>
<asrwt>0</asrwt>
<pdfrwt beam="1">  1        1 0.91186685E-01 0.79872537E+02</pdfrwt>
<pdfrwt beam="2">  1        1 0.34425937E+00 0.11604574E+03</pdfrwt>
<totfact> 0.11825679E+01</totfact>
</mgrwt>
</event>
<event>
 7    1  0.4251803E-004  0.9856896E+02  0.7546771E-02  0.1378364E+00
          2   -1    0    0  503    0  0.00000000000E+00  0.00000000000E+00  0.91865209064E+03  0.91865209064E+03  0.00000000000E+00 0. -1.
         -1   -1    0    0    0  501 -0.00000000000E+00 -0.00000000000E+00 -0.35492750120E+02  0.35492750120E+02  0.00000000000E+00 0.  1.
         25    2    1    2    0    0 -0.86545911248E+02  0.10242262929E+03  0.30809819795E+03  0.35850968299E+03  0.12499641384E+03 0.  0.
          4    1    3    3  502    0 -0.10342825718E+03  0.38414965971E+02  0.14292637147E+03  0.18056210720E+03  0.12700000000E+01 0.  1.
         -4    1    3    3    0  502  0.16882345933E+02  0.64007663315E+02  0.16517182647E+03  0.17794757579E+03  0.12700000000E+01 0.  1.
          2    1    1    2  503    0  0.66327184660E+02 -0.64783149476E+02  0.50601236501E+03  0.51443625982E+03  0.00000000000E+00 0. -1.
         -1    1    1    2    0  501  0.20218726589E+02 -0.37639479811E+02  0.69048777571E+02  0.81198897956E+02  0.00000000000E+00 0.  1.
<mgrwt>
<rscale>  0 0.64895887E+02</rscale>
<asrwt>0</asrwt>
<pdfrwt beam="1">  1        2 0.14133107E+00 0.98568959E+02</pdfrwt>
<pdfrwt beam="2">  1       -1 0.54604238E-02 0.42726190E+02</pdfrwt>
<totfact> 0.45782234E+03</totfact>
</mgrwt>
</event>
<event>
 7    1  0.4251803E-004  0.1233121E+03  0.7546771E-02  0.1364356E+00
          2   -1    0    0  502    0  0.00000000000E+00  0.00000000000E+00  0.77705100970E+03  0.77705100970E+03  0.00000000000E+00 0. -1.
          1   -1    0    0  503    0 -0.00000000000E+00 -0.00000000000E+00 -0.11127074034E+03  0.11127074034E+03  0.00000000000E+00 0. -1.
         25    2    1    2    0    0 -0.38836152173E+02  0.83996067758E+02 -0.18321371335E+01  0.15553529880E+03  0.12499714529E+03 0.  0.
          4    1    3    3  501    0 -0.11406448975E+02  0.13843002430E+02  0.57114815993E+02  0.59878634757E+02  0.12700000000E+01 0.  1.
         -4    1    3    3    0  501 -0.27429703198E+02  0.70153065328E+02 -0.58946953126E+02  0.95656664040E+02  0.12700000000E+01 0.  1.
          2    1    1    2  502    0  0.72236717172E+02 -0.10282663691E+03  0.68075287396E+03  0.69225424229E+03  0.00000000000E+00 0. -1.
          1    1    1    2  503    0 -0.33400564999E+02  0.18830569150E+02 -0.13140467465E+02  0.40532208945E+02  0.00000000000E+00 0. -1.
<mgrwt>
<rscale>  0 0.68761611E+02</rscale>
<asrwt>0</asrwt>
<pdfrwt beam="1">  1        2 0.11954631E+00 0.12331208E+03</pdfrwt>
<pdfrwt beam="2">  1        1 0.17118576E-01 0.38343032E+02</pdfrwt>
<totfact> 0.14821135E+03</totfact>
</mgrwt>
</event>
<event>
 7    1  0.4251803E-004  0.5996705E+02  0.7546771E-02  0.1540093E+00
          3   -1    0    0  503    0 -0.00000000000E+00  0.00000000000E+00  0.19020325882E+03  0.19020325882E+03  0.00000000000E+00 0. -1.
          2   -1    0    0  502    0  0.00000000000E+00 -0.00000000000E+00 -0.12189894856E+04  0.12189894856E+04  0.00000000000E+00 0. -1.
         25    2    1    2    0    0 -0.79791075271E+02 -0.16256438741E+01 -0.29082213496E+03  0.32645621536E+03  0.12500755159E+03 0.  0.
          4    1    3    3  501    0 -0.72597435797E+02  0.53284040746E+02 -0.20973970928E+03  0.22825848337E+03  0.12700000000E+01 0. -1.
         -4    1    3    3    0  501 -0.71936394739E+01 -0.54909684620E+02 -0.81082425685E+02  0.98197731995E+02  0.12700000000E+01 0. -1.
          2    1    1    2  502    0  0.20396054591E+02  0.70620371643E+01 -0.90505884667E+03  0.90531618087E+03  0.00000000000E+00 0. -1.
          3    1    1    2  503    0  0.59395020680E+02 -0.54363932902E+01  0.16709475485E+03  0.17742034819E+03  0.00000000000E+00 0. -1.
<mgrwt>
<rscale>  0 0.35976828E+02</rscale>
<asrwt>0</asrwt>
<pdfrwt beam="2">  1        2 0.18753684E+00 0.21584055E+02</pdfrwt>
<pdfrwt beam="1">  1        3 0.29262040E-01 0.59967052E+02</pdfrwt>
<totfact> 0.14703939E+02</totfact>
</mgrwt>
</event>
<event>
 7    1  0.4251803E-004  0.5251735E+02  0.7546771E-02  0.1458354E+00
         -3   -1    0    0    0  501 -0.00000000000E+00  0.00000000000E+00  0.89643573092E+02  0.89643573092E+02  0.00000000000E+00 0.  1.
          2   -1    0    0  503    0  0.00000000000E+00 -0.00000000000E+00 -0.11028330209E+04  0.11028330209E+04  0.00000000000E+00 0.  1.
         25    2    1    2    0    0  0.78166835339E+02 -0.10105669176E+02 -0.45371384885E+02  0.15458013441E+03  0.12499710674E+03 0.  0.
          4    1    3    3  502    0 -0.57778744969E+01  0.16672400475E+02  0.32486357802E+02  0.36990932869E+02  0.12700000000E+01 0. -1.
         -4    1    3    3    0  502  0.83944709836E+02 -0.26778069651E+02 -0.77857742687E+02  0.11758920154E+03  0.12700000000E+01 0. -1.
          2    1    1    2  503    0 -0.32464423805E+02  0.28595559984E+02 -0.98480217547E+03  0.98575198183E+03  0.00000000000E+00 0.  1.
         -3    1    1    2    0  501 -0.45702411534E+02 -0.18489890808E+02  0.16984112539E+02  0.52144477760E+02  0.00000000000E+00 0.  1.
<mgrwt>
<rscale>  0 0.47665843E+02</rscale>
<asrwt>0</asrwt>
<pdfrwt beam="2">  1        2 0.16966662E+00 0.43262511E+02</pdfrwt>
<pdfrwt beam="1">  1       -3 0.13791319E-01 0.52517353E+02</pdfrwt>
<totfact> 0.58171151E+02</totfact>
</mgrwt>
</event>
<event>
 7    1  0.4251803E-004  0.3911771E+02  0.7546771E-02  0.1543258E+00
         -2   -1    0    0    0  501 -0.00000000000E+00  0.00000000000E+00  0.10653617801E+02  0.10653617801E+02  0.00000000000E+00 0.  1.
          1   -1    0    0  503    0  0.00000000000E+00 -0.00000000000E+00 -0.11759568706E+04  0.11759568706E+04  0.00000000000E+00 0. -1.
         25    2    1    2    0    0  0.80869896082E+01 -0.72019838141E+01 -0.82163677538E+03  0.83116160487E+03  0.12500141912E+03 0.  0.
          4    1    3    3  502    0  0.56705774191E+02  0.19081012701E+02 -0.58964115382E+03  0.59267017223E+03  0.12700000000E+01 0. -1.
         -4    1    3    3    0  502 -0.48618784583E+02 -0.26282996515E+02 -0.23199562156E+03  0.23849143264E+03  0.12700000000E+01 0. -1.
          1    1    1    2  503    0  0.31375299570E+02 -0.81438420907E+01 -0.25653071668E+03  0.25857057100E+03  0.00000000000E+00 0. -1.
         -2    1    1    2    0  501 -0.39462289178E+02  0.15345825905E+02 -0.87135760769E+02  0.96878312561E+02  0.00000000000E+00 0.  1.
<mgrwt>
<rscale>  0 0.35608989E+02</rscale>
<asrwt>0</asrwt>
<pdfrwt beam="2">  1        1 0.18091633E+00 0.32414990E+02</pdfrwt>
<pdfrwt beam="1">  1       -2 0.16390191E-02 0.39117708E+02</pdfrwt>
<totfact> 0.97271533E+03</totfact>
</mgrwt>
</event>
<event>
 7    1  0.4251803E-004  0.9067827E+02  0.7546771E-02  0.1311667E+00
          2   -1    0    0  503    0  0.00000000000E+00  0.00000000000E+00  0.17988438885E+04  0.17988438885E+04  0.00000000000E+00 0. -1.
          2   -1    0    0  502    0 -0.00000000000E+00 -0.00000000000E+00 -0.14858520690E+03  0.14858520690E+03  0.00000000000E+00 0. -1.
         25    2    1    2    0    0  0.74000659644E+02  0.59108137378E+02  0.57609611095E+01  0.15692130570E+03  0.12498495100E+03 0.  0.
          4    1    3    3  501    0  0.85804412219E+02  0.79703399591E+02  0.32103547200E+02  0.12143837822E+03  0.12700000000E+01 0.  1.
         -4    1    3    3    0  501 -0.11803752575E+02 -0.20595262212E+02 -0.26342586090E+02  0.35482927478E+02  0.12700000000E+01 0.  1.
          2    1    1    2  502    0  0.14505865618E+02 -0.81145036775E+02 -0.48110427267E+02  0.95443964410E+02  0.00000000000E+00 0. -1.
          2    1    1    2  503    0 -0.88506525262E+02  0.22036899397E+02  0.16926081477E+04  0.16950638253E+04  0.00000000000E+00 0. -1.
<mgrwt>
<rscale>  0 0.86456563E+02</rscale>
<asrwt>0</asrwt>
<pdfrwt beam="1">  1        2 0.27674520E+00 0.90678266E+02</pdfrwt>
<pdfrwt beam="2">  1        2 0.22859264E-01 0.82431409E+02</pdfrwt>
<totfact> 0.37472328E+02</totfact>
</mgrwt>
</event>
<event>
 7    1  0.4251803E-004  0.1210181E+03  0.7546771E-02  0.1269158E+00
         -3   -1    0    0    0  501 -0.00000000000E+00  0.00000000000E+00  0.77660577945E+03  0.77660577945E+03  0.00000000000E+00 0.  1.
          2   -1    0    0  503    0  0.00000000000E+00 -0.00000000000E+00 -0.16411989242E+04  0.16411989242E+04  0.00000000000E+00 0. -1.
         25    2    1    2    0    0  0.93266572109E+01 -0.28874482839E+02 -0.37331294402E+03  0.39485166119E+03  0.12499823150E+03 0.  0.
          4    1    3    3  502    0  0.57820854930E+02  0.16613374481E+02 -0.14337942033E+03  0.15549445827E+03  0.12700000000E+01 0.  1.
         -4    1    3    3    0  502 -0.48494197719E+02 -0.45487857320E+02 -0.22993352369E+03  0.23935720292E+03  0.12700000000E+01 0.  1.
          2    1    1    2  503    0  0.18954103241E+02 -0.89979340011E+02 -0.12505453049E+04  0.12539214884E+04  0.00000000000E+00 0. -1.
         -3    1    1    2    0  501 -0.28280760452E+02  0.11885382285E+03  0.75926510416E+03  0.76903155398E+03  0.00000000000E+00 0.  1.
<mgrwt>
<rscale>  0 0.10548981E+03</rscale>
<asrwt>0</asrwt>
<pdfrwt beam="2">  1        2 0.25249214E+00 0.91954008E+02</pdfrwt>
<pdfrwt beam="1">  1       -3 0.11947781E+00 0.12101811E+03</pdfrwt>
<totfact> 0.46620040E+00</totfact>
</mgrwt>
</event>
<event>
 7    1  0.4251803E-004  0.6207276E+02  0.7546771E-02  0.1389469E+00
          2   -1    0    0  502    0  0.00000000000E+00  0.00000000000E+00  0.13175290733E+04  0.13175290733E+04  0.00000000000E+00 0. -1.
          2   -1    0    0  503    0 -0.00000000000E+00 -0.00000000000E+00 -0.38928815386E+03  0.38928815386E+03  0.00000000000E+00 0. -1.
         25    2    1    2    0    0  0.30322137490E+02 -0.55291434316E+02 -0.88833351719E+01  0.14028594673E+03  0.12499863390E+03 0.  0.
          4    1    3    3  501    0 -0.19610628285E+02 -0.15905552964E+02  0.48451241784E+02  0.54650700702E+02  0.12700000000E+01 0. -1.
         -4    1    3    3    0  501  0.49932765775E+02 -0.39385881353E+02 -0.57334576956E+02  0.85635246029E+02  0.12700000000E+01 0. -1.
          2    1    1    2  502    0 -0.62071223659E+02  0.43618070917E+00  0.12478572930E+04  0.12494001964E+04  0.00000000000E+00 0. -1.
          2    1    1    2  503    0  0.31749086169E+02  0.54855253607E+02 -0.31073303839E+03  0.31713108404E+03  0.00000000000E+00 0. -1.
<mgrwt>
<rscale>  0 0.62038920E+02</rscale>
<asrwt>0</asrwt>
<pdfrwt beam="1">  1        2 0.20269678E+00 0.62072756E+02</pdfrwt>
<pdfrwt beam="2">  1        2 0.59890486E-01 0.62005102E+02</pdfrwt>
<totfact> 0.24497298E+02</totfact>
</mgrwt>
</event>
<event>
 7    1  0.4251803E-004  0.3618657E+02  0.7546771E-02  0.1602529E+00
          1   -1    0    0  503    0  0.00000000000E+00  0.00000000000E+00  0.37042200230E+02  0.37042200230E+02  0.00000000000E+00 0. -1.
         -2   -1    0    0    0  501 -0.00000000000E+00 -0.00000000000E+00 -0.38820544648E+03  0.38820544648E+03  0.00000000000E+00 0.  1.
         25    2    1    2    0    0  0.12505052548E+02 -0.18102252731E+02 -0.10216755679E+03  0.16293195909E+03  0.12499818294E+03 0.  0.
          4    1    3    3  502    0  0.38393340633E+02  0.44527145611E+02 -0.53348345187E+02  0.79400089014E+02  0.12700000000E+01 0.  1.
         -4    1    3    3    0  502 -0.25888288085E+02 -0.62629398342E+02 -0.48819211602E+02  0.83531870074E+02  0.12700000000E+01 0.  1.
          1    1    1    2  503    0 -0.23049338110E+02  0.39901765483E+02 -0.86340533429E+02  0.97867822030E+02  0.00000000000E+00 0. -1.
         -2    1    1    2    0  501  0.10544285562E+02 -0.21799512753E+02 -0.16265515603E+03  0.16444786559E+03  0.00000000000E+00 0.  1.
<mgrwt>
<rscale>  0 0.29602086E+02</rscale>
<asrwt>0</asrwt>
<pdfrwt beam="1">  1        1 0.56988004E-02 0.36186566E+02</pdfrwt>
<pdfrwt beam="2">  1       -2 0.59723911E-01 0.24215712E+02</pdfrwt>
<totfact> 0.27473146E+03</totfact>
</mgrwt>
</event>
<event>
 7    1  0.4251803E-004  0.1078006E+03  0.7546771E-02  0.1433286E+00
          2   -1    0    0  503    0  0.00000000000E+00  0.00000000000E+00  0.10633021253E+04  0.10633021253E+04  0.00000000000E+00 0.  1.
          2   -1    0    0  502    0 -0.00000000000E+00 -0.00000000000E+00 -0.76305034066E+03  0.76305034066E+03  0.00000000000E+00 0. -1.
         25    2    1    2    0    0 -0.91961563569E+02  0.89421062498E+02 -0.21294705625E+03  0.27823489989E+03  0.12496061443E+03 0.  0.
          4    1    3    3  501    0 -0.99678909103E+02  0.61463179446E+02 -0.21921328965E+03  0.24853508124E+03  0.12700000000E+01 0.  1.
         -4    1    3    3    0  501  0.77173455342E+01  0.27957883052E+02  0.62662333998E+01  0.29699818650E+02  0.12700000000E+01 0.  1.
          2    1    1    2  502    0  0.24802439916E+02 -0.53814838608E+01 -0.51433843161E+03  0.51496421587E+03  0.00000000000E+00 0. -1.
          2    1    1    2  503    0  0.67159123653E+02 -0.84039578637E+02  0.10275372725E+04  0.10331533502E+04  0.00000000000E+00 0.  1.
<mgrwt>
<rscale>  0 0.52306118E+02</rscale>
<asrwt>0</asrwt>
<pdfrwt beam="1">  1        2 0.16358494E+00 0.10780059E+03</pdfrwt>
<pdfrwt beam="2">  1        2 0.11739236E+00 0.25379547E+02</pdfrwt>
<totfact> 0.16126116E+02</totfact>
</mgrwt>
</event>
<event>
 7    1  0.4251803E-004  0.6494021E+02  0.7546771E-02  0.1443609E+00
          2   -1    0    0  503    0  0.00000000000E+00  0.00000000000E+00  0.33629017457E+02  0.33629017457E+02  0.00000000000E+00 0. -1.
         -1   -1    0    0    0  501 -0.00000000000E+00 -0.00000000000E+00 -0.62548602644E+03  0.62548602644E+03  0.00000000000E+00 0.  1.
         25    2    1    2    0    0 -0.72365997099E+02 -0.46811804571E+02 -0.45194316612E+03  0.47676547224E+03  0.12499803013E+03 0.  0.
          4    1    3    3  502    0 -0.28640505404E+02 -0.42357862000E+01 -0.10045549793E+02  0.30671589544E+02  0.12700000000E+01 0.  1.
         -4    1    3    3    0  502 -0.43725491695E+02 -0.42576018371E+02 -0.44189761633E+03  0.44609388270E+03  0.12700000000E+01 0.  1.
          2    1    1    2  503    0  0.33913197934E+02  0.53294124208E+02 -0.39184939799E+02  0.74335914444E+02  0.00000000000E+00 0. -1.
         -1    1    1    2    0  501  0.38452799165E+02 -0.64823196372E+01 -0.10072890306E+03  0.10801365721E+03  0.00000000000E+00 0.  1.
<mgrwt>
<rscale>  0 0.50322627E+02</rscale>
<asrwt>0</asrwt>
<pdfrwt beam="1">  1        2 0.51736951E-02 0.64940205E+02</pdfrwt>
<pdfrwt beam="2">  1       -1 0.96228617E-01 0.38995362E+02</pdfrwt>
<totfact> 0.17996412E+03</totfact>
</mgrwt>
</event>
<event>
 7    1  0.4251803E-004  0.1769610E+03  0.7546771E-02  0.1198946E+00
          2   -1    0    0  503    0  0.00000000000E+00  0.00000000000E+00  0.42739135835E+03  0.42739135835E+03  0.00000000000E+00 0. -1.
          2   -1    0    0  502    0 -0.00000000000E+00 -0.00000000000E+00 -0.12784274758E+04  0.12784274758E+04  0.00000000000E+00 0. -1.
         25    2    1    2    0    0  0.85529207064E+02  0.16051529350E+02 -0.14574541458E+03  0.21077787399E+03  0.12495074805E+03 0.  0.
          4    1    3    3  501    0  0.43166647359E+02 -0.34089142611E+02 -0.13295731157E+03  0.14389123909E+03  0.12700000000E+01 0.  1.
         -4    1    3    3    0  501  0.42362559705E+02  0.50140671961E+02 -0.12788103013E+02  0.66886634899E+02  0.12700000000E+01 0.  1.
          2    1    1    2  502    0  0.88194121022E+02 -0.94516284775E+02 -0.10730530831E+04  0.10808119403E+04  0.00000000000E+00 0. -1.
          2    1    1    2  503    0 -0.17372332809E+03  0.78464755425E+02  0.36776238025E+03  0.41422901986E+03  0.00000000000E+00 0. -1.
<mgrwt>
<rscale>  0 0.15124912E+03</rscale>
<asrwt>0</asrwt>
<pdfrwt beam="1">  1        2 0.65752517E-01 0.17696100E+03</pdfrwt>
<pdfrwt beam="2">  1        2 0.19668115E+00 0.12927309E+03</pdfrwt>
<totfact> 0.21979643E+02</totfact>
</mgrwt>
</event>
<event>
 7    1  0.4251803E-004  0.9007453E+02  0.7546771E-02  0.1364353E+00
          1   -1    0    0  502    0  0.00000000000E+00  0.00000000000E+00  0.57592285190E+03  0.57592285190E+03  0.00000000000E+00 0. -1.
          1   -1    0    0  503    0 -0.00000000000E+00 -0.00000000000E+00 -0.17949056269E+04  0.17949056269E+04  0.00000000000E+00 0. -1.
         25    2    1    2    0    0 -0.49343092670E+02 -0.29827052715E+02 -0.18269083574E+03  0.22874774344E+03  0.12500077919E+03 0.  0.
          4    1    3    3  501    0  0.17815006901E+02 -0.56554969422E+02 -0.11651227608E+03  0.13073852689E+03  0.12700000000E+01 0.  1.
         -4    1    3    3    0  501 -0.67158099571E+02  0.26727916707E+02 -0.66178559657E+02  0.98009216545E+02  0.12700000000E+01 0.  1.
          1    1    1    2  502    0 -0.43097558727E+02  0.29968122454E+02  0.55030007630E+03  0.55279802994E+03  0.00000000000E+00 0. -1.
          1    1    1    2  503    0  0.92440651397E+02 -0.14106973962E+00 -0.15865920155E+04  0.15892827054E+04  0.00000000000E+00 0. -1.
<mgrwt>
<rscale>  0 0.68762338E+02</rscale>
<asrwt>0</asrwt>
<pdfrwt beam="1">  1        1 0.88603516E-01 0.52492742E+02</pdfrwt>
<pdfrwt beam="2">  1        1 0.27613933E+00 0.90074532E+02</pdfrwt>
<totfact> 0.24410230E+01</totfact>
</mgrwt>
</event>
<event>
 7    1  0.4251803E-004  0.3645784E+02  0.7546771E-02  0.1572479E+00
         -1   -1    0    0    0  501 -0.00000000000E+00  0.00000000000E+00  0.15141467617E+02  0.15141467617E+02  0.00000000000E+00 0.  1.
          1   -1    0    0  503    0  0.00000000000E+00 -0.00000000000E+00 -0.13314639112E+04  0.13314639112E+04  0.00000000000E+00 0. -1.
         25    2    1    2    0    0 -0.31482380838E+02 -0.12088756206E+02 -0.87264007813E+03  0.88218611243E+03  0.12495740344E+03 0.  0.
          4    1    3    3  502    0 -0.50036841012E+02 -0.55277138278E+02 -0.67123895321E+03  0.67536848659E+03  0.12700000000E+01 0. -1.
         -4    1    3    3    0  502  0.18554460174E+02  0.43188382072E+02 -0.20140112492E+03  0.20681762584E+03  0.12700000000E+01 0. -1.
          1    1    1    2  503    0 -0.14976168333E+01  0.28845136878E+02 -0.41889545887E+03  0.41989009305E+03  0.00000000000E+00 0. -1.
         -1    1    1    2    0  501  0.32979997671E+02 -0.16756380672E+02 -0.24786906563E+02  0.44529173320E+02  0.00000000000E+00 0.  1.
<mgrwt>
<rscale>  0 0.32450700E+02</rscale>
<asrwt>0</asrwt>
<pdfrwt beam="2">  1        1 0.20484067E+00 0.28883988E+02</pdfrwt>
<pdfrwt beam="1">  1       -1 0.23294558E-02 0.36457844E+02</pdfrwt>
<totfact> 0.47973103E+03</totfact>
</mgrwt>
</event>
<event>
 7    1  0.4251803E-004  0.1431768E+03  0.7546771E-02  0.1354211E+00
          2   -1    0    0  503    0  0.00000000000E+00  0.00000000000E+00  0.23020483197E+04  0.23020483197E+04  0.00000000000E+00 0. -1.
         -3   -1    0    0    0  501 -0.00000000000E+00 -0.00000000000E+00 -0.57871959837E+02  0.57871959837E+02  0.00000000000E+00 0.  1.
         25    2    1    2    0    0  0.15832159831E+03  0.39468303203E+02  0.93490839553E+03  0.95723698324E+03  0.12500183436E+03 0.  0.
          4    1    3    3  502    0  0.48650343057E+02  0.15636959290E+02  0.79627293388E+02  0.94622878458E+02  0.12700000000E+01 0.  1.
         -4    1    3    3    0  502  0.10967125526E+03  0.23831343913E+02  0.85528110214E+03  0.86261410478E+03  0.12700000000E+01 0.  1.
          2    1    1    2  503    0 -0.17348699600E+02 -0.31504250502E+02  0.12484112415E+04  0.12489291906E+04  0.00000000000E+00 0. -1.
         -3    1    1    2    0  501 -0.14097289871E+03 -0.79640527008E+01  0.60856722804E+02  0.15375410569E+03  0.00000000000E+00 0.  1.
<mgrwt>
<rscale>  0 0.71759194E+02</rscale>
<asrwt>0</asrwt>
<pdfrwt beam="1">  1        2 0.35416121E+00 0.35965194E+02</pdfrwt>
<pdfrwt beam="2">  1       -3 0.89033802E-02 0.14317682E+03</pdfrwt>
<totfact> 0.35427409E+02</totfact>
</mgrwt>
</event>
<event>
 7    1  0.4251803E-004  0.8628036E+02  0.7546771E-02  0.1483315E+00
          1   -1    0    0  503    0  0.00000000000E+00  0.00000000000E+00  0.32222685053E+04  0.32222685053E+04  0.00000000000E+00 0. -1.
         -2   -1    0    0    0  501 -0.00000000000E+00 -0.00000000000E+00 -0.53855656591E+01  0.53855656591E+01  0.00000000000E+00 0.  1.
         25    2    1    2    0    0  0.49030576670E+02 -0.64120861025E+02  0.20383986906E+04  0.20438224508E+04  0.12500202522E+03 0.  0.
          4    1    3    3  502    0  0.37298151538E+02 -0.93198719216E+02  0.18583254649E+04  0.18610352764E+04  0.12700000000E+01 0. -1.
         -4    1    3    3    0  502  0.11732425132E+02  0.29077858191E+02  0.18007322571E+03  0.18278717448E+03  0.12700000000E+01 0. -1.
          1    1    1    2  503    0 -0.13081108740E+02 -0.17721176262E+02  0.30149364936E+03  0.30229716522E+03  0.00000000000E+00 0. -1.
         -2    1    1    2    0  501 -0.35949467930E+02  0.81842037287E+02  0.87699059968E+03  0.88153445493E+03  0.00000000000E+00 0.  1.
<mgrwt>
<rscale>  0 0.43593949E+02</rscale>
<asrwt>0</asrwt>
<pdfrwt beam="1">  1        1 0.49573207E+00 0.22026246E+02</pdfrwt>
<pdfrwt beam="2">  1       -2 0.82855114E-03 0.86280359E+02</pdfrwt>
<totfact> 0.16868675E+03</totfact>
</mgrwt>
</event>
<event>
 7    1  0.4251803E-004  0.8598958E+02  0.7546771E-02  0.1387989E+00
          1   -1    0    0  503    0 -0.00000000000E+00  0.00000000000E+00  0.64929979806E+03  0.64929979806E+03  0.00000000000E+00 0. -1.
          2   -1    0    0  502    0  0.00000000000E+00 -0.00000000000E+00 -0.57249074812E+03  0.57249074812E+03  0.00000000000E+00 0. -1.
         25    2    1    2    0    0  0.68116386820E+02  0.56589183717E+02  0.28639930921E+02  0.15583211905E+03  0.12498490236E+03 0.  0.
          4    1    3    3  501    0  0.65702276559E+02  0.14633735176E+02 -0.37797467184E+02  0.77208786908E+02  0.12700000000E+01 0. -1.
         -4    1    3    3    0  501  0.24141102603E+01  0.41955448541E+02  0.66437398104E+02  0.78623332145E+02  0.12700000000E+01 0. -1.
          2    1    1    2  502    0 -0.29949066340E+02 -0.80981061439E+02 -0.50429880818E+03  0.51163675280E+03  0.00000000000E+00 0. -1.
          1    1    1    2  503    0 -0.38167320480E+02  0.24391877722E+02  0.55246792720E+03  0.55432167433E+03  0.00000000000E+00 0. -1.
<mgrwt>
<rscale>  0 0.62409657E+02</rscale>
<asrwt>0</asrwt>
<pdfrwt beam="2">  1        2 0.88075500E-01 0.85989578E+02</pdfrwt>
<pdfrwt beam="1">  1        1 0.99892277E-01 0.45295784E+02</pdfrwt>
<totfact> 0.25105149E+02</totfact>
</mgrwt>
</event>
<event>
 7    1  0.4251803E-004  0.5739266E+02  0.7546771E-02  0.1479076E+00
          3   -1    0    0  503    0  0.00000000000E+00  0.00000000000E+00  0.88274473456E+02  0.88274473456E+02  0.00000000000E+00 0. -1.
         -1   -1    0    0    0  501 -0.00000000000E+00 -0.00000000000E+00 -0.22860862610E+03  0.22860862610E+03  0.00000000000E+00 0.  1.
         25    2    1    2    0    0 -0.52086662168E+02  0.69032337219E+02 -0.85666606089E+02  0.17447907394E+03  0.12500278352E+03 0.  0.
          4    1    3    3  502    0 -0.44817118112E+02 -0.93885004809E+01  0.13576154432E+02  0.47777012111E+02  0.12700000000E+01 0.  1.
         -4    1    3    3    0  502 -0.72695440563E+01  0.78420837700E+02 -0.99242760521E+02  0.12670206183E+03  0.12700000000E+01 0.  1.
          3    1    1    2  503    0  0.19213524271E+02 -0.28192998266E+02  0.28255230384E+02  0.44298563297E+02  0.00000000000E+00 0. -1.
         -1    1    1    2    0  501  0.32873137897E+02 -0.40839338953E+02 -0.82922776943E+02  0.98105462321E+02  0.00000000000E+00 0.  1.
<mgrwt>
<rscale>  0 0.44250366E+02</rscale>
<asrwt>0</asrwt>
<pdfrwt beam="1">  1        3 0.13580688E-01 0.34117513E+02</pdfrwt>
<pdfrwt beam="2">  1       -1 0.35170557E-01 0.57392662E+02</pdfrwt>
<totfact> 0.12440057E+03</totfact>
</mgrwt>
</event>
<event>
 7    1  0.4251803E-004  0.5412548E+02  0.7546771E-02  0.1503952E+00
          3   -1    0    0  503    0 -0.00000000000E+00  0.00000000000E+00  0.30138725294E+02  0.30138725294E+02  0.00000000000E+00 0. -1.
          2   -1    0    0  502    0  0.00000000000E+00 -0.00000000000E+00 -0.14440960450E+04  0.14440960450E+04  0.00000000000E+00 0. -1.
         25    2    1    2    0    0 -0.42743972494E+01  0.27241472748E+02 -0.49226947427E+03  0.50863910150E+03  0.12499652783E+03 0.  0.
          4    1    3    3  501    0 -0.49913099604E+02 -0.27075424710E+02 -0.23467101117E+03  0.24144666599E+03  0.12700000000E+01 0. -1.
         -4    1    3    3    0  501  0.45638702355E+02  0.54316897458E+02 -0.25759846310E+03  0.26719243551E+03  0.12700000000E+01 0. -1.
          2    1    1    2  502    0 -0.18843139506E+02  0.23895942640E+02 -0.90710045978E+03  0.90761077787E+03  0.00000000000E+00 0. -1.
          3    1    1    2  503    0  0.23117536756E+02 -0.51137415388E+02 -0.14587385700E+02  0.57984890961E+02  0.00000000000E+00 0. -1.
<mgrwt>
<rscale>  0 0.40584762E+02</rscale>
<asrwt>0</asrwt>
<pdfrwt beam="2">  1        2 0.22216856E+00 0.30431562E+02</pdfrwt>
<pdfrwt beam="1">  1        3 0.46367283E-02 0.54125480E+02</pdfrwt>
<totfact> 0.22827084E+03</totfact>
</mgrwt>
</event>
<event>
 7    1  0.4251803E-004  0.5087170E+02  0.7546771E-02  0.1476494E+00
          2   -1    0    0  502    0  0.00000000000E+00  0.00000000000E+00  0.14140302099E+04  0.14140302099E+04  0.00000000000E+00 0. -1.
          2   -1    0    0  503    0 -0.00000000000E+00 -0.00000000000E+00 -0.79563924553E+03  0.79563924553E+03  0.00000000000E+00 0.  1.
         25    2    1    2    0    0 -0.49922958544E+02  0.72411318456E+02  0.29415331515E+02  0.15564642367E+03  0.12499938657E+03 0.  0.
          4    1    3    3  501    0  0.14915096956E+02 -0.23015273992E+01  0.52007125740E+02  0.54167436466E+02  0.12700000000E+01 0.  1.
         -4    1    3    3    0  501 -0.64838055501E+02  0.74712845855E+02 -0.22591794226E+02  0.10147898720E+03  0.12700000000E+01 0.  1.
          2    1    1    2  502    0  0.35658139910E+02 -0.35897308309E+02  0.13204899979E+04  0.13214590248E+04  0.00000000000E+00 0. -1.
          2    1    1    2  503    0  0.14264818635E+02 -0.36514010147E+02 -0.73151436505E+03  0.73256400694E+03  0.00000000000E+00 0.  1.
<mgrwt>
<rscale>  0 0.44656995E+02</rscale>
<asrwt>0</asrwt>
<pdfrwt beam="1">  1        2 0.21754311E+00 0.50871700E+02</pdfrwt>
<pdfrwt beam="2">  1        2 0.12240604E+00 0.39201505E+02</pdfrwt>
<totfact> 0.10345090E+02</totfact>
</mgrwt>
</event>
<event>
 7    1  0.4251803E-004  0.4323369E+02  0.7546771E-02  0.1589974E+00
          1   -1    0    0  503    0  0.00000000000E+00  0.00000000000E+00  0.72812748383E+03  0.72812748383E+03  0.00000000000E+00 0. -1.
         -1   -1    0    0    0  501 -0.00000000000E+00 -0.00000000000E+00 -0.10280433391E+03  0.10280433391E+03  0.00000000000E+00 0.  1.
         25    2    1    2    0    0  0.12682009709E+02  0.30866184064E+02  0.53637281444E+03  0.55175549404E+03  0.12499909779E+03 0.  0.
          4    1    3    3  502    0 -0.59624482382E-01 -0.29986542417E+02  0.33203306411E+02  0.44757890230E+02  0.12700000000E+01 0. -1.
         -4    1    3    3    0  502  0.12741634192E+02  0.60852726481E+02  0.50316950803E+03  0.50699760381E+03  0.12700000000E+01 0. -1.
          1    1    1    2  503    0  0.21470361846E+02 -0.41451188084E+01  0.17841835716E+03  0.17975335496E+03  0.00000000000E+00 0. -1.
         -1    1    1    2    0  501 -0.34152371555E+02 -0.26721065256E+02 -0.89468021677E+02  0.99422968745E+02  0.00000000000E+00 0.  1.
<mgrwt>
<rscale>  0 0.30747098E+02</rscale>
<asrwt>0</asrwt>
<pdfrwt beam="1">  1        1 0.11201961E+00 0.21866834E+02</pdfrwt>
<pdfrwt beam="2">  1       -1 0.15816052E-01 0.43233693E+02</pdfrwt>
<totfact> 0.80924671E+02</totfact>
</mgrwt>
</event>
<event>
 7    1  0.4251803E-004  0.7179465E+02  0.7546771E-02  0.1440728E+00
         -2   -1    0    0    0  501 -0.00000000000E+00  0.00000000000E+00  0.14027086172E+02  0.14027086172E+02  0.00000000000E+00 0.  1.
          1   -1    0    0  503    0  0.00000000000E+00 -0.00000000000E+00 -0.12665512364E+04  0.12665512364E+04  0.00000000000E+00 0. -1.
         25    2    1    2    0    0 -0.33784452098E+02 -0.66993007201E+02 -0.53123302576E+03  0.55087395938E+03  0.12499655695E+03 0.  0.
          4    1    3    3  502    0 -0.44023693698E+02 -0.96164796919E+02 -0.47555565579E+03  0.48717609591E+03  0.12700000000E+01 0. -1.
         -4    1    3    3    0  502  0.10239241600E+02  0.29171789717E+02 -0.55677369968E+02  0.63697863468E+02  0.12700000000E+01 0. -1.
          1    1    1    2  503    0  0.35509951999E+02 -0.61435167605E+01 -0.29333217954E+03  0.29553758989E+03  0.00000000000E+00 0. -1.
         -2    1    1    2    0  501 -0.17254999007E+01  0.73136523962E+02 -0.42795894494E+03  0.43416677331E+03  0.00000000000E+00 0.  1.
<mgrwt>
<rscale>  0 0.50865487E+02</rscale>
<asrwt>0</asrwt>
<pdfrwt beam="2">  1        1 0.19485400E+00 0.36037473E+02</pdfrwt>
<pdfrwt beam="1">  1       -2 0.21580137E-02 0.71794649E+02</pdfrwt>
<totfact> 0.62925636E+03</totfact>
</mgrwt>
</event>
<event>
 7    1  0.4251803E-004  0.5110463E+02  0.7546771E-02  0.1515813E+00
          2   -1    0    0  503    0  0.00000000000E+00  0.00000000000E+00  0.16680036841E+03  0.16680036841E+03  0.00000000000E+00 0. -1.
         -3   -1    0    0    0  501 -0.00000000000E+00 -0.00000000000E+00 -0.72062214028E+02  0.72062214028E+02  0.00000000000E+00 0.  1.
         25    2    1    2    0    0 -0.64826981926E+01  0.36146345807E+02  0.51998414606E+02  0.14027609326E+03  0.12499985411E+03 0.  0.
          4    1    3    3  502    0 -0.25105265611E+02  0.66678596539E+02 -0.66528797363E+01  0.71569429973E+02  0.12700000000E+01 0. -1.
         -4    1    3    3    0  502  0.18622567418E+02 -0.30532250732E+02  0.58651294343E+02  0.68706663287E+02  0.12700000000E+01 0. -1.
          2    1    1    2  503    0 -0.14916559639E+02 -0.56799515297E+02  0.24038232757E+02  0.63454907797E+02  0.00000000000E+00 0. -1.
         -3    1    1    2    0  501  0.21399257832E+02  0.20653169490E+02  0.18701507023E+02  0.35131581385E+02  0.00000000000E+00 0.  1.
<mgrwt>
<rscale>  0 0.38985430E+02</rscale>
<asrwt>0</asrwt>
<pdfrwt beam="1">  1        2 0.25661595E-01 0.51104630E+02</pdfrwt>
<pdfrwt beam="2">  1       -3 0.11086495E-01 0.29740236E+02</pdfrwt>
<totfact> 0.59362955E+03</totfact>
</mgrwt>
</event>
<event>
 7    1  0.4251803E-004  0.3824080E+03  0.7546771E-02  0.1113933E+00
         -1   -1    0    0    0  501  0.00000000000E+00  0.00000000000E+00  0.14047976427E+04  0.14047976427E+04  0.00000000000E+00 0.  1.
         -1   -1    0    0    0  502 -0.00000000000E+00 -0.00000000000E+00 -0.29065073072E+04  0.29065073072E+04  0.00000000000E+00 0.  1.
         25    2    1    2    0    0  0.40759909562E+03 -0.33426265507E+03 -0.37369495141E+03  0.65813480826E+03  0.12499985526E+03 0.  0.
          4    1    3    3  503    0  0.27625950959E+03 -0.29245184199E+03 -0.25569340153E+03  0.47668451308E+03  0.12700000000E+01 0. -1.
         -4    1    3    3    0  503  0.13133958603E+03 -0.41810813076E+02 -0.11800154987E+03  0.18145029518E+03  0.12700000000E+01 0. -1.
         -1    1    1    2    0  502 -0.14969219244E+03  0.62315461399E+02 -0.23599347737E+04  0.23654984899E+04  0.00000000000E+00 0.  1.
         -1    1    1    2    0  501 -0.25790690318E+03  0.27194719367E+03  0.12319200607E+04  0.12876716518E+04  0.00000000000E+00 0.  1.
<mgrwt>
<rscale>  0 0.24900905E+03</rscale>
<asrwt>0</asrwt>
<pdfrwt beam="1">  1       -1 0.21612271E+00 0.38240798E+03</pdfrwt>
<pdfrwt beam="2">  1       -1 0.44715497E+00 0.16214490E+03</pdfrwt>
<totfact> 0.49768923E-03</totfact>
</mgrwt>
</event>
<event>
 7    1  0.4251803E-004  0.3113068E+02  0.7546771E-02  0.1617079E+00
          2   -1    0    0  502    0  0.00000000000E+00  0.00000000000E+00  0.20431051626E+04  0.20431051626E+04  0.00000000000E+00 0. -1.
          1   -1    0    0  503    0 -0.00000000000E+00 -0.00000000000E+00 -0.67297818793E+02  0.67297818793E+02  0.00000000000E+00 0. -1.
         25    2    1    2    0    0  0.11640630721E+02  0.49433982506E+02  0.51597532415E+03  0.53332289519E+03  0.12499420985E+03 0.  0.
          4    1    3    3  501    0 -0.13061590723E+02 -0.36877038031E+02  0.92620608424E+02  0.10055203176E+03  0.12700000000E+01 0. -1.
         -4    1    3    3    0  501  0.24702221444E+02  0.86311020537E+02  0.42335471573E+03  0.43277086343E+03  0.12700000000E+01 0. -1.
          2    1    1    2  502    0  0.57124067184E+01 -0.30318204950E+02  0.15154489774E+04  0.15157629855E+04  0.00000000000E+00 0. -1.
          1    1    1    2  503    0 -0.17353037439E+02 -0.19115777556E+02 -0.55616957693E+02  0.61317100738E+02  0.00000000000E+00 0. -1.
<mgrwt>
<rscale>  0 0.28349864E+02</rscale>
<asrwt>0</asrwt>
<pdfrwt beam="1">  1        2 0.31432382E+00 0.31130677E+02</pdfrwt>
<pdfrwt beam="2">  1        1 0.10353512E-01 0.25817453E+02</pdfrwt>
<totfact> 0.64075838E+02</totfact>
</mgrwt>
</event>
<event>
 7    1  0.4251803E-004  0.5007188E+02  0.7546771E-02  0.1480148E+00
         -2   -1    0    0    0  501 -0.00000000000E+00  0.00000000000E+00  0.14996429943E+02  0.14996429943E+02  0.00000000000E+00 0.  1.
          2   -1    0    0  503    0  0.00000000000E+00 -0.00000000000E+00 -0.91106200964E+03  0.91106200964E+03  0.00000000000E+00 0. -1.
         25    2    1    2    0    0 -0.10503116357E+02 -0.33843034976E+02 -0.40698208875E+03  0.42721688273E+03  0.12499671139E+03 0.  0.
          4    1    3    3  502    0  0.12864413014E+02 -0.78251855800E+02 -0.23237264411E+03  0.24553513942E+03  0.12700000000E+01 0. -1.
         -4    1    3    3    0  502 -0.23367529371E+02  0.44408820824E+02 -0.17460944464E+03  0.18168174331E+03  0.12700000000E+01 0. -1.
          2    1    1    2  503    0  0.49103430201E+02  0.29807234073E+02 -0.24169563536E+03  0.24842785314E+03  0.00000000000E+00 0.  1.
         -2    1    1    2    0  501 -0.38600313844E+02  0.40358009035E+01 -0.24738785559E+03  0.25041370372E+03  0.00000000000E+00 0. -1.
<mgrwt>
<rscale>  0 0.44083169E+02</rscale>
<asrwt>0</asrwt>
<pdfrwt beam="2">  1        2 0.14016340E+00 0.50071882E+02</pdfrwt>
<pdfrwt beam="1">  1       -2 0.23071429E-02 0.38810719E+02</pdfrwt>
<totfact> 0.15718626E+04</totfact>
</mgrwt>
</event>
<event>
 7    1  0.4251803E-004  0.5623169E+02  0.7546771E-02  0.1525237E+00
         -2   -1    0    0    0  501  0.00000000000E+00  0.00000000000E+00  0.54503513366E+03  0.54503513366E+03  0.00000000000E+00 0.  1.
         -1   -1    0    0    0  502 -0.00000000000E+00 -0.00000000000E+00 -0.47852718205E+03  0.47852718205E+03  0.00000000000E+00 0.  1.
         25    2    1    2    0    0 -0.34899465181E+02  0.23139354764E+01 -0.95710343152E+02  0.16127973841E+03  0.12500942872E+03 0.  0.
          4    1    3    3  503    0 -0.60717333552E+02 -0.74722159970E+01  0.48689980584E+00  0.61190510514E+02  0.12700000000E+01 0. -1.
         -4    1    3    3    0  503  0.25817868371E+02  0.97861514734E+01 -0.96197242958E+02  0.10008922789E+03  0.12700000000E+01 0. -1.
         -2    1    1    2    0  501  0.52694731361E+02 -0.20409022270E+02  0.51022848978E+03  0.51334820024E+03  0.00000000000E+00 0.  1.
         -1    1    1    2    0  502 -0.17795266180E+02  0.18095086793E+02 -0.34801019502E+03  0.34893437707E+03  0.00000000000E+00 0.  1.
<mgrwt>
<rscale>  0 0.37777179E+02</rscale>
<asrwt>0</asrwt>
<pdfrwt beam="1">  1       -2 0.83851560E-01 0.56231692E+02</pdfrwt>
<pdfrwt beam="2">  1       -1 0.73619566E-01 0.25379197E+02</pdfrwt>
<totfact> 0.20378562E+01</totfact>
</mgrwt>
</event>
<event>
 7    1  0.4251803E-004  0.2025320E+03  0.7546771E-02  0.1236600E+00
          2   -1    0    0  502    0  0.00000000000E+00  0.00000000000E+00  0.26309601832E+04  0.26309601832E+04  0.00000000000E+00 0. -1.
          2   -1    0    0  503    0 -0.00000000000E+00 -0.00000000000E+00 -0.49451150806E+03  0.49451150806E+03  0.00000000000E+00 0. -1.
         25    2    1    2    0    0  0.79975266268E+02 -0.26522136272E+03  0.16812860983E+04  0.17085334524E+04  0.12500079679E+03 0.  0.
          4    1    3    3  501    0  0.10315778131E+03 -0.12842349301E+03  0.86710546893E+03  0.88261408812E+03  0.12700000000E+01 0.  1.
         -4    1    3    3    0  501 -0.23182515038E+02 -0.13679786972E+03  0.81418062937E+03  0.82591936429E+03  0.12700000000E+01 0.  1.
          2    1    1    2  502    0 -0.29170955403E+02  0.70124921962E+02  0.91327507202E+03  0.91642774210E+03  0.00000000000E+00 0. -1.
          2    1    1    2  503    0 -0.50804310864E+02  0.19509644076E+03 -0.45811249513E+03  0.50051049679E+03  0.00000000000E+00 0. -1.
<mgrwt>
<rscale>  0 0.12402566E+03</rscale>
<asrwt>0</asrwt>
<pdfrwt beam="1">  1        2 0.40476310E+00 0.75950308E+02</pdfrwt>
<pdfrwt beam="2">  1        2 0.76078695E-01 0.20253197E+03</pdfrwt>
<totfact> 0.39912589E+01</totfact>
</mgrwt>
</event>
<event>
 7    1  0.4251803E-004  0.1680663E+03  0.7546771E-02  0.1295896E+00
          2   -1    0    0  502    0  0.00000000000E+00  0.00000000000E+00  0.89252853358E+03  0.89252853358E+03  0.00000000000E+00 0. -1.
          1   -1    0    0  503    0 -0.00000000000E+00 -0.00000000000E+00 -0.10435568510E+04  0.10435568510E+04  0.00000000000E+00 0. -1.
         25    2    1    2    0    0  0.76294488605E+02 -0.11722353094E+03 -0.38381640949E+03  0.42721994459E+03  0.12505854496E+03 0.  0.
          4    1    3    3  501    0  0.72444807642E+02 -0.11166509759E+03 -0.18303159026E+03  0.22631729962E+03  0.12700000000E+01 0. -1.
         -4    1    3    3    0  501  0.38496809628E+01 -0.55584333522E+01 -0.20078481923E+03  0.20090264497E+03  0.12700000000E+01 0. -1.
          2    1    1    2  502    0  0.31837155935E+01 -0.51290986081E+02  0.85643831136E+03  0.85797871912E+03  0.00000000000E+00 0. -1.
          1    1    1    2  503    0 -0.79478204198E+02  0.16851451702E+03 -0.62365021931E+03  0.65088672089E+03  0.00000000000E+00 0. -1.
<mgrwt>
<rscale>  0 0.92934792E+02</rscale>
<asrwt>0</asrwt>
<pdfrwt beam="1">  1        2 0.13731208E+00 0.51389700E+02</pdfrwt>
<pdfrwt beam="2">  1        1 0.16054721E+00 0.16806627E+03</pdfrwt>
<totfact> 0.69521063E+01</totfact>
</mgrwt>
</event>
<event>
 7    1  0.4251803E-004  0.9968222E+02  0.7546771E-02  0.1308647E+00
          1   -1    0    0  503    0 -0.00000000000E+00  0.00000000000E+00  0.19858314611E+04  0.19858314611E+04  0.00000000000E+00 0. -1.
          2   -1    0    0  502    0  0.00000000000E+00 -0.00000000000E+00 -0.23639132043E+04  0.23639132043E+04  0.00000000000E+00 0. -1.
         25    2    1    2    0    0 -0.16775982089E+03 -0.42121192461E+02  0.37604010731E+03  0.43237568096E+03  0.12500005929E+03 0.  0.
          4    1    3    3  501    0 -0.16921052149E+03 -0.82879096793E+01  0.35254335177E+03  0.39113848929E+03  0.12700000000E+01 0. -1.
         -4    1    3    3    0  501  0.14507005990E+01 -0.33833282781E+02  0.23496755542E+02  0.41237191672E+02  0.12700000000E+01 0. -1.
          2    1    1    2  502    0  0.74779946367E+02  0.18641361587E+02 -0.23336550563E+04  0.23349272927E+04  0.00000000000E+00 0. -1.
          1    1    1    2  503    0  0.92979874527E+02  0.23479830874E+02  0.15795332058E+04  0.15824416917E+04  0.00000000000E+00 0. -1.
<mgrwt>
<rscale>  0 0.87649020E+02</rscale>
<asrwt>0</asrwt>
<pdfrwt beam="2">  1        2 0.36367895E+00 0.77068416E+02</pdfrwt>
<pdfrwt beam="1">  1        1 0.30551253E+00 0.99682219E+02</pdfrwt>
<totfact> 0.29658539E+00</totfact>
</mgrwt>
</event>
<event>
 7    1  0.4251803E-004  0.7077221E+02  0.7546771E-02  0.1502953E+00
         -1   -1    0    0    0  501 -0.00000000000E+00  0.00000000000E+00  0.11011459636E+03  0.11011459636E+03  0.00000000000E+00 0.  1.
          1   -1    0    0  503    0  0.00000000000E+00 -0.00000000000E+00 -0.15331883634E+03  0.15331883634E+03  0.00000000000E+00 0. -1.
         25    2    1    2    0    0 -0.89865422827E+01 -0.70491573942E+02 -0.23807173633E+02  0.14572489836E+03  0.12497657600E+03 0.  0.
          4    1    3    3  502    0 -0.50824703952E+02  0.10618368345E+02 -0.25023700463E+01  0.51997836820E+02  0.12700000000E+01 0. -1.
         -4    1    3    3    0  502  0.41838161669E+02 -0.81109942287E+02 -0.21304803586E+02  0.93727061543E+02  0.12700000000E+01 0. -1.
          1    1    1    2  503    0  0.23430873881E+02  0.32799752669E+00 -0.37134792941E+02  0.43910207013E+02  0.00000000000E+00 0. -1.
         -1    1    1    2    0  501 -0.14444331598E+02  0.70163576415E+02  0.17737726597E+02  0.73798327322E+02  0.00000000000E+00 0.  1.
<mgrwt>
<rscale>  0 0.40723668E+02</rscale>
<asrwt>0</asrwt>
<pdfrwt beam="2">  1        1 0.23587513E-01 0.23433170E+02</pdfrwt>
<pdfrwt beam="1">  1       -1 0.16940707E-01 0.70772207E+02</pdfrwt>
<totfact> 0.47551270E+03</totfact>
</mgrwt>
</event>
<event>
 7    1  0.4251803E-004  0.1089680E+03  0.7546771E-02  0.1430135E+00
          2   -1    0    0  502    0  0.00000000000E+00  0.00000000000E+00  0.37489657618E+03  0.37489657618E+03  0.00000000000E+00 0. -1.
          1   -1    0    0  503    0 -0.00000000000E+00 -0.00000000000E+00 -0.79882501959E+03  0.79882501959E+03  0.00000000000E+00 0. -1.
         25    2    1    2    0    0  0.15909641058E+02 -0.10186248617E+03 -0.30072927848E+03  0.34160297044E+03  0.12500163084E+03 0.  0.
          4    1    3    3  501    0  0.58946033749E+02 -0.48534564394E+02 -0.23319933207E+03  0.24538496330E+03  0.12700000000E+01 0.  1.
         -4    1    3    3    0  501 -0.43036392691E+02 -0.53327921772E+02 -0.67529946417E+02  0.96218007147E+02  0.12700000000E+01 0.  1.
          2    1    1    2  502    0  0.25663944086E+02 -0.15886971410E+01  0.34747225315E+03  0.34842234241E+03  0.00000000000E+00 0. -1.
          1    1    1    2  503    0 -0.41573585144E+02  0.10345118331E+03 -0.47067141807E+03  0.48369628291E+03  0.00000000000E+00 0. -1.
<mgrwt>
<rscale>  0 0.52932991E+02</rscale>
<asrwt>0</asrwt>
<pdfrwt beam="1">  1        2 0.57676396E-01 0.25713070E+02</pdfrwt>
<pdfrwt beam="2">  1        1 0.12289616E+00 0.10896799E+03</pdfrwt>
<totfact> 0.28299322E+02</totfact>
</mgrwt>
</event>
<event>
 7    1  0.4251803E-004  0.3577809E+02  0.7546771E-02  0.1545021E+00
          1   -1    0    0  503    0  0.00000000000E+00  0.00000000000E+00  0.10882130743E+03  0.10882130743E+03  0.00000000000E+00 0. -1.
         -2   -1    0    0    0  501 -0.00000000000E+00 -0.00000000000E+00 -0.43682117913E+03  0.43682117913E+03  0.00000000000E+00 0.  1.
         25    2    1    2    0    0  0.43301502019E+02  0.40234103691E+02 -0.16132378028E+03  0.21246477899E+03  0.12498846768E+03 0.  0.
          4    1    3    3  502    0 -0.42704627875E+02  0.24935577603E+02 -0.44140361647E+02  0.66298210373E+02  0.12700000000E+01 0.  1.
         -4    1    3    3    0  502  0.86006129894E+02  0.15298526088E+02 -0.11718341863E+03  0.14616656862E+03  0.12700000000E+01 0.  1.
          1    1    1    2  503    0 -0.34939524334E+02 -0.62079544802E+01  0.78164399769E+02  0.85842777511E+02  0.00000000000E+00 0. -1.
         -2    1    1    2    0  501 -0.83619776849E+01 -0.34026149211E+02 -0.24484049118E+03  0.24733493005E+03  0.00000000000E+00 0.  1.
<mgrwt>
<rscale>  0 0.35406400E+02</rscale>
<asrwt>0</asrwt>
<pdfrwt beam="1">  1        1 0.16741740E-01 0.35778090E+02</pdfrwt>
<pdfrwt beam="2">  1       -2 0.67203257E-01 0.35038572E+02</pdfrwt>
<totfact> 0.55309960E+02</totfact>
</mgrwt>
</event>
<event>
 7    1  0.4251803E-004  0.1010039E+03  0.7546771E-02  0.1315040E+00
          2   -1    0    0  502    0  0.00000000000E+00  0.00000000000E+00  0.89652537961E+03  0.89652537961E+03  0.00000000000E+00 0. -1.
          1   -1    0    0  503    0 -0.00000000000E+00 -0.00000000000E+00 -0.10256259406E+04  0.10256259406E+04  0.00000000000E+00 0. -1.
         25    2    1    2    0    0 -0.76788561506E+02  0.17010405951E+02  0.70106628662E+02  0.16348179851E+03  0.12500208788E+03 0.  0.
          4    1    3    3  501    0 -0.74628390084E+02  0.65178847248E+02  0.41734354298E+02  0.10752231379E+03  0.12700000000E+01 0.  1.
         -4    1    3    3    0  501 -0.21601714216E+01 -0.48168441297E+02  0.28372274364E+02  0.55959484720E+02  0.12700000000E+01 0.  1.
          2    1    1    2  502    0  0.58304136867E+02 -0.86375099692E+02  0.77492257284E+03  0.78189834641E+03  0.00000000000E+00 0. -1.
          1    1    1    2  503    0  0.18484424639E+02  0.69364693741E+02 -0.97412976250E+03  0.97677117529E+03  0.00000000000E+00 0. -1.
<mgrwt>
<rscale>  0 0.85150467E+02</rscale>
<asrwt>0</asrwt>
<pdfrwt beam="1">  1        2 0.13792698E+00 0.10100394E+03</pdfrwt>
<pdfrwt beam="2">  1        1 0.15778861E+00 0.71785338E+02</pdfrwt>
<totfact> 0.73063532E+01</totfact>
</mgrwt>
</event>
<event>
 7    1  0.4251803E-004  0.8627201E+02  0.7546771E-02  0.1422472E+00
          2   -1    0    0  503    0  0.00000000000E+00  0.00000000000E+00  0.13406847161E+04  0.13406847161E+04  0.00000000000E+00 0. -1.
          2   -1    0    0  502    0 -0.00000000000E+00 -0.00000000000E+00 -0.14176402182E+04  0.14176402182E+04  0.00000000000E+00 0. -1.
         25    2    1    2    0    0 -0.46287087890E+02 -0.95127490905E+02  0.94602327835E+03  0.96009222547E+03  0.12500121679E+03 0.  0.
          4    1    3    3  501    0 -0.17754329012E+02 -0.52370478154E+02  0.84431867073E+03  0.84612854450E+03  0.12700000000E+01 0. -1.
         -4    1    3    3    0  501 -0.28532758878E+02 -0.42757012751E+02  0.10170460763E+03  0.11396368097E+03  0.12700000000E+01 0. -1.
          2    1    1    2  502    0  0.13313579700E+02  0.85217703948E+02 -0.14085193965E+04  0.14111577512E+04  0.00000000000E+00 0. -1.
          2    1    1    2  503    0  0.32973508190E+02  0.99097869569E+01  0.38554061612E+03  0.38707495759E+03  0.00000000000E+00 0. -1.
<mgrwt>
<rscale>  0 0.54501232E+02</rscale>
<asrwt>0</asrwt>
<pdfrwt beam="1">  1        2 0.20625919E+00 0.34430453E+02</pdfrwt>
<pdfrwt beam="2">  1        2 0.21809850E+00 0.86272005E+02</pdfrwt>
<totfact> 0.49936241E+01</totfact>
</mgrwt>
</event>
<event>
 7    1  0.4251803E-004  0.1078735E+03  0.7546771E-02  0.1319244E+00
          2   -1    0    0  503    0  0.00000000000E+00  0.00000000000E+00  0.17412948622E+04  0.17412948622E+04  0.00000000000E+00 0. -1.
         -2   -1    0    0    0  501 -0.00000000000E+00 -0.00000000000E+00 -0.23963922893E+03  0.23963922893E+03  0.00000000000E+00 0.  1.
         25    2    1    2    0    0 -0.11695382961E+03  0.94947490303E+02  0.11007606885E+03  0.22457662638E+03  0.12499878403E+03 0.  0.
          4    1    3    3  502    0 -0.61451916103E+02 -0.22482099437E+02  0.30093212395E+02  0.72034693863E+02  0.12700000000E+01 0. -1.
         -4    1    3    3    0  502 -0.55501913507E+02  0.11742958974E+03  0.79982856453E+02  0.15254193252E+03  0.12700000000E+01 0. -1.
          2    1    1    2  503    0  0.17338906373E+02 -0.62359725896E+02  0.15581837383E+04  0.15595274719E+04  0.00000000000E+00 0. -1.
         -2    1    1    2    0  501  0.99614923236E+02 -0.32587764407E+02 -0.16660417393E+03  0.19682999287E+03  0.00000000000E+00 0.  1.
<mgrwt>
<rscale>  0 0.83559254E+02</rscale>
<asrwt>0</asrwt>
<pdfrwt beam="1">  1        2 0.26789151E+00 0.64725367E+02</pdfrwt>
<pdfrwt beam="2">  1       -2 0.36867575E-01 0.10787346E+03</pdfrwt>
<totfact> 0.81096459E+01</totfact>
</mgrwt>
</event>
<event>
 7    1  0.4251803E-004  0.5519206E+02  0.7546771E-02  0.1514770E+00
         -2   -1    0    0    0  501 -0.00000000000E+00  0.00000000000E+00  0.14594218676E+02  0.14594218676E+02  0.00000000000E+00 0.  1.
          2   -1    0    0  503    0  0.00000000000E+00 -0.00000000000E+00 -0.10544449344E+04  0.10544449344E+04  0.00000000000E+00 0. -1.
         25    2    1    2    0    0 -0.51429915074E+02 -0.21403814095E+02 -0.66884395255E+03  0.68270071756E+03  0.12499950987E+03 0.  0.
          4    1    3    3  502    0 -0.85602487547E+02  0.35737704193E+01 -0.31916853550E+03  0.33047045959E+03  0.12700000000E+01 0.  1.
         -4    1    3    3    0  502  0.34172572473E+02 -0.24977584514E+02 -0.34967541705E+03  0.35223025797E+03  0.12700000000E+01 0.  1.
          2    1    1    2  503    0 -0.43486636208E+01  0.27388560063E+02 -0.26460081557E+03  0.26605006239E+03  0.00000000000E+00 0. -1.
         -2    1    1    2    0  501  0.55778578695E+02 -0.59847459689E+01 -0.10640594765E+03  0.12028837317E+03  0.00000000000E+00 0.  1.
<mgrwt>
<rscale>  0 0.39122456E+02</rscale>
<asrwt>0</asrwt>
<pdfrwt beam="2">  1        2 0.16222239E+00 0.27731644E+02</pdfrwt>
<pdfrwt beam="1">  1       -2 0.22452631E-02 0.55192059E+02</pdfrwt>
<totfact> 0.14765026E+04</totfact>
</mgrwt>
</event>
<event>
 7    1  0.4251803E-004  0.6824522E+02  0.7546771E-02  0.1491737E+00
          2   -1    0    0  503    0  0.00000000000E+00  0.00000000000E+00  0.13469873227E+04  0.13469873227E+04  0.00000000000E+00 0.  1.
          2   -1    0    0  502    0 -0.00000000000E+00 -0.00000000000E+00 -0.52945496870E+03  0.52945496870E+03  0.00000000000E+00 0. -1.
         25    2    1    2    0    0  0.53921128760E+02  0.77070601584E+02  0.20244076428E+03  0.25584362467E+03  0.12500532583E+03 0.  0.
          4    1    3    3  501    0  0.80254725036E+02  0.84131263169E+02  0.11226898216E+03  0.16163176541E+03  0.12700000000E+01 0. -1.
         -4    1    3    3    0  501 -0.26333596276E+02 -0.70606615851E+01  0.90171782123E+02  0.94211859265E+02  0.12700000000E+01 0. -1.
          2    1    1    2  502    0 -0.41091138529E+02 -0.54163959962E+02 -0.50029990061E+03  0.50489821428E+03  0.00000000000E+00 0. -1.
          2    1    1    2  503    0 -0.12829990231E+02 -0.22906641622E+02  0.11153914903E+04  0.11157004524E+04  0.00000000000E+00 0.  1.
<mgrwt>
<rscale>  0 0.42329367E+02</rscale>
<asrwt>0</asrwt>
<pdfrwt beam="1">  1        2 0.20722882E+00 0.26254959E+02</pdfrwt>
<pdfrwt beam="2">  1        2 0.81454611E-01 0.68245215E+02</pdfrwt>
<totfact> 0.18298518E+02</totfact>
</mgrwt>
</event>
<event>
 7    1  0.4251803E-004  0.3722904E+02  0.7546771E-02  0.1589902E+00
          2   -1    0    0  503    0  0.00000000000E+00  0.00000000000E+00  0.16413868236E+03  0.16413868236E+03  0.00000000000E+00 0. -1.
         -1   -1    0    0    0  501 -0.00000000000E+00 -0.00000000000E+00 -0.91584621747E+02  0.91584621747E+02  0.00000000000E+00 0.  1.
         25    2    1    2    0    0  0.23946560958E+02  0.35049264883E+02 -0.13382731471E+02  0.13267172737E+03  0.12498320284E+03 0.  0.
          4    1    3    3  502    0 -0.40993808288E+02  0.94786411576E+01 -0.39900203924E+02  0.57999794218E+02  0.12700000000E+01 0.  1.
         -4    1    3    3    0  502  0.64940369246E+02  0.25570623725E+02  0.26517472454E+02  0.74671933153E+02  0.12700000000E+01 0.  1.
          2    1    1    2  503    0 -0.35278134495E+02 -0.12311471405E+02  0.89884833847E+02  0.97341678932E+02  0.00000000000E+00 0. -1.
         -1    1    1    2    0  501  0.11331573537E+02 -0.22737793478E+02 -0.39480417678E+01  0.25709897799E+02  0.00000000000E+00 0.  1.
<mgrwt>
<rscale>  0 0.30753896E+02</rscale>
<asrwt>0</asrwt>
<pdfrwt beam="1">  1        2 0.25252105E-01 0.37229039E+02</pdfrwt>
<pdfrwt beam="2">  1       -1 0.14089942E-01 0.25404956E+02</pdfrwt>
<totfact> 0.70511523E+03</totfact>
</mgrwt>
</event>
<event>
 7    1  0.4251803E-004  0.3692375E+02  0.7546771E-02  0.1631084E+00
         -1   -1    0    0    0  501 -0.00000000000E+00  0.00000000000E+00  0.11933618062E+02  0.11933618062E+02  0.00000000000E+00 0.  1.
          2   -1    0    0  503    0  0.00000000000E+00 -0.00000000000E+00 -0.10986908947E+04  0.10986908947E+04  0.00000000000E+00 0. -1.
         25    2    1    2    0    0 -0.14430373908E+02 -0.17108463286E+02 -0.82660808654E+03  0.83630591915E+03  0.12500290581E+03 0.  0.
          4    1    3    3  502    0  0.25942894934E+02  0.45019702279E+02 -0.29257117519E+03  0.29715200293E+03  0.12700000000E+01 0. -1.
         -4    1    3    3    0  502 -0.40373268842E+02 -0.62128165564E+02 -0.53403691135E+03  0.53915391623E+03  0.12700000000E+01 0. -1.
          2    1    1    2  503    0  0.25327712188E+02  0.33949346418E+02 -0.24636592612E+03  0.24998044060E+03  0.00000000000E+00 0. -1.
         -1    1    1    2    0  501 -0.10897338280E+02 -0.16840883132E+02 -0.13783263967E+02  0.24338153008E+02  0.00000000000E+00 0.  1.
<mgrwt>
<rscale>  0 0.27215015E+02</rscale>
<asrwt>0</asrwt>
<pdfrwt beam="2">  1        2 0.16902933E+00 0.36923750E+02</pdfrwt>
<pdfrwt beam="1">  1       -1 0.18359416E-02 0.20059096E+02</pdfrwt>
<totfact> 0.15381808E+04</totfact>
</mgrwt>
</event>
<event>
 7    1  0.4251803E-004  0.5958066E+02  0.7546771E-02  0.1547132E+00
          2   -1    0    0  503    0  0.00000000000E+00  0.00000000000E+00  0.72289812013E+03  0.72289812013E+03  0.00000000000E+00 0. -1.
         -1   -1    0    0    0  501 -0.00000000000E+00 -0.00000000000E+00 -0.18776513119E+02  0.18776513119E+02  0.00000000000E+00 0.  1.
         25    2    1    2    0    0 -0.48923460901E+02 -0.91285629663E+01  0.35403361700E+03  0.37873457998E+03  0.12499297746E+03 0.  0.
          4    1    3    3  502    0  0.16518817940E+02 -0.28159944812E+02  0.26293160145E+03  0.26495375781E+03  0.12700000000E+01 0.  1.
         -4    1    3    3    0  502 -0.65442278841E+02  0.19031381845E+02  0.91102015555E+02  0.11378082217E+03  0.12700000000E+01 0.  1.
          2    1    1    2  503    0  0.64598189282E+02 -0.44768193102E+01  0.17445165264E+03  0.18608156028E+03  0.00000000000E+00 0. -1.
         -1    1    1    2    0  501 -0.15674728380E+02  0.13605382277E+02  0.17563633737E+03  0.17685849299E+03  0.00000000000E+00 0.  1.
<mgrwt>
<rscale>  0 0.35165960E+02</rscale>
<asrwt>0</asrwt>
<pdfrwt beam="1">  1        2 0.11121507E+00 0.59580662E+02</pdfrwt>
<pdfrwt beam="2">  1       -1 0.28886949E-02 0.20755807E+02</pdfrwt>
<totfact> 0.13752465E+04</totfact>
</mgrwt>
</event>
<event>
 7    1  0.4251803E-004  0.1627095E+03  0.7546771E-02  0.1267155E+00
         -1   -1    0    0    0  501 -0.00000000000E+00  0.00000000000E+00  0.14411555087E+03  0.14411555087E+03  0.00000000000E+00 0.  1.
          1   -1    0    0  503    0  0.00000000000E+00 -0.00000000000E+00 -0.64349180443E+03  0.64349180443E+03  0.00000000000E+00 0. -1.
         25    2    1    2    0    0 -0.14619684985E+03  0.96794762116E+02 -0.16111970239E+03  0.26893719282E+03  0.12499964121E+03 0.  0.
          4    1    3    3  502    0 -0.13839059936E+03  0.49140737725E+02 -0.63464913409E+02  0.15998805652E+03  0.12700000000E+01 0.  1.
         -4    1    3    3    0  502 -0.78062504827E+01  0.47654024391E+02 -0.97654788986E+02  0.10894913629E+03  0.12700000000E+01 0.  1.
          1    1    1    2  503    0  0.88506957601E+02 -0.13596986660E+03 -0.39611947174E+03  0.42805598005E+03  0.00000000000E+00 0. -1.
         -1    1    1    2    0  501  0.57689892246E+02  0.39175104484E+02  0.57862920575E+02  0.90614182423E+02  0.00000000000E+00 0.  1.
<mgrwt>
<rscale>  0 0.10651930E+03</rscale>
<asrwt>0</asrwt>
<pdfrwt beam="2">  1        1 0.98998740E-01 0.16270946E+03</pdfrwt>
<pdfrwt beam="1">  1       -1 0.22171623E-01 0.69733869E+02</pdfrwt>
<totfact> 0.53409949E+02</totfact>
</mgrwt>
</event>
<event>
 7    1  0.4251803E-004  0.6245578E+02  0.7546771E-02  0.1452564E+00
         -1   -1    0    0    0  501 -0.00000000000E+00  0.00000000000E+00  0.12997303682E+03  0.12997303682E+03  0.00000000000E+00 0.  1.
          3   -1    0    0  503    0  0.00000000000E+00 -0.00000000000E+00 -0.34864981210E+03  0.34864981210E+03  0.00000000000E+00 0. -1.
         25    2    1    2    0    0 -0.87755628236E+02 -0.32145946489E+02  0.72802533984E+01  0.15624052968E+03  0.12499475534E+03 0.  0.
          4    1    3    3  502    0 -0.42453608552E+02 -0.35107310710E+02 -0.55858555729E+02  0.78464152913E+02  0.12700000000E+01 0.  1.
         -4    1    3    3    0  502 -0.45302019684E+02  0.29613642209E+01  0.63138809127E+02  0.77776376770E+02  0.12700000000E+01 0.  1.
          3    1    1    2  503    0  0.36271814909E+02  0.11164208169E+02 -0.25626682176E+03  0.25906170700E+03  0.00000000000E+00 0. -1.
         -1    1    1    2    0  501  0.51483813327E+02  0.20981738320E+02  0.30309793076E+02  0.63320612236E+02  0.00000000000E+00 0.  1.
<mgrwt>
<rscale>  0 0.48685355E+02</rscale>
<asrwt>0</asrwt>
<pdfrwt beam="2">  1        3 0.53638432E-01 0.37951075E+02</pdfrwt>
<pdfrwt beam="1">  1       -1 0.19995852E-01 0.62455775E+02</pdfrwt>
<totfact> 0.27610517E+02</totfact>
</mgrwt>
</event>
<event>
 7    1  0.4251803E-004  0.9480260E+02  0.7546771E-02  0.1448944E+00
          1   -1    0    0  503    0  0.00000000000E+00  0.00000000000E+00  0.16685210288E+04  0.16685210288E+04  0.00000000000E+00 0. -1.
         -2   -1    0    0    0  501 -0.00000000000E+00 -0.00000000000E+00 -0.78353469839E+03  0.78353469839E+03  0.00000000000E+00 0.  1.
         25    2    1    2    0    0  0.72153208122E+02  0.29529107126E+01 -0.54003184107E+02  0.15413184047E+03  0.12500190090E+03 0.  0.
          4    1    3    3  502    0  0.96575765554E+02 -0.29466257107E+02 -0.51733307807E+02  0.11345962646E+03  0.12700000000E+01 0.  1.
         -4    1    3    3    0  502 -0.24422557433E+02  0.32419167820E+02 -0.22698762999E+01  0.40672214005E+02  0.12700000000E+01 0.  1.
          1    1    1    2  503    0 -0.94646676583E+02  0.94311274834E+01  0.16168159394E+04  0.16196112872E+04  0.00000000000E+00 0. -1.
         -2    1    1    2    0  501  0.22493468461E+02 -0.12384038196E+02 -0.67782642487E+03  0.67831259960E+03  0.00000000000E+00 0.  1.
<mgrwt>
<rscale>  0 0.49338310E+02</rscale>
<asrwt>0</asrwt>
<pdfrwt beam="1">  1        1 0.25669554E+00 0.94802597E+02</pdfrwt>
<pdfrwt beam="2">  1       -2 0.12054380E+00 0.25677237E+02</pdfrwt>
<totfact> 0.32828555E+00</totfact>
</mgrwt>
</event>
<event>
 7    1  0.4251803E-004  0.8535551E+02  0.7546771E-02  0.1401520E+00
          1   -1    0    0  503    0  0.00000000000E+00  0.00000000000E+00  0.34134531069E+04  0.34134531069E+04  0.00000000000E+00 0. -1.
         -3   -1    0    0    0  501 -0.00000000000E+00 -0.00000000000E+00 -0.10713637070E+03  0.10713637070E+03  0.00000000000E+00 0.  1.
         25    2    1    2    0    0  0.46566721136E+02  0.67465520593E+02 -0.13471112580E+02  0.15007890264E+03  0.12498860011E+03 0.  0.
          4    1    3    3  502    0 -0.29730299073E+02  0.62932036009E+02 -0.22374062783E+02  0.73120061711E+02  0.12700000000E+01 0. -1.
         -4    1    3    3    0  502  0.76297020209E+02  0.45334845836E+01  0.89029502028E+01  0.76958840931E+02  0.12700000000E+01 0. -1.
          1    1    1    2  503    0 -0.76022783518E+02 -0.39000890623E+02  0.33276954249E+04  0.33287921794E+04  0.00000000000E+00 0. -1.
         -3    1    1    2    0  501  0.29456062383E+02 -0.28464629970E+02 -0.79075760568E+01  0.41718395577E+02  0.00000000000E+00 0.  1.
<mgrwt>
<rscale>  0 0.59129877E+02</rscale>
<asrwt>0</asrwt>
<pdfrwt beam="1">  1        1 0.52514655E+00 0.85355515E+02</pdfrwt>
<pdfrwt beam="2">  1       -3 0.16482521E-01 0.40962114E+02</pdfrwt>
<totfact> 0.65424980E+00</totfact>
</mgrwt>
</event>
<event>
 7    1  0.4251803E-004  0.4866837E+02  0.7546771E-02  0.1517362E+00
          2   -1    0    0  503    0  0.00000000000E+00  0.00000000000E+00  0.25663116748E+03  0.25663116748E+03  0.00000000000E+00 0. -1.
         -1   -1    0    0    0  501 -0.00000000000E+00 -0.00000000000E+00 -0.51495032703E+02  0.51495032703E+02  0.00000000000E+00 0.  1.
         25    2    1    2    0    0  0.30712279425E+02  0.45561866874E+01  0.65425615079E+02  0.14446251251E+03  0.12499961386E+03 0.  0.
          4    1    3    3  502    0  0.16333260365E+02  0.53177232171E+02  0.74451081018E+02  0.92947134331E+02  0.12700000000E+01 0. -1.
         -4    1    3    3    0  502  0.14379019060E+02 -0.48621045484E+02 -0.90254659388E+01  0.51515378175E+02  0.12700000000E+01 0. -1.
          2    1    1    2  503    0 -0.39245383729E+02 -0.34260545918E+02  0.10482872713E+03  0.11706001530E+03  0.00000000000E+00 0. -1.
         -1    1    1    2    0  501  0.85331043039E+01  0.29704359230E+02  0.34881792575E+02  0.46603672383E+02  0.00000000000E+00 0.  1.
<mgrwt>
<rscale>  0 0.38783121E+02</rscale>
<asrwt>0</asrwt>
<pdfrwt beam="1">  1        2 0.39481717E-01 0.48668371E+02</pdfrwt>
<pdfrwt beam="2">  1       -1 0.79223129E-02 0.30905709E+02</pdfrwt>
<totfact> 0.10551265E+04</totfact>
</mgrwt>
</event>
<event>
 7    1  0.4251803E-004  0.3559082E+02  0.7546771E-02  0.1581376E+00
          2   -1    0    0  502    0  0.00000000000E+00  0.00000000000E+00  0.36465717444E+04  0.36465717444E+04  0.00000000000E+00 0. -1.
          3   -1    0    0  503    0 -0.00000000000E+00 -0.00000000000E+00 -0.25748485828E+02  0.25748485828E+02  0.00000000000E+00 0. -1.
         25    2    1    2    0    0 -0.58208989663E+02  0.22825750375E+02  0.13808897106E+04  0.13879446583E+04  0.12499872056E+03 0.  0.
          4    1    3    3  501    0 -0.70765097249E+02  0.21695673499E+02  0.13675292750E+04  0.13695314279E+04  0.12700000000E+01 0.  1.
         -4    1    3    3    0  501  0.12556107586E+02  0.11300768763E+01  0.13360435679E+02  0.18413230379E+02  0.12700000000E+01 0.  1.
          2    1    1    2  502    0  0.32645580307E+02 -0.11401888780E+02  0.22531485209E+04  0.22534138533E+04  0.00000000000E+00 0. -1.
          3    1    1    2  503    0  0.25563409356E+02 -0.11423861595E+02 -0.13214972966E+02  0.30961718656E+02  0.00000000000E+00 0. -1.
<mgrwt>
<rscale>  0 0.31567994E+02</rscale>
<asrwt>0</asrwt>
<pdfrwt beam="1">  1        2 0.56101063E+00 0.35590822E+02</pdfrwt>
<pdfrwt beam="2">  1        3 0.39613084E-02 0.27999866E+02</pdfrwt>
<totfact> 0.17587516E+02</totfact>
</mgrwt>
</event>
<event>
 7    1  0.4251803E-004  0.3812216E+02  0.7546771E-02  0.1580171E+00
          1   -1    0    0  503    0  0.00000000000E+00  0.00000000000E+00  0.12032082815E+03  0.12032082815E+03  0.00000000000E+00 0. -1.
         -2   -1    0    0    0  501 -0.00000000000E+00 -0.00000000000E+00 -0.94465183154E+02  0.94465183154E+02  0.00000000000E+00 0.  1.
         25    2    1    2    0    0 -0.50783980992E+01  0.17779959834E+02  0.23858181912E+01  0.12637778213E+03  0.12499493825E+03 0.  0.
          4    1    3    3  502    0  0.39908974828E+02  0.37672895744E+02  0.37013811341E+02  0.66208824756E+02  0.12700000000E+01 0. -1.
         -4    1    3    3    0  502 -0.44987372927E+02 -0.19892935910E+02 -0.34627993150E+02  0.60168957375E+02  0.12700000000E+01 0. -1.
          1    1    1    2  503    0  0.28611250739E+02 -0.29602581622E+02  0.39929276465E+02  0.57352102199E+02  0.00000000000E+00 0. -1.
         -2    1    1    2    0  501 -0.23532852640E+02  0.11822621788E+02 -0.16459449663E+02  0.31056126972E+02  0.00000000000E+00 0.  1.
<mgrwt>
<rscale>  0 0.31685552E+02</rscale>
<asrwt>0</asrwt>
<pdfrwt beam="1">  1        1 0.18510897E-01 0.38122165E+02</pdfrwt>
<pdfrwt beam="2">  1       -2 0.14533105E-01 0.26335708E+02</pdfrwt>
<totfact> 0.72259615E+03</totfact>
</mgrwt>
</event>
<event>
 7    1  0.4251803E-004  0.8560387E+02  0.7546771E-02  0.1488587E+00
          1   -1    0    0  502    0  0.00000000000E+00  0.00000000000E+00  0.18963464389E+03  0.18963464389E+03  0.00000000000E+00 0. -1.
          1   -1    0    0  503    0 -0.00000000000E+00 -0.00000000000E+00 -0.19213533930E+03  0.19213533930E+03  0.00000000000E+00 0. -1.
         25    2    1    2    0    0  0.95555189360E+02  0.81183224914E+00  0.43761172437E+02  0.16330802725E+03  0.12499207281E+03 0.  0.
          4    1    3    3  501    0 -0.14968426342E+01 -0.33974148498E+02  0.49469618179E+02  0.60044477905E+02  0.12700000000E+01 0. -1.
         -4    1    3    3    0  501  0.97052031994E+02  0.34785980747E+02 -0.57084457425E+01  0.10326354935E+03  0.12700000000E+01 0. -1.
          1    1    1    2  502    0 -0.12942113836E+02  0.17037095476E+02  0.70865009928E+02  0.74024391688E+02  0.00000000000E+00 0. -1.
          1    1    1    2  503    0 -0.82613075524E+02 -0.17848927725E+02 -0.11712687778E+03  0.14443756425E+03  0.00000000000E+00 0. -1.
<mgrwt>
<rscale>  0 0.42796315E+02</rscale>
<asrwt>0</asrwt>
<pdfrwt beam="1">  1        1 0.29174560E-01 0.21395348E+02</pdfrwt>
<pdfrwt beam="2">  1        1 0.29559283E-01 0.85603867E+02</pdfrwt>
<totfact> 0.26621385E+03</totfact>
</mgrwt>
</event>
<event>
 7    1  0.4251803E-004  0.1149828E+03  0.7546771E-02  0.1327824E+00
         -1   -1    0    0    0  502 -0.00000000000E+00  0.00000000000E+00  0.10116584741E+03  0.10116584741E+03  0.00000000000E+00 0.  1.
         -2   -1    0    0    0  501  0.00000000000E+00 -0.00000000000E+00 -0.13195176756E+04  0.13195176756E+04  0.00000000000E+00 0.  1.
         25    2    1    2    0    0  0.54235420090E+02 -0.13884121756E+03 -0.62363215411E+03  0.65326859256E+03  0.12499770356E+03 0.  0.
          4    1    3    3  503    0 -0.22070675053E+02 -0.42759957627E+02 -0.62559524053E+02  0.78935642287E+02  0.12700000000E+01 0.  1.
         -4    1    3    3    0  503  0.76306095143E+02 -0.96081259935E+02 -0.56107263006E+03  0.57433295027E+03  0.12700000000E+01 0.  1.
         -2    1    1    2    0  501 -0.65849712163E+02  0.83786981945E+02 -0.66720083670E+03  0.67565775317E+03  0.00000000000E+00 0.  1.
         -1    1    1    2    0  502  0.11614292073E+02  0.55054235617E+02  0.72481162641E+02  0.91757177253E+02  0.00000000000E+00 0.  1.
<mgrwt>
<rscale>  0 0.80433943E+02</rscale>
<asrwt>0</asrwt>
<pdfrwt beam="2">  1       -2 0.20300271E+00 0.11498278E+03</pdfrwt>
<pdfrwt beam="1">  1       -1 0.15563977E-01 0.56265981E+02</pdfrwt>
<totfact> 0.30700815E+01</totfact>
</mgrwt>
</event>
<event>
 7    1  0.4251803E-004  0.4438628E+02  0.7546771E-02  0.1550881E+00
          1   -1    0    0  503    0  0.00000000000E+00  0.00000000000E+00  0.99993421194E+03  0.99993421194E+03  0.00000000000E+00 0. -1.
         -2   -1    0    0    0  501 -0.00000000000E+00 -0.00000000000E+00 -0.11316364970E+02  0.11316364970E+02  0.00000000000E+00 0.  1.
         25    2    1    2    0    0  0.97297223476E+01 -0.20129862889E+02  0.64641039327E+03  0.65876480109E+03  0.12499915101E+03 0.  0.
          4    1    3    3  502    0  0.33404923579E+02 -0.47421389569E+02  0.14682324323E+03  0.15787132343E+03  0.12700000000E+01 0. -1.
         -4    1    3    3    0  502 -0.23675201232E+02  0.27291526680E+02  0.49958715004E+03  0.50089347767E+03  0.12700000000E+01 0. -1.
          1    1    1    2  503    0  0.61808420799E+01 -0.26485561462E+02  0.20315064523E+03  0.20496310017E+03  0.00000000000E+00 0. -1.
         -2    1    1    2    0  501 -0.15910564427E+02  0.46615424351E+02  0.13905680847E+03  0.14752267564E+03  0.00000000000E+00 0.  1.
<mgrwt>
<rscale>  0 0.34744535E+02</rscale>
<asrwt>0</asrwt>
<pdfrwt beam="1">  1        1 0.15383596E+00 0.27197202E+02</pdfrwt>
<pdfrwt beam="2">  1       -2 0.17409800E-02 0.44386285E+02</pdfrwt>
<totfact> 0.12107875E+04</totfact>
</mgrwt>
</event>
<event>
 7    1  0.4251803E-004  0.4374626E+02  0.7546771E-02  0.1541283E+00
          2   -1    0    0  503    0  0.00000000000E+00  0.00000000000E+00  0.14996374957E+03  0.14996374957E+03  0.00000000000E+00 0. -1.
         -1   -1    0    0    0  501 -0.00000000000E+00 -0.00000000000E+00 -0.80939053621E+02  0.80939053621E+02  0.00000000000E+00 0.  1.
         25    2    1    2    0    0 -0.30457709544E+02 -0.24705367639E+02  0.39681412705E+02  0.13691784933E+03  0.12503541774E+03 0.  0.
          4    1    3    3  502    0 -0.59329521465E+02 -0.51681092032E+02 -0.29880586689E+01  0.78749404985E+02  0.12700000000E+01 0. -1.
         -4    1    3    3    0  502  0.28871811921E+02  0.26975724393E+02  0.42669471374E+02  0.58168444345E+02  0.12700000000E+01 0. -1.
          2    1    1    2  503    0 -0.15978424536E+02  0.24630475445E+02  0.36669161518E+02  0.46974437492E+02  0.00000000000E+00 0. -1.
         -1    1    1    2    0  501  0.46436134080E+02  0.74892194288E-01 -0.73258782704E+01  0.47010516372E+02  0.00000000000E+00 0.  1.
<mgrwt>
<rscale>  0 0.35837981E+02</rscale>
<asrwt>0</asrwt>
<pdfrwt beam="1">  1        2 0.23071346E-01 0.29359332E+02</pdfrwt>
<pdfrwt beam="2">  1       -1 0.12452162E-01 0.43746256E+02</pdfrwt>
<totfact> 0.96169354E+03</totfact>
</mgrwt>
</event>
<event>
 7    1  0.4251803E-004  0.6249158E+03  0.7546771E-02  0.1151558E+00
          2   -1    0    0  502    0  0.00000000000E+00  0.00000000000E+00  0.84598530736E+03  0.84598530736E+03  0.00000000000E+00 0. -1.
          2   -1    0    0  503    0 -0.00000000000E+00 -0.00000000000E+00 -0.79544806207E+03  0.79544806207E+03  0.00000000000E+00 0. -1.
         25    2    1    2    0    0 -0.29979554755E+03  0.55009470143E+03  0.40098102172E+03  0.75424755954E+03  0.12498820110E+03 0.  0.
          4    1    3    3  501    0 -0.49587098603E+02  0.14550264390E+03  0.15657669734E+03  0.21942601208E+03  0.12700000000E+01 0. -1.
         -4    1    3    3    0  501 -0.25020844895E+03  0.40459205754E+03  0.24440432437E+03  0.53482154745E+03  0.12700000000E+01 0. -1.
          2    1    1    2  502    0  0.56998253333E+02  0.25993141163E+02  0.99054091959E+02  0.11720135411E+03  0.00000000000E+00 0. -1.
          2    1    1    2  503    0  0.24279729422E+03 -0.57608784260E+03 -0.44949786839E+03  0.76998445579E+03  0.00000000000E+00 0. -1.
<mgrwt>
<rscale>  0 0.19785876E+03</rscale>
<asrwt>0</asrwt>
<pdfrwt beam="1">  1        2 0.13015159E+00 0.62645385E+02</pdfrwt>
<pdfrwt beam="2">  1        2 0.12237662E+00 0.62491576E+03</pdfrwt>
<totfact> 0.18950815E+02</totfact>
</mgrwt>
</event>
<event>
 7    1  0.4251803E-004  0.2689406E+03  0.7546771E-02  0.1239009E+00
          1   -1    0    0  503    0 -0.00000000000E+00  0.00000000000E+00  0.11343267770E+04  0.11343267770E+04  0.00000000000E+00 0. -1.
          2   -1    0    0  502    0  0.00000000000E+00 -0.00000000000E+00 -0.13397197045E+04  0.13397197045E+04  0.00000000000E+00 0. -1.
         25    2    1    2    0    0 -0.11741568663E+03  0.18293979012E+03 -0.23091583981E+03  0.34088274292E+03  0.12500203626E+03 0.  0.
          4    1    3    3  501    0 -0.57826770158E+01 -0.18846634046E+02 -0.13371978954E+02  0.23854930087E+02  0.12700000000E+01 0. -1.
         -4    1    3    3    0  501 -0.11163300962E+03  0.20178642417E+03 -0.21754386085E+03  0.31702781283E+03  0.12700000000E+01 0. -1.
          2    1    1    2  502    0 -0.39934082680E+02  0.38985792095E+02 -0.10359150125E+04  0.10374172430E+04  0.00000000000E+00 0. -1.
          1    1    1    2  503    0  0.15734976931E+03 -0.22192558221E+03  0.10614379249E+04  0.10957464955E+04  0.00000000000E+00 0. -1.
<mgrwt>
<rscale>  0 0.12251226E+03</rscale>
<asrwt>0</asrwt>
<pdfrwt beam="2">  1        2 0.20611072E+00 0.55808807E+02</pdfrwt>
<pdfrwt beam="1">  1        1 0.17451181E+00 0.26894060E+03</pdfrwt>
<totfact> 0.32833773E+01</totfact>
</mgrwt>
</event>
<event>
 7    1  0.4251803E-004  0.9097681E+02  0.7546771E-02  0.1323544E+00
          1   -1    0    0  503    0 -0.00000000000E+00  0.00000000000E+00  0.26601861322E+03  0.26601861322E+03  0.00000000000E+00 0. -1.
          2   -1    0    0  502    0  0.00000000000E+00 -0.00000000000E+00 -0.11952960231E+03  0.11952960231E+03  0.00000000000E+00 0. -1.
         25    2    1    2    0    0  0.89456342518E+02  0.59552618273E+02  0.10521996763E+02  0.16518255980E+03  0.12500245632E+03 0.  0.
          4    1    3    3  501    0  0.80907268955E+02  0.71971580664E+02 -0.37680011190E+02  0.11466163585E+03  0.12700000000E+01 0. -1.
         -4    1    3    3    0  501  0.85490735631E+01 -0.12418962391E+02  0.48202007953E+02  0.50520923946E+02  0.12700000000E+01 0. -1.
          2    1    1    2  502    0 -0.21132535615E+02 -0.87609746405E+02  0.38320313460E+02  0.97931088784E+02  0.00000000000E+00 0. -1.
          1    1    1    2  503    0 -0.68323806902E+02  0.28057128132E+02  0.97646700686E+02  0.12243456695E+03  0.00000000000E+00 0. -1.
<mgrwt>
<rscale>  0 0.81973013E+02</rscale>
<asrwt>0</asrwt>
<pdfrwt beam="2">  1        2 0.18389170E-01 0.90976805E+02</pdfrwt>
<pdfrwt beam="1">  1        1 0.40925940E-01 0.73860308E+02</pdfrwt>
<totfact> 0.40369349E+03</totfact>
</mgrwt>
</event>
<event>
 7    1  0.4251803E-004  0.1421350E+03  0.7546771E-02  0.1225921E+00
         -2   -1    0    0    0  501 -0.00000000000E+00  0.00000000000E+00  0.89128788630E+03  0.89128788630E+03  0.00000000000E+00 0.  1.
          2   -1    0    0  503    0  0.00000000000E+00 -0.00000000000E+00 -0.13050217184E+03  0.13050217184E+03  0.00000000000E+00 0. -1.
         25    2    1    2    0    0 -0.51006249473E+02 -0.38098364900E+02  0.17653140871E+03  0.22548344574E+03  0.12500529248E+03 0.  0.
          4    1    3    3  502    0 -0.20570105436E+02 -0.74434848451E+02  0.15547435812E+03  0.17360174202E+03  0.12700000000E+01 0.  1.
         -4    1    3    3    0  502 -0.30436144037E+02  0.36336483551E+02  0.21057050592E+02  0.51881703714E+02  0.12700000000E+01 0.  1.
          2    1    1    2  503    0 -0.84086822084E+02 -0.86744577991E+02 -0.53813230566E+02  0.13225384396E+03  0.00000000000E+00 0. -1.
         -2    1    1    2    0  501  0.13509307156E+03  0.12484294289E+03  0.63806753631E+03  0.66405276844E+03  0.00000000000E+00 0.  1.
<mgrwt>
<rscale>  0 0.13103978E+03</rscale>
<asrwt>0</asrwt>
<pdfrwt beam="2">  1        2 0.20077258E-01 0.12081066E+03</pdfrwt>
<pdfrwt beam="1">  1       -2 0.13712121E+00 0.14213500E+03</pdfrwt>
<totfact> 0.11123254E+02</totfact>
</mgrwt>
</event>
<event>
 7    1  0.4251803E-004  0.1056303E+03  0.7546771E-02  0.1434470E+00
          1   -1    0    0  503    0  0.00000000000E+00  0.00000000000E+00  0.30287754049E+03  0.30287754049E+03  0.00000000000E+00 0. -1.
         -2   -1    0    0    0  501 -0.00000000000E+00 -0.00000000000E+00 -0.79708102829E+02  0.79708102829E+02  0.00000000000E+00 0.  1.
         25    2    1    2    0    0  0.74723120635E+02  0.87880767809E+02  0.12393206019E+03  0.21044874368E+03  0.12499177600E+03 0.  0.
          4    1    3    3  502    0 -0.15212037951E+02  0.77799304749E+02  0.51684733305E+02  0.94641758621E+02  0.12700000000E+01 0. -1.
         -4    1    3    3    0  502  0.89935158586E+02  0.10081463059E+02  0.72247326882E+02  0.11580698506E+03  0.12700000000E+01 0. -1.
          1    1    1    2  503    0 -0.49080547600E+02 -0.89085166224E+02  0.10461509390E+03  0.14590882381E+03  0.00000000000E+00 0. -1.
         -2    1    1    2    0  501 -0.25642573035E+02  0.12043984155E+01 -0.53777164309E+01  0.26228075823E+02  0.00000000000E+00 0.  1.
<mgrwt>
<rscale>  0 0.52073212E+02</rscale>
<asrwt>0</asrwt>
<pdfrwt beam="1">  1        1 0.46596544E-01 0.10563032E+03</pdfrwt>
<pdfrwt beam="2">  1       -2 0.12262785E-01 0.25670842E+02</pdfrwt>
<totfact> 0.31171667E+03</totfact>
</mgrwt>
</event>
<event>
 7    1  0.4251803E-004  0.1997051E+03  0.7546771E-02  0.1248083E+00
          2   -1    0    0  502    0  0.00000000000E+00  0.00000000000E+00  0.11646475617E+04  0.11646475617E+04  0.00000000000E+00 0. -1.
          2   -1    0    0  503    0 -0.00000000000E+00 -0.00000000000E+00 -0.25875687788E+04  0.25875687788E+04  0.00000000000E+00 0. -1.
         25    2    1    2    0    0 -0.93582224006E+02 -0.18965055467E+03 -0.16955164023E+04  0.17132209087E+04  0.12500018450E+03 0.  0.
          4    1    3    3  501    0 -0.48036626326E+02 -0.58493447121E+02 -0.25420562625E+03  0.26523784448E+03  0.12700000000E+01 0. -1.
         -4    1    3    3    0  501 -0.45545597680E+02 -0.13115710755E+03 -0.14413107760E+04  0.14479830642E+04  0.12700000000E+01 0. -1.
          2    1    1    2  502    0  0.14166705543E+03  0.14075418114E+03  0.11458145016E+04  0.11630873425E+04  0.00000000000E+00 0. -1.
          2    1    1    2  503    0 -0.48084831421E+02  0.48896373532E+02 -0.87321931640E+03  0.87590808929E+03  0.00000000000E+00 0. -1.
<mgrwt>
<rscale>  0 0.11702764E+03</rscale>
<asrwt>0</asrwt>
<pdfrwt beam="1">  1        2 0.17917655E+00 0.19970509E+03</pdfrwt>
<pdfrwt beam="2">  1        2 0.39808750E+00 0.68578469E+02</pdfrwt>
<totfact> 0.14453992E+01</totfact>
</mgrwt>
</event>
<event>
 7    1  0.4251803E-004  0.5350940E+02  0.7546771E-02  0.1517841E+00
         -1   -1    0    0    0  501 -0.00000000000E+00  0.00000000000E+00  0.10242086945E+03  0.10242086945E+03  0.00000000000E+00 0.  1.
          2   -1    0    0  503    0  0.00000000000E+00 -0.00000000000E+00 -0.45419582137E+03  0.45419582137E+03  0.00000000000E+00 0. -1.
         25    2    1    2    0    0  0.76436601884E+01 -0.29842553635E+02 -0.21994109581E+03  0.25483078149E+03  0.12496254646E+03 0.  0.
          4    1    3    3  502    0  0.17776785027E+02  0.20892744887E+02  0.14221686703E+01  0.27498297012E+02  0.12700000000E+01 0.  1.
         -4    1    3    3    0  502 -0.10133124838E+02 -0.50735298522E+02 -0.22136326448E+03  0.22733248447E+03  0.12700000000E+01 0.  1.
          2    1    1    2  503    0  0.24019260688E+02 -0.14428094824E+02 -0.20705288293E+03  0.20894016161E+03  0.00000000000E+00 0. -1.
         -1    1    1    2    0  501 -0.31662920876E+02  0.44270648459E+02  0.75219026820E+02  0.92845747717E+02  0.00000000000E+00 0.  1.
<mgrwt>
<rscale>  0 0.38720913E+02</rscale>
<asrwt>0</asrwt>
<pdfrwt beam="2">  1        2 0.69876280E-01 0.28019543E+02</pdfrwt>
<pdfrwt beam="1">  1       -1 0.15757057E-01 0.53509405E+02</pdfrwt>
<totfact> 0.22232084E+03</totfact>
</mgrwt>
</event>
<event>
 7    1  0.4251803E-004  0.1028351E+03  0.7546771E-02  0.1308828E+00
          1   -1    0    0  503    0  0.00000000000E+00  0.00000000000E+00  0.20139344469E+04  0.20139344469E+04  0.00000000000E+00 0. -1.
          1   -1    0    0  502    0 -0.00000000000E+00 -0.00000000000E+00 -0.50791946499E+03  0.50791946499E+03  0.00000000000E+00 0. -1.
         25    2    1    2    0    0 -0.16582861084E+03 -0.24605706985E+01  0.68451697111E+02  0.21866806799E+03  0.12499962616E+03 0.  0.
          4    1    3    3  501    0 -0.16968448246E+02 -0.30369646975E+02 -0.23016039870E+02  0.41732417670E+02  0.12700000000E+01 0.  1.
         -4    1    3    3    0  501 -0.14886016259E+03  0.27909076277E+02  0.91467736981E+02  0.17693565032E+03  0.12700000000E+01 0.  1.
          1    1    1    2  502    0  0.97013749175E+02 -0.26298763725E+02 -0.42621950900E+03  0.43791136358E+03  0.00000000000E+00 0. -1.
          1    1    1    2  503    0  0.68814861666E+02  0.28759334423E+02  0.18637827938E+04  0.18652744804E+04  0.00000000000E+00 0. -1.
<mgrwt>
<rscale>  0 0.87576950E+02</rscale>
<asrwt>0</asrwt>
<pdfrwt beam="1">  1        1 0.30983607E+00 0.74582736E+02</pdfrwt>
<pdfrwt beam="2">  1        1 0.78141457E-01 0.10283509E+03</pdfrwt>
<totfact> 0.21064823E+01</totfact>
</mgrwt>
</event>
<event>
 7    1  0.4251803E-004  0.8251752E+02  0.7546771E-02  0.1436281E+00
          2   -1    0    0  502    0  0.00000000000E+00  0.00000000000E+00  0.48753685513E+03  0.48753685513E+03  0.00000000000E+00 0. -1.
          1   -1    0    0  503    0 -0.00000000000E+00 -0.00000000000E+00 -0.58533320737E+03  0.58533320737E+03  0.00000000000E+00 0. -1.
         25    2    1    2    0    0  0.97723157575E+02  0.11624386816E+02  0.28443844110E+03  0.32590870102E+03  0.12500525079E+03 0.  0.
          4    1    3    3  501    0  0.12228637852E+03  0.30679203256E+02  0.20596077622E+03  0.24148835608E+03  0.12700000000E+01 0. -1.
         -4    1    3    3    0  501 -0.24563220941E+02 -0.19054816440E+02  0.78477664889E+02  0.84420344935E+02  0.12700000000E+01 0. -1.
          2    1    1    2  502    0 -0.71129854726E+02 -0.30161550095E+02  0.17368679815E+03  0.19009544758E+03  0.00000000000E+00 0. -1.
          1    1    1    2  503    0 -0.26593302849E+02  0.18537163279E+02 -0.55592159150E+03  0.55686591391E+03  0.00000000000E+00 0. -1.
<mgrwt>
<rscale>  0 0.51719726E+02</rscale>
<asrwt>0</asrwt>
<pdfrwt beam="1">  1        2 0.75005670E-01 0.82517520E+02</pdfrwt>
<pdfrwt beam="2">  1        1 0.90051262E-01 0.32416511E+02</pdfrwt>
<totfact> 0.34624392E+02</totfact>
</mgrwt>
</event>
<event>
 7    1  0.4251803E-004  0.7149626E+02  0.7546771E-02  0.1359465E+00
          2   -1    0    0  503    0  0.00000000000E+00  0.00000000000E+00  0.18710521916E+04  0.18710521916E+04  0.00000000000E+00 0. -1.
         -2   -1    0    0    0  501 -0.00000000000E+00 -0.00000000000E+00 -0.20404833756E+03  0.20404833756E+03  0.00000000000E+00 0. -1.
         25    2    1    2    0    0 -0.15434772927E+02  0.68835439192E+02  0.82879662998E+02  0.16574013796E+03  0.12499681951E+03 0.  0.
          4    1    3    3  502    0 -0.44566513051E+02  0.43417196564E+02  0.10435028358E+03  0.12149823713E+03  0.12700000000E+01 0.  1.
         -4    1    3    3    0  502  0.29131740124E+02  0.25418242628E+02 -0.21470620580E+02  0.44241900830E+02  0.12700000000E+01 0.  1.
          2    1    1    2  503    0 -0.53608779737E+02 -0.43277994800E+02  0.17376917960E+04  0.17390571193E+04  0.00000000000E+00 0. -1.
         -2    1    1    2    0  501  0.69043552664E+02 -0.25557444392E+02 -0.15356760498E+03  0.17030327192E+03  0.00000000000E+00 0. -1.
<mgrwt>
<rscale>  0 0.70184931E+02</rscale>
<asrwt>0</asrwt>
<pdfrwt beam="1">  1        2 0.28785417E+00 0.68897649E+02</pdfrwt>
<pdfrwt beam="2">  1       -2 0.31392053E-01 0.71496264E+02</pdfrwt>
<totfact> 0.92476110E+01</totfact>
</mgrwt>
</event>
<event>
 7    1  0.4251803E-004  0.6267022E+02  0.7546771E-02  0.1394021E+00
          3   -1    0    0  503    0 -0.00000000000E+00  0.00000000000E+00  0.18713114929E+03  0.18713114929E+03  0.00000000000E+00 0. -1.
          2   -1    0    0  502    0  0.00000000000E+00 -0.00000000000E+00 -0.33785007750E+03  0.33785007750E+03  0.00000000000E+00 0. -1.
         25    2    1    2    0    0  0.54050220198E+02  0.20090457063E+02 -0.18022864233E+02  0.13883542497E+03  0.12500159528E+03 0.  0.
          4    1    3    3  501    0  0.54315112189E+02  0.68342330918E+02 -0.23069715179E+02  0.90302991456E+02  0.12700000000E+01 0.  1.
         -4    1    3    3    0  501 -0.26489199133E+00 -0.48251873855E+02  0.50468509456E+01  0.48532433514E+02  0.12700000000E+01 0.  1.
          2    1    1    2  502    0 -0.39388289838E+02  0.44213631233E+02 -0.24709782883E+03  0.25409372203E+03  0.00000000000E+00 0. -1.
          3    1    1    2  503    0 -0.14661930360E+02 -0.64304088296E+02  0.11440176486E+03  0.13205207978E+03  0.00000000000E+00 0. -1.
<mgrwt>
<rscale>  0 0.60917536E+02</rscale>
<asrwt>0</asrwt>
<pdfrwt beam="2">  1        2 0.51976935E-01 0.59213871E+02</pdfrwt>
<pdfrwt beam="1">  1        3 0.28789408E-01 0.62670217E+02</pdfrwt>
<totfact> 0.62765323E+02</totfact>
</mgrwt>
</event>
<event>
 7    1  0.4251803E-004  0.3557938E+02  0.7546771E-02  0.1589720E+00
          1   -1    0    0  502    0  0.00000000000E+00  0.00000000000E+00  0.34348168335E+03  0.34348168335E+03  0.00000000000E+00 0. -1.
          1   -1    0    0  503    0 -0.00000000000E+00 -0.00000000000E+00 -0.21172369962E+03  0.21172369962E+03  0.00000000000E+00 0. -1.
         25    2    1    2    0    0  0.36519495707E+02  0.20045523406E+02 -0.30897601275E+02  0.13533616435E+03  0.12500287614E+03 0.  0.
          4    1    3    3  501    0  0.26253766052E+02 -0.50319465543E+02 -0.29998428850E+02  0.64209247605E+02  0.12700000000E+01 0. -1.
         -4    1    3    3    0  501  0.10265729654E+02  0.70364988950E+02 -0.89917242503E+00  0.71126916750E+02  0.12700000000E+01 0. -1.
          1    1    1    2  502    0 -0.35019180942E+02  0.65245426149E+01  0.28877950579E+03  0.29096823822E+03  0.00000000000E+00 0. -1.
          1    1    1    2  503    0 -0.15003147645E+01 -0.26570066021E+02 -0.12612392079E+03  0.12890098040E+03  0.00000000000E+00 0. -1.
<mgrwt>
<rscale>  0 0.30770965E+02</rscale>
<asrwt>0</asrwt>
<pdfrwt beam="1">  1        1 0.52843336E-01 0.35579378E+02</pdfrwt>
<pdfrwt beam="2">  1        1 0.32572877E-01 0.26612391E+02</pdfrwt>
<totfact> 0.11640628E+03</totfact>
</mgrwt>
</event>
<event>
 7    1  0.4251803E-004  0.1121240E+03  0.7546771E-02  0.1347317E+00
         -3   -1    0    0    0  501 -0.00000000000E+00  0.00000000000E+00  0.40226360637E+03  0.40226360637E+03  0.00000000000E+00 0.  1.
          3   -1    0    0  503    0  0.00000000000E+00 -0.00000000000E+00 -0.83105424239E+02  0.83105424239E+02  0.00000000000E+00 0. -1.
         25    2    1    2    0    0 -0.10361176480E+03  0.92953650544E+02  0.23217831570E+03  0.29817393227E+03  0.12500057860E+03 0.  0.
          4    1    3    3  502    0 -0.43652385683E+02  0.11513712411E+03  0.15258212227E+03  0.19607397854E+03  0.12700000000E+01 0. -1.
         -4    1    3    3    0  502 -0.59959379118E+02 -0.22183473567E+02  0.79596193434E+02  0.10209995374E+03  0.12700000000E+01 0. -1.
          3    1    1    2  503    0  0.54944303954E+02 -0.91049975933E+02  0.26599653649E+02  0.10961987150E+03  0.00000000000E+00 0. -1.
         -3    1    1    2    0  501  0.48667460847E+02 -0.19036746102E+01  0.60380212785E+02  0.77575226834E+02  0.00000000000E+00 0.  1.
<mgrwt>
<rscale>  0 0.73898333E+02</rscale>
<asrwt>0</asrwt>
<pdfrwt beam="2">  1        3 0.12785450E-01 0.11212400E+03</pdfrwt>
<pdfrwt beam="1">  1       -3 0.61886707E-01 0.48704679E+02</pdfrwt>
<totfact> 0.27443615E+02</totfact>
</mgrwt>
</event>
<event>
 7    1  0.4251803E-004  0.9107141E+02  0.7546771E-02  0.1459021E+00
          2   -1    0    0  502    0  0.00000000000E+00  0.00000000000E+00  0.12067960235E+04  0.12067960235E+04  0.00000000000E+00 0.  1.
          1   -1    0    0  503    0 -0.00000000000E+00 -0.00000000000E+00 -0.11391680029E+04  0.11391680029E+04  0.00000000000E+00 0. -1.
         25    2    1    2    0    0 -0.41234018807E+02 -0.90127070723E+02 -0.16154188369E+03  0.22703272310E+03  0.12499977595E+03 0.  0.
          4    1    3    3  501    0 -0.74361340844E+02 -0.24318693259E+02 -0.48385250761E+02  0.91998658931E+02  0.12700000000E+01 0.  1.
         -4    1    3    3    0  501  0.33127322037E+02 -0.65808377464E+02 -0.11315663293E+03  0.13503406417E+03  0.12700000000E+01 0.  1.
          2    1    1    2  502    0  0.57012812939E+02  0.70959151391E+02  0.11721226368E+04  0.11756517927E+04  0.00000000000E+00 0.  1.
          1    1    1    2  503    0 -0.15778794132E+02  0.19167919332E+02 -0.94295273251E+03  0.94327951065E+03  0.00000000000E+00 0. -1.
<mgrwt>
<rscale>  0 0.47550280E+02</rscale>
<asrwt>0</asrwt>
<pdfrwt beam="1">  1        2 0.18566093E+00 0.91071413E+02</pdfrwt>
<pdfrwt beam="2">  1        1 0.17525662E+00 0.24826991E+02</pdfrwt>
<totfact> 0.44218826E+01</totfact>
</mgrwt>
</event>
<event>
 7    1  0.4251803E-004  0.5839730E+02  0.7546771E-02  0.1439737E+00
          2   -1    0    0  502    0  0.00000000000E+00  0.00000000000E+00  0.26972970408E+03  0.26972970408E+03  0.00000000000E+00 0. -1.
          1   -1    0    0  503    0 -0.00000000000E+00 -0.00000000000E+00 -0.14751414008E+03  0.14751414008E+03  0.00000000000E+00 0. -1.
         25    2    1    2    0    0 -0.89415848908E+02 -0.39374675146E+02  0.99914566587E+02  0.18749632484E+03  0.12500556841E+03 0.  0.
          4    1    3    3  501    0  0.25729189909E+02  0.61830851496E+01  0.44583639934E+02  0.51860732786E+02  0.12700000000E+01 0.  1.
         -4    1    3    3    0  501 -0.11514503882E+03 -0.45557760295E+02  0.55330926653E+02  0.13563559205E+03  0.12700000000E+01 0.  1.
          2    1    1    2  502    0  0.44274413510E+02  0.56591384247E+01  0.11382935838E+03  0.12226762600E+03  0.00000000000E+00 0. -1.
          1    1    1    2  503    0  0.45141435398E+02  0.33715536721E+02 -0.91528360964E+02  0.10747989331E+03  0.00000000000E+00 0. -1.
<mgrwt>
<rscale>  0 0.51054297E+02</rscale>
<asrwt>0</asrwt>
<pdfrwt beam="1">  1        2 0.41496878E-01 0.44634623E+02</pdfrwt>
<pdfrwt beam="2">  1        1 0.22694483E-01 0.58397296E+02</pdfrwt>
<totfact> 0.33782996E+03</totfact>
</mgrwt>
</event>
<event>
 7    1  0.5322837E-004  0.5766900E+03  0.7546771E-02  0.9954983E-01
         -2   -1    0    0    0  501 -0.00000000000E+00  0.00000000000E+00  0.22718666232E+03  0.22718666232E+03  0.00000000000E+00 0.  1.
          1   -1    0    0  503    0  0.00000000000E+00 -0.00000000000E+00 -0.36596712536E+03  0.36596712536E+03  0.00000000000E+00 0. -1.
         25    2    1    2    0    0 -0.21657777001E+03  0.11897577456E+03 -0.17939011285E+03  0.32995033555E+03  0.12500098380E+03 0.  0.
          4    1    3    3  502    0  0.15294329088E+02  0.17493226673E+02 -0.21147432873E+02  0.31444495525E+02  0.12700000000E+01 0. -1.
         -4    1    3    3    0  502 -0.23187209910E+03  0.10148254788E+03 -0.15824267997E+03  0.29850584003E+03  0.12700000000E+01 0. -1.
          1    1    1    2  503    0  0.63757063956E+02 -0.64779900675E+02 -0.14304152094E+02  0.92010909695E+02  0.00000000000E+00 0. -1.
         -2    1    1    2    0  501  0.15282070606E+03 -0.54195873882E+02  0.54913801902E+02  0.17119254243E+03  0.00000000000E+00 0.  1.
<mgrwt>
<rscale>  0 0.57669004E+03</rscale>
<asrwt>0</asrwt>
<pdfrwt beam="2">  1        1 0.56302634E-01 0.57669004E+03</pdfrwt>
<pdfrwt beam="1">  1       -2 0.34951795E-01 0.57669004E+03</pdfrwt>
<totfact> 0.45908703E+02</totfact>
</mgrwt>
</event>
<event>
 7    1  0.4251803E-004  0.1374780E+03  0.7546771E-02  0.1428029E+00
          2   -1    0    0  503    0  0.00000000000E+00  0.00000000000E+00  0.60302082250E+03  0.60302082250E+03  0.00000000000E+00 0.  1.
          2   -1    0    0  502    0 -0.00000000000E+00 -0.00000000000E+00 -0.58405064458E+03  0.58405064458E+03  0.00000000000E+00 0. -1.
         25    2    1    2    0    0 -0.13862390808E+03 -0.55854166731E+02  0.18175874272E+03  0.26645298921E+03  0.12499871629E+03 0.  0.
          4    1    3    3  501    0 -0.40846658737E+02  0.39051136966E+02  0.36517889376E+02  0.67294947603E+02  0.12700000000E+01 0.  1.
         -4    1    3    3    0  501 -0.97777249341E+02 -0.94905303697E+02  0.14524085334E+03  0.19915804161E+03  0.12700000000E+01 0.  1.
          2    1    1    2  502    0  0.12034189476E+03  0.65582146140E+02 -0.53274072535E+03  0.55008714762E+03  0.00000000000E+00 0. -1.
          2    1    1    2  503    0  0.18282013315E+02 -0.97279794094E+01  0.36995216055E+03  0.37053133024E+03  0.00000000000E+00 0.  1.
<mgrwt>
<rscale>  0 0.53357670E+02</rscale>
<asrwt>0</asrwt>
<pdfrwt beam="1">  1        2 0.92772435E-01 0.20709070E+02</pdfrwt>
<pdfrwt beam="2">  1        2 0.89853945E-01 0.13747797E+03</pdfrwt>
<totfact> 0.43603861E+02</totfact>
</mgrwt>
</event>
<event>
 7    1  0.4251803E-004  0.6267530E+02  0.7546771E-02  0.1495273E+00
          2   -1    0    0  503    0  0.00000000000E+00  0.00000000000E+00  0.97559232005E+03  0.97559232005E+03  0.00000000000E+00 0. -1.
          2   -1    0    0  502    0 -0.00000000000E+00 -0.00000000000E+00 -0.38803391219E+03  0.38803391219E+03  0.00000000000E+00 0. -1.
         25    2    1    2    0    0  0.39400745023E+01 -0.87000199919E+02  0.60718726008E+03  0.62600785882E+03  0.12499964610E+03 0.  0.
          4    1    3    3  501    0 -0.14251812571E+02 -0.48881903795E+02  0.56138531355E+03  0.56369108370E+03  0.12700000000E+01 0.  1.
         -4    1    3    3    0  501  0.18191887073E+02 -0.38118296123E+02  0.45801946535E+02  0.62316775118E+02  0.12700000000E+01 0.  1.
          2    1    1    2  502    0  0.84482652721E+01  0.62005795039E+02 -0.37548827647E+03  0.38066722682E+03  0.00000000000E+00 0. -1.
          2    1    1    2  503    0 -0.12388339774E+02  0.24994404879E+02  0.35585942424E+03  0.35695114660E+03  0.00000000000E+00 0. -1.
<mgrwt>
<rscale>  0 0.41813814E+02</rscale>
<asrwt>0</asrwt>
<pdfrwt beam="1">  1        2 0.15009113E+00 0.27896079E+02</pdfrwt>
<pdfrwt beam="2">  1        2 0.59697525E-01 0.62675296E+02</pdfrwt>
<totfact> 0.39323782E+02</totfact>
</mgrwt>
</event>
<event>
 7    1  0.4251803E-004  0.1661496E+03  0.7546771E-02  0.1296087E+00
         -2   -1    0    0    0  501 -0.00000000000E+00  0.00000000000E+00  0.34040527554E+03  0.34040527554E+03  0.00000000000E+00 0.  1.
          2   -1    0    0  503    0  0.00000000000E+00 -0.00000000000E+00 -0.10682794329E+04  0.10682794329E+04  0.00000000000E+00 0. -1.
         25    2    1    2    0    0  0.20739588995E+03 -0.36324423756E+02 -0.43133614257E+02  0.24863312985E+03  0.12500162259E+03 0.  0.
          4    1    3    3  502    0  0.10894003616E+03 -0.28918042071E+01  0.39385471564E+02  0.11588408985E+03  0.12700000000E+01 0. -1.
         -4    1    3    3    0  502  0.98455853797E+02 -0.33432619549E+02 -0.82519085821E+02  0.13274904000E+03  0.12700000000E+01 0. -1.
          2    1    1    2  503    0 -0.15644479859E+03  0.46154149406E+02 -0.91224083843E+03  0.92670843733E+03  0.00000000000E+00 0. -1.
         -2    1    1    2    0  501 -0.50951091368E+02 -0.98297256499E+01  0.22750029531E+03  0.23334314128E+03  0.00000000000E+00 0.  1.
<mgrwt>
<rscale>  0 0.92852606E+02</rscale>
<asrwt>0</asrwt>
<pdfrwt beam="2">  1        2 0.16435068E+00 0.16614959E+03</pdfrwt>
<pdfrwt beam="1">  1       -2 0.52370043E-01 0.51890627E+02</pdfrwt>
<totfact> 0.87056486E+01</totfact>
</mgrwt>
</event>
<event>
 7    1  0.4251803E-004  0.6755175E+02  0.7546771E-02  0.1492878E+00
         -2   -1    0    0    0  501 -0.00000000000E+00  0.00000000000E+00  0.21500789218E+03  0.21500789218E+03  0.00000000000E+00 0.  1.
          2   -1    0    0  503    0  0.00000000000E+00 -0.00000000000E+00 -0.58497325212E+03  0.58497325212E+03  0.00000000000E+00 0. -1.
         25    2    1    2    0    0 -0.35697559141E+02  0.56909109930E+02  0.46436960627E+02  0.14931352814E+03  0.12500070341E+03 0.  0.
          4    1    3    3  502    0 -0.66773418023E+02 -0.32536090469E+01 -0.57921515472E+00  0.66867209576E+02  0.12700000000E+01 0.  1.
         -4    1    3    3    0  502  0.31075858882E+02  0.60162718977E+02  0.47016175782E+02  0.82446318566E+02  0.12700000000E+01 0.  1.
          2    1    1    2  503    0  0.55160959822E+02 -0.39198334355E+02 -0.52987751234E+03  0.53418107322E+03  0.00000000000E+00 0. -1.
         -2    1    1    2    0  501 -0.19463400681E+02 -0.17710775575E+02  0.11347519177E+03  0.11648654293E+03  0.00000000000E+00 0.  1.
<mgrwt>
<rscale>  0 0.42162130E+02</rscale>
<asrwt>0</asrwt>
<pdfrwt beam="2">  1        2 0.89995884E-01 0.67551748E+02</pdfrwt>
<pdfrwt beam="1">  1       -2 0.33078137E-01 0.26315310E+02</pdfrwt>
<totfact> 0.43831825E+02</totfact>
</mgrwt>
</event>
<event>
 7    1  0.4251803E-004  0.4596557E+02  0.7546771E-02  0.1487019E+00
          2   -1    0    0  502    0  0.00000000000E+00  0.00000000000E+00  0.27595791249E+02  0.27595791249E+02  0.00000000000E+00 0. -1.
          1   -1    0    0  503    0 -0.00000000000E+00 -0.00000000000E+00 -0.82746922328E+03  0.82746922328E+03  0.00000000000E+00 0. -1.
         25    2    1    2    0    0 -0.17378992560E+02 -0.37140906481E+01 -0.15806206923E+03  0.20229623720E+03  0.12499730398E+03 0.  0.
          4    1    3    3  501    0  0.19356622455E+02  0.84848653607E+01 -0.16199070717E+03  0.16336852170E+03  0.12700000000E+01 0. -1.
         -4    1    3    3    0  501 -0.36735615015E+02 -0.12198956009E+02  0.39286379307E+01  0.38927715502E+02  0.12700000000E+01 0. -1.
          2    1    1    2  502    0 -0.84091238410E+00 -0.40275737687E+02 -0.86507952533E+02  0.95427815816E+02  0.00000000000E+00 0. -1.
          1    1    1    2  503    0  0.18219904944E+02  0.43989828335E+02 -0.55530341026E+03  0.55734096151E+03  0.00000000000E+00 0. -1.
<mgrwt>
<rscale>  0 0.43031392E+02</rscale>
<asrwt>0</asrwt>
<pdfrwt beam="1">  1        2 0.42455064E-02 0.40284515E+02</pdfrwt>
<pdfrwt beam="2">  1        1 0.12730296E+00 0.45965569E+02</pdfrwt>
<totfact> 0.52718307E+03</totfact>
</mgrwt>
</event>
<event>
 7    1  0.4251803E-004  0.7968192E+02  0.7546771E-02  0.1433041E+00
          1   -1    0    0  503    0 -0.00000000000E+00  0.00000000000E+00  0.29275407189E+04  0.29275407189E+04  0.00000000000E+00 0. -1.
          2   -1    0    0  502    0  0.00000000000E+00 -0.00000000000E+00 -0.52424683576E+03  0.52424683576E+03  0.00000000000E+00 0. -1.
         25    2    1    2    0    0 -0.10612689984E+03  0.19402103759E+02  0.23831807833E+02  0.16682904530E+03  0.12499845916E+03 0.  0.
          4    1    3    3  501    0 -0.11042872330E+03  0.58748498515E+02  0.12941195217E+02  0.12575760987E+03  0.12700000000E+01 0.  1.
         -4    1    3    3    0  501  0.43018234566E+01 -0.39346394756E+02  0.10890612616E+02  0.41071435433E+02  0.12700000000E+01 0.  1.
          2    1    1    2  502    0  0.32636919937E+02  0.10868716687E+02 -0.45153627298E+03  0.45284467907E+03  0.00000000000E+00 0. -1.
          1    1    1    2  503    0  0.73489979904E+02 -0.30270820446E+02  0.28309983483E+04  0.28321138303E+04  0.00000000000E+00 0. -1.
<mgrwt>
<rscale>  0 0.52354422E+02</rscale>
<asrwt>0</asrwt>
<pdfrwt beam="2">  1        2 0.80653361E-01 0.34399092E+02</pdfrwt>
<pdfrwt beam="1">  1        1 0.45039087E+00 0.79681915E+02</pdfrwt>
<totfact> 0.82804835E+00</totfact>
</mgrwt>
</event>
<event>
 7    1  0.4478328E-004  0.1166064E+03  0.7546771E-02  0.1326009E+00
          2   -1    0    0  503    0  0.00000000000E+00  0.00000000000E+00  0.94846138924E+03  0.94846138924E+03  0.00000000000E+00 0. -1.
         -1   -1    0    0    0  501 -0.00000000000E+00 -0.00000000000E+00 -0.49778407707E+02  0.49778407707E+02  0.00000000000E+00 0.  1.
         25    2    1    2    0    0 -0.95249071741E+02 -0.13098964796E+03  0.70035437037E+03  0.72962445611E+03  0.12499971723E+03 0.  0.
          4    1    3    3  502    0 -0.88649920286E+02 -0.15460865885E+03  0.64280008562E+03  0.66705037946E+03  0.12700000000E+01 0. -1.
         -4    1    3    3    0  502 -0.65991514557E+01  0.23619010889E+02  0.57554284748E+02  0.62574076647E+02  0.12700000000E+01 0. -1.
          2    1    1    2  503    0  0.46243964118E+02  0.32252467653E+02  0.12241467859E+03  0.13477417935E+03  0.00000000000E+00 0. -1.
         -1    1    1    2    0  501  0.49005107624E+02  0.98737180310E+02  0.75913932571E+02  0.13384116148E+03  0.00000000000E+00 0.  1.
<mgrwt>
<rscale>  0 0.81082010E+02</rscale>
<asrwt>0</asrwt>
<pdfrwt beam="1">  1        2 0.14591712E+00 0.56380191E+02</pdfrwt>
<pdfrwt beam="2">  1       -1 0.76582173E-02 0.11660642E+03</pdfrwt>
<totfact> 0.30123216E+03</totfact>
</mgrwt>
</event>
<event>
 7    1  0.4251803E-004  0.5824893E+02  0.7546771E-02  0.1445343E+00
          2   -1    0    0  503    0  0.00000000000E+00  0.00000000000E+00  0.49683897787E+03  0.49683897787E+03  0.00000000000E+00 0. -1.
         -1   -1    0    0    0  501 -0.00000000000E+00 -0.00000000000E+00 -0.34761004695E+02  0.34761004695E+02  0.00000000000E+00 0.  1.
         25    2    1    2    0    0 -0.21927305087E+02  0.57079608431E+02  0.32289478370E+03  0.35160848638E+03  0.12501439095E+03 0.  0.
          4    1    3    3  502    0  0.47041227955E+02  0.29999143565E+02  0.20412286218E+03  0.21161422803E+03  0.12700000000E+01 0. -1.
         -4    1    3    3    0  502 -0.68968533041E+02  0.27080464865E+02  0.11877192153E+03  0.13999425835E+03  0.12700000000E+01 0. -1.
          2    1    1    2  503    0  0.42909776918E+02 -0.87565339604E+00  0.98670868695E+02  0.10760091102E+03  0.00000000000E+00 0. -1.
         -1    1    1    2    0  501 -0.20982471831E+02 -0.56203955035E+02  0.40512320782E+02  0.72390585167E+02  0.00000000000E+00 0.  1.
<mgrwt>
<rscale>  0 0.49999688E+02</rscale>
<asrwt>0</asrwt>
<pdfrwt beam="1">  1        2 0.76436761E-01 0.42918711E+02</pdfrwt>
<pdfrwt beam="2">  1       -1 0.53478472E-02 0.58248925E+02</pdfrwt>
<totfact> 0.10117432E+04</totfact>
</mgrwt>
</event>
<event>
 7    1  0.4251803E-004  0.4916418E+02  0.7546771E-02  0.1551561E+00
         -1   -1    0    0    0  501 -0.00000000000E+00  0.00000000000E+00  0.56034556568E+02  0.56034556568E+02  0.00000000000E+00 0.  1.
          2   -1    0    0  503    0  0.00000000000E+00 -0.00000000000E+00 -0.40078647562E+03  0.40078647562E+03  0.00000000000E+00 0. -1.
         25    2    1    2    0    0  0.39293699121E+02  0.15642103607E+02 -0.38725252825E+02  0.13752718256E+03  0.12500164215E+03 0.  0.
          4    1    3    3  502    0  0.68077330566E+02  0.27787293122E+02 -0.63869527256E+02  0.97404240195E+02  0.12700000000E+01 0. -1.
         -4    1    3    3    0  502 -0.28783631445E+02 -0.12145189515E+02  0.25144274430E+02  0.40122942367E+02  0.12700000000E+01 0. -1.
          2    1    1    2  503    0  0.20920352461E+02  0.12649423259E+02 -0.89268714491E+02  0.92555780170E+02  0.00000000000E+00 0. -1.
         -1    1    1    2    0  501 -0.60214051582E+02 -0.28291526866E+02 -0.21675795173E+03  0.22673806946E+03  0.00000000000E+00 0.  1.
<mgrwt>
<rscale>  0 0.34668861E+02</rscale>
<asrwt>0</asrwt>
<pdfrwt beam="2">  1        2 0.61659459E-01 0.24447271E+02</pdfrwt>
<pdfrwt beam="1">  1       -1 0.86207009E-02 0.49164177E+02</pdfrwt>
<totfact> 0.61835212E+03</totfact>
</mgrwt>
</event>
<event>
 7    1  0.4251803E-004  0.8798862E+02  0.7546771E-02  0.1359873E+00
          1   -1    0    0  503    0  0.00000000000E+00  0.00000000000E+00  0.27053792865E+02  0.27053792865E+02  0.00000000000E+00 0. -1.
         -1   -1    0    0    0  501 -0.00000000000E+00 -0.00000000000E+00 -0.95263505377E+03  0.95263505377E+03  0.00000000000E+00 0.  1.
         25    2    1    2    0    0 -0.10536097466E+03  0.61917976424E+02 -0.45627090922E+03  0.48861426307E+03  0.12500393871E+03 0.  0.
          4    1    3    3  502    0  0.26703539364E+02  0.12361621029E+02 -0.44615677373E+02  0.53460829179E+02  0.12700000000E+01 0.  1.
         -4    1    3    3    0  502 -0.13206451403E+03  0.49556355395E+02 -0.41165523184E+03  0.43515343389E+03  0.12700000000E+01 0.  1.
          1    1    1    2  503    0  0.26210927026E+02 -0.49251928840E+02 -0.11511951320E+03  0.12792680529E+03  0.00000000000E+00 0. -1.
         -1    1    1    2    0  501  0.79150047636E+02 -0.12666047585E+02 -0.35419083849E+03  0.36314777828E+03  0.00000000000E+00 0.  1.
<mgrwt>
<rscale>  0 0.70064795E+02</rscale>
<asrwt>0</asrwt>
<pdfrwt beam="1">  1        1 0.41621222E-02 0.55792161E+02</pdfrwt>
<pdfrwt beam="2">  1       -1 0.14655923E+00 0.87988625E+02</pdfrwt>
<totfact> 0.79952176E+02</totfact>
</mgrwt>
</event>
<event>
 7    1  0.4251803E-004  0.7855431E+02  0.7546771E-02  0.1421902E+00
          2   -1    0    0  502    0  0.00000000000E+00  0.00000000000E+00  0.16155510926E+04  0.16155510926E+04  0.00000000000E+00 0. -1.
          2   -1    0    0  503    0 -0.00000000000E+00 -0.00000000000E+00 -0.68196024670E+03  0.68196024670E+03  0.00000000000E+00 0. -1.
         25    2    1    2    0    0  0.24196090642E+02 -0.78450280487E+02  0.41521450116E+03  0.44132491029E+03  0.12499878862E+03 0.  0.
          4    1    3    3  501    0  0.35389013565E+02 -0.43668166996E+02  0.39609775380E+03  0.40006791243E+03  0.12700000000E+01 0.  1.
         -4    1    3    3    0  501 -0.11192922923E+02 -0.34782113491E+02  0.19116747354E+02  0.41256997853E+02  0.12700000000E+01 0.  1.
          2    1    1    2  502    0 -0.37963477139E+02  0.10816465073E+01  0.11846679834E+04  0.11852766033E+04  0.00000000000E+00 0. -1.
          2    1    1    2  503    0  0.13767386497E+02  0.77368633980E+02 -0.66629163865E+03  0.67090982567E+03  0.00000000000E+00 0. -1.
<mgrwt>
<rscale>  0 0.54620555E+02</rscale>
<asrwt>0</asrwt>
<pdfrwt beam="1">  1        2 0.24854632E+00 0.37978883E+02</pdfrwt>
<pdfrwt beam="2">  1        2 0.10491696E+00 0.78554311E+02</pdfrwt>
<totfact> 0.98793138E+01</totfact>
</mgrwt>
</event>
<event>
 7    1  0.4251803E-004  0.1318227E+03  0.7546771E-02  0.1390884E+00
          3   -1    0    0  503    0 -0.00000000000E+00  0.00000000000E+00  0.21594960538E+03  0.21594960538E+03  0.00000000000E+00 0. -1.
          2   -1    0    0  502    0  0.00000000000E+00 -0.00000000000E+00 -0.17462934307E+04  0.17462934307E+04  0.00000000000E+00 0. -1.
         25    2    1    2    0    0 -0.47923830420E+02 -0.14247606291E+03 -0.12583386490E+02  0.19590805813E+03  0.12500201438E+03 0.  0.
          4    1    3    3  501    0 -0.75817513860E+02 -0.14847989906E+03 -0.74395269287E+01  0.16688779253E+03  0.12700000000E+01 0. -1.
         -4    1    3    3    0  501  0.27893683439E+02  0.60038361537E+01 -0.51438595613E+01  0.29020265601E+02  0.12700000000E+01 0. -1.
          2    1    1    2  502    0  0.60585322542E+02  0.11653403140E+03 -0.16377061712E+04  0.16429644746E+04  0.00000000000E+00 0. -1.
          3    1    1    2  503    0 -0.12661492122E+02  0.25942031514E+02  0.11994573235E+03  0.12337050332E+03  0.00000000000E+00 0. -1.
<mgrwt>
<rscale>  0 0.61687296E+02</rscale>
<asrwt>0</asrwt>
<pdfrwt beam="2">  1        2 0.26866054E+00 0.13182269E+03</pdfrwt>
<pdfrwt beam="1">  1        3 0.33223015E-01 0.28866977E+02</pdfrwt>
<totfact> 0.50625204E+01</totfact>
</mgrwt>
</event>
<event>
 7    1  0.4251803E-004  0.6092837E+02  0.7546771E-02  0.1524825E+00
          2   -1    0    0  503    0  0.00000000000E+00  0.00000000000E+00  0.12555198466E+03  0.12555198466E+03  0.00000000000E+00 0. -1.
         -2   -1    0    0    0  501 -0.00000000000E+00 -0.00000000000E+00 -0.14419267115E+03  0.14419267115E+03  0.00000000000E+00 0.  1.
         25    2    1    2    0    0  0.16617016583E+02  0.59009645476E+02 -0.64546833629E+02  0.15345944716E+03  0.12500097876E+03 0.  0.
          4    1    3    3  502    0 -0.17336376900E+02  0.47823548099E+02  0.25246311852E+02  0.56803440732E+02  0.12700000000E+01 0. -1.
         -4    1    3    3    0  502  0.33953393483E+02  0.11186097377E+02 -0.89793145481E+02  0.96656006429E+02  0.12700000000E+01 0. -1.
          2    1    1    2  503    0 -0.37607617302E+02 -0.48472431289E+02  0.62459891037E+02  0.87550827880E+02  0.00000000000E+00 0. -1.
         -2    1    1    2    0  501  0.20990600719E+02 -0.10537214187E+02 -0.16553743901E+02  0.28734380775E+02  0.00000000000E+00 0.  1.
<mgrwt>
<rscale>  0 0.37828871E+02</rscale>
<asrwt>0</asrwt>
<pdfrwt beam="1">  1        2 0.19315690E-01 0.60928374E+02</pdfrwt>
<pdfrwt beam="2">  1       -2 0.22183488E-01 0.23486979E+02</pdfrwt>
<totfact> 0.43492619E+03</totfact>
</mgrwt>
</event>
<event>
 7    1  0.4251803E-004  0.5862580E+02  0.7546771E-02  0.1427956E+00
          2   -1    0    0  503    0  0.00000000000E+00  0.00000000000E+00  0.22888496412E+03  0.22888496412E+03  0.00000000000E+00 0.  1.
         -1   -1    0    0    0  501 -0.00000000000E+00 -0.00000000000E+00 -0.13924935522E+03  0.13924935522E+03  0.00000000000E+00 0.  1.
         25    2    1    2    0    0 -0.12908607191E+02  0.80157261802E+02  0.10051933949E+03  0.17977379847E+03  0.12499064864E+03 0.  0.
          4    1    3    3  502    0 -0.18652395893E+02  0.48536261122E+02  0.12755822793E+03  0.13775483631E+03  0.12700000000E+01 0.  1.
         -4    1    3    3    0  502  0.57437887024E+01  0.31621000680E+02 -0.27038888440E+02  0.42018962157E+02  0.12700000000E+01 0.  1.
          2    1    1    2  503    0  0.39394165644E+02 -0.28444557905E+02  0.72169280680E+02  0.87002288678E+02  0.00000000000E+00 0.  1.
         -1    1    1    2    0  501 -0.26485558453E+02 -0.51712703897E+02 -0.83053011272E+02  0.10135823219E+03  0.00000000000E+00 0.  1.
<mgrwt>
<rscale>  0 0.53372566E+02</rscale>
<asrwt>0</asrwt>
<pdfrwt beam="1">  1        2 0.35213071E-01 0.48590052E+02</pdfrwt>
<pdfrwt beam="2">  1       -1 0.21422978E-01 0.58625802E+02</pdfrwt>
<totfact> 0.27871733E+03</totfact>
</mgrwt>
</event>
<event>
 7    1  0.4251803E-004  0.6564323E+02  0.7546771E-02  0.1518811E+00
         -1   -1    0    0    0  501 -0.00000000000E+00  0.00000000000E+00  0.10646408644E+02  0.10646408644E+02  0.00000000000E+00 0.  1.
          2   -1    0    0  503    0  0.00000000000E+00 -0.00000000000E+00 -0.14765315127E+04  0.14765315127E+04  0.00000000000E+00 0. -1.
         25    2    1    2    0    0 -0.15684513095E+02 -0.71097785983E+02 -0.90476820166E+03  0.91625964548E+03  0.12500136034E+03 0.  0.
          4    1    3    3  502    0 -0.48248007412E+02 -0.61903182998E+02 -0.28631071341E+03  0.29687591987E+03  0.12700000000E+01 0. -1.
         -4    1    3    3    0  502  0.32563494316E+02 -0.91946029852E+01 -0.61845748825E+03  0.61938372561E+03  0.12700000000E+01 0. -1.
          2    1    1    2  503    0  0.32090549525E+02  0.55420491107E+02 -0.52022539181E+03  0.52415235618E+03  0.00000000000E+00 0. -1.
         -1    1    1    2    0  501 -0.16406036429E+02  0.15677294876E+02 -0.40891510615E+02  0.46765919710E+02  0.00000000000E+00 0.  1.
<mgrwt>
<rscale>  0 0.38595191E+02</rscale>
<asrwt>0</asrwt>
<pdfrwt beam="2">  1        2 0.22715879E+00 0.65643227E+02</pdfrwt>
<pdfrwt beam="1">  1       -1 0.16379083E-02 0.22692193E+02</pdfrwt>
<totfact> 0.11274340E+04</totfact>
</mgrwt>
</event>
<event>
 7    1  0.4251803E-004  0.1863129E+03  0.7546771E-02  0.1292197E+00
          2   -1    0    0  502    0  0.00000000000E+00  0.00000000000E+00  0.64666398292E+03  0.64666398292E+03  0.00000000000E+00 0. -1.
          1   -1    0    0  503    0 -0.00000000000E+00 -0.00000000000E+00 -0.18528011457E+04  0.18528011457E+04  0.00000000000E+00 0. -1.
         25    2    1    2    0    0 -0.21238489312E+03 -0.71334043340E+01 -0.10546088051E+03  0.26817873082E+03  0.12505841061E+03 0.  0.
          4    1    3    3  501    0 -0.29576905155E+02 -0.37472499457E+02  0.11398006231E+02  0.49096934529E+02  0.12700000000E+01 0. -1.
         -4    1    3    3    0  501 -0.18280798797E+03  0.30339095123E+02 -0.11685888674E+03  0.21908179629E+03  0.12700000000E+01 0. -1.
          2    1    1    2  502    0  0.29983138977E+02  0.37458221618E+02  0.55914387082E+03  0.56119869499E+03  0.00000000000E+00 0. -1.
          1    1    1    2  503    0  0.18240175415E+03 -0.30324817284E+02 -0.16598201531E+04  0.16700877028E+04  0.00000000000E+00 0. -1.
<mgrwt>
<rscale>  0 0.94548098E+02</rscale>
<asrwt>0</asrwt>
<pdfrwt beam="1">  1        2 0.99486767E-01 0.47980277E+02</pdfrwt>
<pdfrwt beam="2">  1        1 0.28504633E+00 0.18631286E+03</pdfrwt>
<totfact> 0.29046852E+01</totfact>
</mgrwt>
</event>
<event>
 7    1  0.4251803E-004  0.7548488E+02  0.7546771E-02  0.1358535E+00
          2   -1    0    0  503    0  0.00000000000E+00  0.00000000000E+00  0.74431417597E+03  0.74431417597E+03  0.00000000000E+00 0. -1.
         -3   -1    0    0    0  501 -0.00000000000E+00 -0.00000000000E+00 -0.96546264612E+02  0.96546264612E+02  0.00000000000E+00 0.  1.
         25    2    1    2    0    0 -0.65839148096E+01 -0.32083487550E+02  0.85756248649E+02  0.15508667618E+03  0.12500017935E+03 0.  0.
          4    1    3    3  502    0  0.43222504556E+02 -0.48359865119E+02  0.79025558929E+02  0.10224242426E+03  0.12700000000E+01 0.  1.
         -4    1    3    3    0  502 -0.49806419365E+02  0.16276377569E+02  0.67306897196E+01  0.52844251919E+02  0.12700000000E+01 0.  1.
          2    1    1    2  503    0 -0.60239698619E+02 -0.26397922058E+02  0.58923512125E+03  0.59289434109E+03  0.00000000000E+00 0. -1.
         -3    1    1    2    0  501  0.66823613428E+02  0.58481409608E+02 -0.27223458538E+02  0.92879423320E+02  0.00000000000E+00 0.  1.
<mgrwt>
<rscale>  0 0.70460117E+02</rscale>
<asrwt>0</asrwt>
<pdfrwt beam="1">  1        2 0.11450987E+00 0.65769838E+02</pdfrwt>
<pdfrwt beam="2">  1       -3 0.14853272E-01 0.75484876E+02</pdfrwt>
<totfact> 0.86448707E+02</totfact>
</mgrwt>
</event>
<event>
 7    1  0.4251803E-004  0.3707130E+03  0.7546771E-02  0.1216262E+00
          2   -1    0    0  503    0  0.00000000000E+00  0.00000000000E+00  0.56977700327E+03  0.56977700327E+03  0.00000000000E+00 0. -1.
          2   -1    0    0  502    0 -0.00000000000E+00 -0.00000000000E+00 -0.17034108662E+04  0.17034108662E+04  0.00000000000E+00 0. -1.
         25    2    1    2    0    0  0.33067441248E+03  0.25541643151E+03  0.11312246796E+03  0.45055948475E+03  0.12499614387E+03 0.  0.
          4    1    3    3  501    0  0.14203566814E+03  0.12861026230E+03 -0.10336082787E+02  0.19189366353E+03  0.12700000000E+01 0.  1.
         -4    1    3    3    0  501  0.18863874434E+03  0.12680616921E+03  0.12345855075E+03  0.25866582122E+03  0.12700000000E+01 0.  1.
          2    1    1    2  502    0 -0.29438400423E+03 -0.21922245590E+03 -0.15102417508E+04  0.15542041606E+04  0.00000000000E+00 0. -1.
          2    1    1    2  503    0 -0.36290408248E+02 -0.36193975616E+02  0.26348541987E+03  0.26842422411E+03  0.00000000000E+00 0. -1.
<mgrwt>
<rscale>  0 0.13784272E+03</rscale>
<asrwt>0</asrwt>
<pdfrwt beam="1">  1        2 0.87658001E-01 0.51254245E+02</pdfrwt>
<pdfrwt beam="2">  1        2 0.26206321E+00 0.37071302E+03</pdfrwt>
<totfact> 0.89808139E+01</totfact>
</mgrwt>
</event>
<event>
 7    1  0.4251803E-004  0.5082193E+02  0.7546771E-02  0.1465495E+00
          1   -1    0    0  502    0  0.00000000000E+00  0.00000000000E+00  0.65604087090E+03  0.65604087090E+03  0.00000000000E+00 0. -1.
          3   -1    0    0  503    0 -0.00000000000E+00 -0.00000000000E+00 -0.83465383534E+02  0.83465383534E+02  0.00000000000E+00 0. -1.
         25    2    1    2    0    0  0.29345565239E+02  0.34065162535E+01  0.54790200556E+02  0.13963758682E+03  0.12499569202E+03 0.  0.
          4    1    3    3  501    0  0.64845651038E+02 -0.36974818701E+02  0.31855550127E+02  0.81169481029E+02  0.12700000000E+01 0. -1.
         -4    1    3    3    0  501 -0.35500085799E+02  0.40381334955E+02  0.22934650430E+02  0.58468105791E+02  0.12700000000E+01 0. -1.
          1    1    1    2  502    0 -0.24583550186E+02 -0.45590297216E+02  0.54628668515E+03  0.54873670235E+03  0.00000000000E+00 0. -1.
          3    1    1    2  503    0 -0.47620150535E+01  0.42183780963E+02 -0.28501398341E+02  0.51131965257E+02  0.00000000000E+00 0. -1.
<mgrwt>
<rscale>  0 0.46448660E+02</rscale>
<asrwt>0</asrwt>
<pdfrwt beam="1">  1        1 0.10092936E+00 0.50821928E+02</pdfrwt>
<pdfrwt beam="2">  1        3 0.12840829E-01 0.42451716E+02</pdfrwt>
<totfact> 0.72710966E+02</totfact>
</mgrwt>
</event>
<event>
 7    1  0.4251803E-004  0.6922735E+02  0.7546771E-02  0.1447337E+00
         -1   -1    0    0    0  501 -0.00000000000E+00  0.00000000000E+00  0.40281589345E+02  0.40281589345E+02  0.00000000000E+00 0.  1.
          2   -1    0    0  503    0  0.00000000000E+00 -0.00000000000E+00 -0.46992736877E+03  0.46992736877E+03  0.00000000000E+00 0. -1.
         25    2    1    2    0    0 -0.67861836098E+02 -0.56316561699E+02 -0.21333870338E+03  0.26251994804E+03  0.12500614720E+03 0.  0.
          4    1    3    3  502    0  0.13819501622E+02 -0.67827869648E+02 -0.80812218489E+02  0.10641346758E+03  0.12700000000E+01 0. -1.
         -4    1    3    3    0  502 -0.81681337720E+02  0.11511307949E+02 -0.13252648489E+03  0.15610648045E+03  0.12700000000E+01 0. -1.
          2    1    1    2  503    0  0.35578071511E+02  0.59739121884E+00 -0.15409546038E+03  0.15815045672E+03  0.00000000000E+00 0. -1.
         -1    1    1    2    0  501  0.32283764587E+02  0.55719170480E+02 -0.62211615666E+02  0.89538553365E+02  0.00000000000E+00 0.  1.
<mgrwt>
<rscale>  0 0.49631874E+02</rscale>
<asrwt>0</asrwt>
<pdfrwt beam="2">  1        2 0.72296519E-01 0.35583087E+02</pdfrwt>
<pdfrwt beam="1">  1       -1 0.61971675E-02 0.69227354E+02</pdfrwt>
<totfact> 0.88127432E+03</totfact>
</mgrwt>
</event>
<event>
 7    1  0.4251803E-004  0.8639820E+02  0.7546771E-02  0.1380923E+00
          2   -1    0    0  503    0  0.00000000000E+00  0.00000000000E+00  0.33786875507E+03  0.33786875507E+03  0.00000000000E+00 0. -1.
          2   -1    0    0  502    0 -0.00000000000E+00 -0.00000000000E+00 -0.22720617923E+03  0.22720617923E+03  0.00000000000E+00 0. -1.
         25    2    1    2    0    0 -0.26605893672E+02  0.49066710217E+02 -0.59221754592E+02  0.14915369032E+03  0.12499676591E+03 0.  0.
          4    1    3    3  501    0  0.44546082261E+02  0.23113772008E+02  0.41771239619E+01  0.50375203879E+02  0.12700000000E+01 0. -1.
         -4    1    3    3    0  501 -0.71151975933E+02  0.25952938209E+02 -0.63398878554E+02  0.98778486437E+02  0.12700000000E+01 0. -1.
          2    1    1    2  502    0  0.64729207244E+02 -0.77798154582E+02 -0.99746073191E+02  0.14209750963E+03  0.00000000000E+00 0. -1.
          2    1    1    2  503    0 -0.38123313572E+02  0.28731444365E+02  0.26963040363E+03  0.27382373435E+03  0.00000000000E+00 0. -1.
<mgrwt>
<rscale>  0 0.64221855E+02</rscale>
<asrwt>0</asrwt>
<pdfrwt beam="1">  1        2 0.51979809E-01 0.47737647E+02</pdfrwt>
<pdfrwt beam="2">  1        2 0.34954797E-01 0.86398199E+02</pdfrwt>
<totfact> 0.21500806E+03</totfact>
</mgrwt>
</event>
<event>
 7    1  0.4251803E-004  0.1808705E+03  0.7546771E-02  0.1185646E+00
          1   -1    0    0  503    0  0.00000000000E+00  0.00000000000E+00  0.29668484685E+04  0.29668484685E+04  0.00000000000E+00 0. -1.
          1   -1    0    0  502    0 -0.00000000000E+00 -0.00000000000E+00 -0.12311295617E+04  0.12311295617E+04  0.00000000000E+00 0. -1.
         25    2    1    2    0    0  0.28605676736E+03  0.36240713815E+02 -0.31315246962E+03  0.44365734144E+03  0.12500201557E+03 0.  0.
          4    1    3    3  501    0  0.19505699685E+03 -0.22609172249E+02 -0.25112293756E+03  0.31878323256E+03  0.12700000000E+01 0. -1.
         -4    1    3    3    0  501  0.90999770508E+02  0.58849886064E+02 -0.62029532060E+02  0.12487410888E+03  0.12700000000E+01 0. -1.
          1    1    1    2  502    0 -0.14739653273E+03 -0.83255149279E+02 -0.84245234338E+03  0.85929221375E+03  0.00000000000E+00 0. -1.
          1    1    1    2  503    0 -0.13866023463E+03  0.47014435464E+02  0.28913237198E+04  0.28950284749E+04  0.00000000000E+00 0. -1.
<mgrwt>
<rscale>  0 0.16273277E+03</rscale>
<asrwt>0</asrwt>
<pdfrwt beam="1">  1        1 0.45643822E+00 0.14641386E+03</pdfrwt>
<pdfrwt beam="2">  1        1 0.18940455E+00 0.18087054E+03</pdfrwt>
<totfact> 0.11452201E+00</totfact>
</mgrwt>
</event>
<event>
 7    1  0.4251803E-004  0.1723442E+03  0.7546771E-02  0.1245402E+00
         -1   -1    0    0    0  501 -0.00000000000E+00  0.00000000000E+00  0.69880383695E+02  0.69880383695E+02  0.00000000000E+00 0.  1.
          1   -1    0    0  503    0  0.00000000000E+00 -0.00000000000E+00 -0.39975904075E+04  0.39975904075E+04  0.00000000000E+00 0. -1.
         25    2    1    2    0    0  0.12233379114E+03 -0.45702210231E+02 -0.55445557006E+03  0.58318547788E+03  0.12502029422E+03 0.  0.
          4    1    3    3  502    0  0.14454497115E+02  0.40248818845E+02 -0.12473443405E+03  0.13186808500E+03  0.12700000000E+01 0. -1.
         -4    1    3    3    0  502  0.10787929402E+03 -0.85951029076E+02 -0.42972113601E+03  0.45131739288E+03  0.12700000000E+01 0. -1.
          1    1    1    2  503    0 -0.18070936970E+03 -0.11363273537E+02 -0.33949834987E+04  0.33998085177E+04  0.00000000000E+00 0. -1.
         -1    1    1    2    0  501  0.58375578563E+02  0.57065483768E+02  0.21729044953E+02  0.84476795659E+02  0.00000000000E+00 0.  1.
<mgrwt>
<rscale>  0 0.11861373E+03</rscale>
<asrwt>0</asrwt>
<pdfrwt beam="2">  1        1 0.61501404E+00 0.17234420E+03</pdfrwt>
<pdfrwt beam="1">  1       -1 0.10750826E-01 0.81634414E+02</pdfrwt>
<totfact> 0.70445117E+00</totfact>
</mgrwt>
</event>
<event>
 7    1  0.4251803E-004  0.3735325E+02  0.7546771E-02  0.1585110E+00
         -2   -1    0    0    0  501 -0.00000000000E+00  0.00000000000E+00  0.89052937720E+01  0.89052937720E+01  0.00000000000E+00 0.  1.
          1   -1    0    0  503    0  0.00000000000E+00 -0.00000000000E+00 -0.14935266240E+04  0.14935266240E+04  0.00000000000E+00 0. -1.
         25    2    1    2    0    0 -0.24813149028E+02 -0.16038841804E+02 -0.10255059571E+04  0.10335177253E+04  0.12499393463E+03 0.  0.
          4    1    3    3  502    0  0.26839985496E+02  0.27557088588E+02 -0.70042739837E+03  0.70148409194E+03  0.12700000000E+01 0.  1.
         -4    1    3    3    0  502 -0.51653134523E+02 -0.43595930393E+02 -0.32507855873E+03  0.33203363339E+03  0.12700000000E+01 0.  1.
          1    1    1    2  503    0  0.12187877202E+02  0.38851604080E+02 -0.41960582845E+03  0.42157685273E+03  0.00000000000E+00 0. -1.
         -2    1    1    2    0  501  0.12625271826E+02 -0.22812762276E+02 -0.39509544704E+02  0.47337339744E+02  0.00000000000E+00 0.  1.
<mgrwt>
<rscale>  0 0.31207761E+02</rscale>
<asrwt>0</asrwt>
<pdfrwt beam="2">  1        1 0.22977328E+00 0.37353249E+02</pdfrwt>
<pdfrwt beam="1">  1       -2 0.13700455E-02 0.26073351E+02</pdfrwt>
<totfact> 0.71907353E+03</totfact>
</mgrwt>
</event>
<event>
 7    1  0.4251803E-004  0.6195843E+02  0.7546771E-02  0.1412535E+00
         -1   -1    0    0    0  501  0.00000000000E+00  0.00000000000E+00  0.20351859743E+03  0.20351859743E+03  0.00000000000E+00 0.  1.
         -3   -1    0    0    0  502 -0.00000000000E+00 -0.00000000000E+00 -0.18017700648E+04  0.18017700648E+04  0.00000000000E+00 0.  1.
         25    2    1    2    0    0  0.11846974653E+02 -0.10072008751E+02 -0.68686934291E+03  0.69832418696E+03  0.12500151881E+03 0.  0.
          4    1    3    3  503    0  0.25136943450E+02 -0.57280734605E+02 -0.53692090715E+03  0.54055399538E+03  0.12700000000E+01 0.  1.
         -4    1    3    3    0  503 -0.13289968796E+02  0.47208725854E+02 -0.14994843576E+03  0.15777019159E+03  0.12700000000E+01 0.  1.
         -1    1    1    2    0  501 -0.85328861469E+01  0.61729418276E+02  0.19226107534E+03  0.20210802141E+03  0.00000000000E+00 0.  1.
         -3    1    1    2    0  502 -0.33140885065E+01 -0.51657409525E+02 -0.11036431999E+04  0.11048564539E+04  0.00000000000E+00 0.  1.
<mgrwt>
<rscale>  0 0.56632077E+02</rscale>
<asrwt>0</asrwt>
<pdfrwt beam="1">  1       -1 0.31310554E-01 0.61958435E+02</pdfrwt>
<pdfrwt beam="2">  1       -3 0.27719539E+00 0.51763608E+02</pdfrwt>
<totfact> 0.27428134E+00</totfact>
</mgrwt>
</event>
<event>
 7    1  0.5642263E-004  0.1014514E+03  0.7546771E-02  0.1320774E+00
          2   -1    0    0  503    0  0.00000000000E+00  0.00000000000E+00  0.24875619283E+04  0.24875619283E+04  0.00000000000E+00 0. -1.
         -1   -1    0    0    0  501 -0.00000000000E+00 -0.00000000000E+00 -0.16349571686E+02  0.16349571686E+02  0.00000000000E+00 0.  1.
         25    2    1    2    0    0  0.14153046377E+03 -0.50205119080E+02  0.78005267786E+03  0.80415183446E+03  0.12500626571E+03 0.  0.
          4    1    3    3  502    0  0.10577103054E+03 -0.31754785611E+01  0.25940078930E+03  0.28015705766E+03  0.12700000000E+01 0. -1.
         -4    1    3    3    0  502  0.35759433228E+02 -0.47029640519E+02  0.52065188856E+03  0.52399477680E+03  0.12700000000E+01 0. -1.
          2    1    1    2  503    0 -0.95028769424E+02  0.74436429140E+00  0.12252656348E+04  0.12289454410E+04  0.00000000000E+00 0. -1.
         -1    1    1    2    0  501 -0.46501694346E+02  0.49460754788E+02  0.46589404392E+03  0.47081422451E+03  0.00000000000E+00 0.  1.
<mgrwt>
<rscale>  0 0.82989941E+02</rscale>
<asrwt>0</asrwt>
<pdfrwt beam="1">  1        2 0.38270153E+00 0.10145144E+03</pdfrwt>
<pdfrwt beam="2">  1       -1 0.25153207E-02 0.67887951E+02</pdfrwt>
<totfact> 0.21949334E+03</totfact>
</mgrwt>
</event>
<event>
 7    1  0.4251803E-004  0.1746994E+03  0.7546771E-02  0.1378698E+00
          2   -1    0    0  502    0  0.00000000000E+00  0.00000000000E+00  0.16531360854E+04  0.16531360854E+04  0.00000000000E+00 0. -1.
          2   -1    0    0  503    0 -0.00000000000E+00 -0.00000000000E+00 -0.87385684527E+02  0.87385684527E+02  0.00000000000E+00 0. -1.
         25    2    1    2    0    0 -0.18775912639E+03  0.42825013619E+02  0.35661797075E+03  0.42413313087E+03  0.12500025720E+03 0.  0.
          4    1    3    3  501    0 -0.12887724286E+02  0.44206098687E+02  0.12975426473E+03  0.13768825191E+03  0.12700000000E+01 0.  1.
         -4    1    3    3    0  501 -0.17487140210E+03 -0.13810850679E+01  0.22686370602E+03  0.28644487895E+03  0.12700000000E+01 0.  1.
          2    1    1    2  502    0  0.22975145437E+02 -0.70798258284E+01  0.11297758244E+04  0.11300315901E+04  0.00000000000E+00 0. -1.
          2    1    1    2  503    0  0.16478398095E+03 -0.35745187791E+02  0.79356605743E+02  0.18635704898E+03  0.00000000000E+00 0. -1.
<mgrwt>
<rscale>  0 0.64807329E+02</rscale>
<asrwt>0</asrwt>
<pdfrwt beam="1">  1        2 0.25432860E+00 0.24041240E+02</pdfrwt>
<pdfrwt beam="2">  1        2 0.13443953E-01 0.17469939E+03</pdfrwt>
<totfact> 0.95454085E+02</totfact>
</mgrwt>
</event>
<event>
 7    1  0.4251803E-004  0.1888311E+03  0.7546771E-02  0.1272507E+00
          1   -1    0    0  503    0 -0.00000000000E+00  0.00000000000E+00  0.72034983531E+03  0.72034983531E+03  0.00000000000E+00 0. -1.
          2   -1    0    0  502    0  0.00000000000E+00 -0.00000000000E+00 -0.12373618529E+04  0.12373618529E+04  0.00000000000E+00 0.  1.
         25    2    1    2    0    0  0.41224979735E+02 -0.23066658191E+03  0.18909942912E+03  0.32601482460E+03  0.12498200191E+03 0.  0.
          4    1    3    3  501    0  0.13467799293E+02 -0.15256933967E+03  0.18880561285E+03  0.24312128119E+03  0.12700000000E+01 0. -1.
         -4    1    3    3    0  501  0.27757180443E+02 -0.78097242238E+02  0.29381627651E+00  0.82893543411E+02  0.12700000000E+01 0. -1.
          2    1    1    2  502    0 -0.14588784896E+02  0.55159234360E+02 -0.11511486654E+04  0.11525617657E+04  0.00000000000E+00 0.  1.
          1    1    1    2  503    0 -0.26636194839E+02  0.17550734755E+03  0.44503721877E+03  0.47913509787E+03  0.00000000000E+00 0. -1.
<mgrwt>
<rscale>  0 0.10379751E+03</rscale>
<asrwt>0</asrwt>
<pdfrwt beam="2">  1        2 0.19036336E+00 0.57055883E+02</pdfrwt>
<pdfrwt beam="1">  1        1 0.11082305E+00 0.18883107E+03</pdfrwt>
<totfact> 0.79437778E+01</totfact>
</mgrwt>
</event>
<event>
 7    1  0.4251803E-004  0.5772812E+02  0.7546771E-02  0.1451892E+00
          1   -1    0    0  503    0  0.00000000000E+00  0.00000000000E+00  0.83008394457E+02  0.83008394457E+02  0.00000000000E+00 0. -1.
          1   -1    0    0  502    0 -0.00000000000E+00 -0.00000000000E+00 -0.13121752079E+04  0.13121752079E+04  0.00000000000E+00 0. -1.
         25    2    1    2    0    0  0.87492739736E+02 -0.23967061907E+02 -0.78292947590E+03  0.79801799653E+03  0.12499903596E+03 0.  0.
          4    1    3    3  501    0  0.56285906362E+01  0.92291235665E+01 -0.79918028276E+00  0.10913722714E+02  0.12700000000E+01 0.  1.
         -4    1    3    3    0  501  0.81864149100E+02 -0.33196185474E+02 -0.78213029562E+03  0.78710427382E+03  0.12700000000E+01 0.  1.
          1    1    1    2  502    0 -0.46231836321E+02  0.24309328863E+02 -0.51463857960E+03  0.51728250866E+03  0.00000000000E+00 0. -1.
          1    1    1    2  503    0 -0.41260903415E+02 -0.34226695549E+00  0.68401242056E+02  0.79883097162E+02  0.00000000000E+00 0. -1.
<mgrwt>
<rscale>  0 0.48805702E+02</rscale>
<asrwt>0</asrwt>
<pdfrwt beam="1">  1        1 0.12770522E-01 0.41262323E+02</pdfrwt>
<pdfrwt beam="2">  1        1 0.20187311E+00 0.57728125E+02</pdfrwt>
<totfact> 0.54347486E+02</totfact>
</mgrwt>
</event>
<event>
 7    1  0.4251803E-004  0.8970312E+02  0.7546771E-02  0.1314208E+00
          2   -1    0    0  503    0  0.00000000000E+00  0.00000000000E+00  0.49858658418E+03  0.49858658418E+03  0.00000000000E+00 0. -1.
          2   -1    0    0  502    0 -0.00000000000E+00 -0.00000000000E+00 -0.34112958446E+03  0.34112958446E+03  0.00000000000E+00 0. -1.
         25    2    1    2    0    0  0.13828737668E+03 -0.10447263410E+02  0.14693947991E+03  0.23759283895E+03  0.12500640985E+03 0.  0.
          4    1    3    3  501    0  0.46512640317E+02 -0.53720895619E+01 -0.16844625682E+02  0.49775891453E+02  0.12700000000E+01 0. -1.
         -4    1    3    3    0  501  0.91774736367E+02 -0.50751738484E+01  0.16378410559E+03  0.18781694750E+03  0.12700000000E+01 0. -1.
          2    1    1    2  502    0 -0.63133310164E+02  0.51440551462E+02 -0.28398493195E+03  0.29543084938E+03  0.00000000000E+00 0. -1.
          2    1    1    2  503    0 -0.75154066520E+02 -0.40993288052E+02  0.29450245176E+03  0.30669248030E+03  0.00000000000E+00 0. -1.
<mgrwt>
<rscale>  0 0.85470060E+02</rscale>
<asrwt>0</asrwt>
<pdfrwt beam="1">  1        2 0.76705628E-01 0.89703122E+02</pdfrwt>
<pdfrwt beam="2">  1        2 0.52481475E-01 0.81436756E+02</pdfrwt>
<totfact> 0.93392611E+02</totfact>
</mgrwt>
</event>
<event>
 7    1  0.4251803E-004  0.6988893E+02  0.7546771E-02  0.1476098E+00
         -2   -1    0    0    0  501 -0.00000000000E+00  0.00000000000E+00  0.11090699925E+02  0.11090699925E+02  0.00000000000E+00 0.  1.
          1   -1    0    0  503    0  0.00000000000E+00 -0.00000000000E+00 -0.16771625574E+04  0.16771625574E+04  0.00000000000E+00 0. -1.
         25    2    1    2    0    0 -0.82436718193E+02 -0.32871477990E+02 -0.93318569693E+03  0.94569396411E+03  0.12500072896E+03 0.  0.
          4    1    3    3  502    0 -0.73895652192E+02  0.15601192068E+02 -0.26108114892E+03  0.27178841739E+03  0.12700000000E+01 0.  1.
         -4    1    3    3    0  502 -0.85410660015E+01 -0.48472670059E+02 -0.67210454801E+03  0.67390554672E+03  0.12700000000E+01 0.  1.
          1    1    1    2  503    0  0.28341948691E+02 -0.39430663257E+01 -0.49534037168E+03  0.49616619962E+03  0.00000000000E+00 0. -1.
         -2    1    1    2    0  501  0.54094769502E+02  0.36814544316E+02 -0.23754578885E+03  0.24639309357E+03  0.00000000000E+00 0.  1.
<mgrwt>
<rscale>  0 0.44719866E+02</rscale>
<asrwt>0</asrwt>
<pdfrwt beam="2">  1        1 0.25802512E+00 0.28614923E+02</pdfrwt>
<pdfrwt beam="1">  1       -2 0.17062608E-02 0.69888933E+02</pdfrwt>
<totfact> 0.50327010E+03</totfact>
</mgrwt>
</event>
<event>
 7    1  0.4251803E-004  0.8238535E+02  0.7546771E-02  0.1379993E+00
          1   -1    0    0  503    0  0.00000000000E+00  0.00000000000E+00  0.10302911574E+04  0.10302911574E+04  0.00000000000E+00 0. -1.
          1   -1    0    0  502    0 -0.00000000000E+00 -0.00000000000E+00 -0.36297354259E+03  0.36297354259E+03  0.00000000000E+00 0.  1.
         25    2    1    2    0    0  0.10890439321E+03  0.56830811261E+02  0.18535469942E+03  0.25509088960E+03  0.12500035755E+03 0.  0.
          4    1    3    3  501    0 -0.77618478148E+01 -0.46651620288E+01 -0.13601862696E+02  0.16390045365E+02  0.12700000000E+01 0. -1.
         -4    1    3    3    0  501  0.11666624103E+03  0.61495973289E+02  0.19895656212E+03  0.23870084423E+03  0.12700000000E+01 0. -1.
          1    1    1    2  502    0 -0.58460948213E+02 -0.56881217578E+02 -0.32223359160E+03  0.33239681547E+03  0.00000000000E+00 0.  1.
          1    1    1    2  503    0 -0.50443445000E+02  0.50406317401E-01  0.80419650704E+03  0.80577699496E+03  0.00000000000E+00 0. -1.
<mgrwt>
<rscale>  0 0.64465516E+02</rscale>
<asrwt>0</asrwt>
<pdfrwt beam="1">  1        1 0.15850633E+00 0.50443470E+02</pdfrwt>
<pdfrwt beam="2">  1        1 0.55842084E-01 0.82385346E+02</pdfrwt>
<totfact> 0.14171393E+02</totfact>
</mgrwt>
</event>
<event>
 7    1  0.4251803E-004  0.1283112E+03  0.7546771E-02  0.1365296E+00
         -1   -1    0    0    0  501 -0.00000000000E+00  0.00000000000E+00  0.20148836563E+03  0.20148836563E+03  0.00000000000E+00 0.  1.
          2   -1    0    0  503    0  0.00000000000E+00 -0.00000000000E+00 -0.77741293573E+03  0.77741293573E+03  0.00000000000E+00 0. -1.
         25    2    1    2    0    0 -0.23639949957E+02 -0.11858485421E+03 -0.22852815472E+03  0.28717722200E+03  0.12499769781E+03 0.  0.
          4    1    3    3  502    0 -0.34583382845E+02 -0.88735457774E+02 -0.53422327802E+02  0.10920416587E+03  0.12700000000E+01 0. -1.
         -4    1    3    3    0  502  0.10943432888E+02 -0.29849396433E+02 -0.17510582691E+03  0.17797305614E+03  0.12700000000E+01 0. -1.
          2    1    1    2  503    0  0.60162231048E+02  0.11689815650E+03 -0.50917049184E+03  0.52587000561E+03  0.00000000000E+00 0. -1.
         -1    1    1    2    0  501 -0.36522281091E+02  0.16866977089E+01  0.16177407645E+03  0.16585407375E+03  0.00000000000E+00 0.  1.
<mgrwt>
<rscale>  0 0.68492435E+02</rscale>
<asrwt>0</asrwt>
<pdfrwt beam="2">  1        2 0.11960199E+00 0.12831123E+03</pdfrwt>
<pdfrwt beam="1">  1       -1 0.30998210E-01 0.36561208E+02</pdfrwt>
<totfact> 0.40424288E+02</totfact>
</mgrwt>
</event>
<event>
 7    1  0.4251803E-004  0.1055069E+03  0.7546771E-02  0.1318257E+00
          1   -1    0    0  503    0 -0.00000000000E+00  0.00000000000E+00  0.48350506543E+02  0.48350506543E+02  0.00000000000E+00 0. -1.
          2   -1    0    0  502    0  0.00000000000E+00 -0.00000000000E+00 -0.20239995113E+04  0.20239995113E+04  0.00000000000E+00 0. -1.
         25    2    1    2    0    0 -0.96030803980E+02  0.11186432400E+03 -0.39368847469E+03  0.43857762093E+03  0.12499668866E+03 0.  0.
          4    1    3    3  501    0 -0.32061747385E+01  0.11293461979E+02 -0.20572472387E+03  0.20606333189E+03  0.12700000000E+01 0. -1.
         -4    1    3    3    0  501 -0.92824629242E+02  0.10057086203E+03 -0.18796375083E+03  0.23251428904E+03  0.12700000000E+01 0. -1.
          2    1    1    2  502    0  0.92736406905E+02 -0.45181263832E+02 -0.15601196155E+04  0.15635263357E+04  0.00000000000E+00 0. -1.
          1    1    1    2  503    0  0.32943970754E+01 -0.66683060173E+02 -0.21840914558E+02  0.70246061205E+02  0.00000000000E+00 0. -1.
<mgrwt>
<rscale>  0 0.83929162E+02</rscale>
<asrwt>0</asrwt>
<pdfrwt beam="2">  1        2 0.31138451E+00 0.10550691E+03</pdfrwt>
<pdfrwt beam="1">  1        1 0.74385401E-02 0.66764388E+02</pdfrwt>
<totfact> 0.94025386E+02</totfact>
</mgrwt>
</event>
<event>
 7    1  0.4251803E-004  0.7797454E+02  0.7546771E-02  0.1340182E+00
          1   -1    0    0  502    0  0.00000000000E+00  0.00000000000E+00  0.26639546512E+04  0.26639546512E+04  0.00000000000E+00 0. -1.
          3   -1    0    0  503    0 -0.00000000000E+00 -0.00000000000E+00 -0.41493588092E+02  0.41493588092E+02  0.00000000000E+00 0. -1.
         25    2    1    2    0    0  0.20636389984E+02  0.12807846406E+03  0.43825390335E+03  0.47384459888E+03  0.12502906278E+03 0.  0.
          4    1    3    3  501    0 -0.12917274988E+02 -0.15662379975E+02  0.13555112406E+03  0.13706891067E+03  0.12700000000E+01 0.  1.
         -4    1    3    3    0  501  0.33553664972E+02  0.14374084404E+03  0.30270277929E+03  0.33677568821E+03  0.12700000000E+01 0.  1.
          1    1    1    2  502    0  0.27722274320E+02 -0.71440485067E+02  0.21469730850E+04  0.21483402186E+04  0.00000000000E+00 0. -1.
          3    1    1    2  503    0 -0.48358664304E+02 -0.56637978997E+02  0.37234074757E+02  0.83263421748E+02  0.00000000000E+00 0. -1.
<mgrwt>
<rscale>  0 0.76204325E+02</rscale>
<asrwt>0</asrwt>
<pdfrwt beam="1">  1        1 0.40983905E+00 0.77974541E+02</pdfrwt>
<pdfrwt beam="2">  1        3 0.63836310E-02 0.74474298E+02</pdfrwt>
<totfact> 0.10956103E+02</totfact>
</mgrwt>
</event>
<event>
 7    1  0.4251803E-004  0.1151106E+03  0.7546771E-02  0.1354969E+00
         -1   -1    0    0    0  501 -0.00000000000E+00  0.00000000000E+00  0.33886584832E+02  0.33886584832E+02  0.00000000000E+00 0.  1.
          1   -1    0    0  503    0  0.00000000000E+00 -0.00000000000E+00 -0.10168355866E+04  0.10168355866E+04  0.00000000000E+00 0. -1.
         25    2    1    2    0    0 -0.38587923630E+02 -0.13761550503E+03 -0.65450112255E+03  0.68148795438E+03  0.12500822962E+03 0.  0.
          4    1    3    3  502    0 -0.77799671480E+00 -0.13157440346E+03 -0.60362685033E+03  0.61780208502E+03  0.12700000000E+01 0.  1.
         -4    1    3    3    0  502 -0.37809926915E+02 -0.60411015749E+01 -0.50874272223E+02  0.63685869357E+02  0.12700000000E+01 0.  1.
          1    1    1    2  503    0  0.21878110443E+02  0.96428310588E+02 -0.30139655481E+03  0.31720175606E+03  0.00000000000E+00 0. -1.
         -1    1    1    2    0  501  0.16709813187E+02  0.41187194445E+02 -0.27051324389E+02  0.52032460966E+02  0.00000000000E+00 0.  1.
<mgrwt>
<rscale>  0 0.71529076E+02</rscale>
<asrwt>0</asrwt>
<pdfrwt beam="2">  1        1 0.15643622E+00 0.11511062E+03</pdfrwt>
<pdfrwt beam="1">  1       -1 0.52133215E-02 0.44447754E+02</pdfrwt>
<totfact> 0.22948086E+03</totfact>
</mgrwt>
</event>
<event>
 7    1  0.4251803E-004  0.4932835E+02  0.7546771E-02  0.1500988E+00
          2   -1    0    0  502    0  0.00000000000E+00  0.00000000000E+00  0.45923838355E+03  0.45923838355E+03  0.00000000000E+00 0. -1.
          1   -1    0    0  503    0 -0.00000000000E+00 -0.00000000000E+00 -0.92466105373E+03  0.92466105373E+03  0.00000000000E+00 0. -1.
         25    2    1    2    0    0  0.73402947916E+02 -0.18653377202E+02 -0.27832698804E+02  0.14877849929E+03  0.12499776591E+03 0.  0.
          4    1    3    3  501    0  0.90806863210E+02  0.22886807807E+02 -0.40407074317E+02  0.10200018104E+03  0.12700000000E+01 0. -1.
         -4    1    3    3    0  501 -0.17403915294E+02 -0.41540185009E+02  0.12574375512E+02  0.46778318244E+02  0.12700000000E+01 0. -1.
          2    1    1    2  502    0 -0.48714710086E+02 -0.48337182769E+01  0.39691401795E+03  0.39992152412E+03  0.00000000000E+00 0. -1.
          1    1    1    2  503    0 -0.24688237829E+02  0.23487095479E+02 -0.83450398932E+03  0.83519941387E+03  0.00000000000E+00 0. -1.
<mgrwt>
<rscale>  0 0.40998753E+02</rscale>
<asrwt>0</asrwt>
<pdfrwt beam="1">  1        2 0.70652059E-01 0.49328353E+02</pdfrwt>
<pdfrwt beam="2">  1        1 0.14225555E+00 0.34075691E+02</pdfrwt>
<totfact> 0.19724248E+02</totfact>
</mgrwt>
</event>
<event>
 7    1  0.4251803E-004  0.1123476E+03  0.7546771E-02  0.1262873E+00
          2   -1    0    0  503    0  0.00000000000E+00  0.00000000000E+00  0.46203867347E+03  0.46203867347E+03  0.00000000000E+00 0. -1.
          2   -1    0    0  502    0 -0.00000000000E+00 -0.00000000000E+00 -0.17649241201E+03  0.17649241201E+03  0.00000000000E+00 0. -1.
         25    2    1    2    0    0 -0.43681475398E+02  0.96251593224E+01 -0.77267716507E+02  0.15361186203E+03  0.12500235661E+03 0.  0.
          4    1    3    3  501    0 -0.46362392011E+01  0.59113890186E+02 -0.67425595619E+02  0.89798499828E+02  0.12700000000E+01 0. -1.
         -4    1    3    3    0  501 -0.39045236197E+02 -0.49488730864E+02 -0.98421208883E+01  0.63813362204E+02  0.12700000000E+01 0. -1.
          2    1    1    2  502    0  0.45160310071E+02  0.10287147732E+03  0.79283946640E+01  0.11262705667E+03  0.00000000000E+00 0. -1.
          2    1    1    2  503    0 -0.14788346735E+01 -0.11249663664E+03  0.35488558331E+03  0.37229216678E+03  0.00000000000E+00 0. -1.
<mgrwt>
<rscale>  0 0.10876580E+03</rscale>
<asrwt>0</asrwt>
<pdfrwt beam="1">  1        2 0.71082872E-01 0.10529815E+03</pdfrwt>
<pdfrwt beam="2">  1        2 0.27152679E-01 0.11234765E+03</pdfrwt>
<totfact> 0.20397763E+03</totfact>
</mgrwt>
</event>
<event>
 7    1  0.4251803E-004  0.9831780E+02  0.7546771E-02  0.1475376E+00
          2   -1    0    0  502    0  0.00000000000E+00  0.00000000000E+00  0.16040007712E+03  0.16040007712E+03  0.00000000000E+00 0. -1.
          1   -1    0    0  503    0 -0.00000000000E+00 -0.00000000000E+00 -0.35297490816E+03  0.35297490816E+03  0.00000000000E+00 0. -1.
         25    2    1    2    0    0  0.95645741027E+02 -0.24780502455E+02 -0.29828861778E+03  0.33819186514E+03  0.12504182130E+03 0.  0.
          4    1    3    3  501    0  0.10158805677E+03  0.21309488791E+02 -0.25220405579E+03  0.27273196778E+03  0.12700000000E+01 0. -1.
         -4    1    3    3    0  501 -0.59423157476E+01 -0.46089991246E+02 -0.46084561990E+02  0.65459897367E+02  0.12700000000E+01 0. -1.
          2    1    1    2  502    0  0.24636130701E+01  0.20296508663E+02  0.66260397165E+02  0.69343044970E+02  0.00000000000E+00 0. -1.
          1    1    1    2  503    0 -0.98109354097E+02  0.44839937918E+01  0.39453389573E+02  0.10584007516E+03  0.00000000000E+00 0. -1.
<mgrwt>
<rscale>  0 0.44834748E+02</rscale>
<asrwt>0</asrwt>
<pdfrwt beam="1">  1        2 0.24676935E-01 0.20445480E+02</pdfrwt>
<pdfrwt beam="2">  1        1 0.54303832E-01 0.98317802E+02</pdfrwt>
<totfact> 0.19430460E+03</totfact>
</mgrwt>
</event>
<event>
 7    1  0.4251803E-004  0.2047577E+03  0.7546771E-02  0.1217988E+00
         -3   -1    0    0    0  501 -0.00000000000E+00  0.00000000000E+00  0.40187643698E+03  0.40187643698E+03  0.00000000000E+00 0.  1.
          1   -1    0    0  503    0  0.00000000000E+00 -0.00000000000E+00 -0.69165515443E+03  0.69165515443E+03  0.00000000000E+00 0. -1.
         25    2    1    2    0    0 -0.11697264410E+03 -0.66726190630E+02 -0.38744163987E+02  0.18777792964E+03  0.12499782651E+03 0.  0.
          4    1    3    3  502    0 -0.59577176523E+02 -0.52267483222E+02  0.40379521452E+02  0.88957565263E+02  0.12700000000E+01 0.  1.
         -4    1    3    3    0  502 -0.57395467574E+02 -0.14458707408E+02 -0.79123685439E+02  0.98820364376E+02  0.12700000000E+01 0.  1.
          1    1    1    2  503    0  0.19388071654E+03  0.11559579092E+03 -0.54930469572E+03  0.59387521237E+03  0.00000000000E+00 0. -1.
         -3    1    1    2    0  501 -0.76908072444E+02 -0.48869600285E+02  0.29827014226E+03  0.31187844940E+03  0.00000000000E+00 0.  1.
<mgrwt>
<rscale>  0 0.13659349E+03</rscale>
<asrwt>0</asrwt>
<pdfrwt beam="2">  1        1 0.10640848E+00 0.20475766E+03</pdfrwt>
<pdfrwt beam="1">  1       -3 0.61827145E-01 0.91121290E+02</pdfrwt>
<totfact> 0.39675676E+01</totfact>
</mgrwt>
</event>
<event>
 7    1  0.4251803E-004  0.1879734E+03  0.7546771E-02  0.1201521E+00
          1   -1    0    0  502    0  0.00000000000E+00  0.00000000000E+00  0.20645880815E+03  0.20645880815E+03  0.00000000000E+00 0. -1.
          1   -1    0    0  503    0 -0.00000000000E+00 -0.00000000000E+00 -0.25921497170E+04  0.25921497170E+04  0.00000000000E+00 0. -1.
         25    2    1    2    0    0 -0.21614329415E+03 -0.13329613265E+03 -0.29389026753E+03  0.40802315568E+03  0.12500249453E+03 0.  0.
          4    1    3    3  501    0  0.90430832045E+01 -0.17875753145E+02 -0.60635726796E+02  0.63871935687E+02  0.12700000000E+01 0. -1.
         -4    1    3    3    0  501 -0.22518637735E+03 -0.11542037950E+03 -0.23325454073E+03  0.34415121999E+03  0.12700000000E+01 0. -1.
          1    1    1    2  502    0  0.17949757075E+03  0.20767634665E+02  0.92559293284E+02  0.20302190850E+03  0.00000000000E+00 0. -1.
          1    1    1    2  503    0  0.36645723393E+02  0.11252849798E+03 -0.21843599346E+04  0.21875634610E+04  0.00000000000E+00 0. -1.
<mgrwt>
<rscale>  0 0.14915004E+03</rscale>
<asrwt>0</asrwt>
<pdfrwt beam="1">  1        1 0.31762891E-01 0.18797338E+03</pdfrwt>
<pdfrwt beam="2">  1        1 0.39879230E+00 0.11834514E+03</pdfrwt>
<totfact> 0.26064600E+01</totfact>
</mgrwt>
</event>
<event>
 7    1  0.4251803E-004  0.2634773E+02  0.7546771E-02  0.1686272E+00
          2   -1    0    0  503    0  0.00000000000E+00  0.00000000000E+00  0.23764522400E+04  0.23764522400E+04  0.00000000000E+00 0. -1.
         -2   -1    0    0    0  501 -0.00000000000E+00 -0.00000000000E+00 -0.66284562916E+01  0.66284562916E+01  0.00000000000E+00 0.  1.
         25    2    1    2    0    0 -0.22215635464E+02  0.30794781193E+02  0.18084122626E+04  0.18131247882E+04  0.12499893273E+03 0.  0.
          4    1    3    3  502    0  0.50241510301E+02  0.21949527547E+02  0.96576292429E+03  0.96731878404E+03  0.12700000000E+01 0. -1.
         -4    1    3    3    0  502 -0.72457145764E+02  0.88452536464E+01  0.84264933830E+03  0.84580600419E+03  0.12700000000E+01 0. -1.
          2    1    1    2  503    0  0.23316490519E+02 -0.10172448173E+02  0.53853942792E+03  0.53913991955E+03  0.00000000000E+00 0. -1.
         -2    1    1    2    0  501 -0.11008550551E+01 -0.20622333021E+02  0.22872093220E+02  0.30815988534E+02  0.00000000000E+00 0.  1.
<mgrwt>
<rscale>  0 0.23326495E+02</rscale>
<asrwt>0</asrwt>
<pdfrwt beam="1">  1        2 0.36560736E+00 0.26347734E+02</pdfrwt>
<pdfrwt beam="2">  1       -2 0.10197644E-02 0.20651695E+02</pdfrwt>
<totfact> 0.84643298E+03</totfact>
</mgrwt>
</event>
<event>
 7    1  0.4251803E-004  0.7434849E+02  0.7546771E-02  0.1381216E+00
          2   -1    0    0  503    0  0.00000000000E+00  0.00000000000E+00  0.18154590577E+04  0.18154590577E+04  0.00000000000E+00 0. -1.
         -2   -1    0    0    0  501 -0.00000000000E+00 -0.00000000000E+00 -0.44847775826E+02  0.44847775826E+02  0.00000000000E+00 0.  1.
         25    2    1    2    0    0 -0.53075110077E+02  0.11373922631E+03  0.34529572003E+03  0.38808253284E+03  0.12500135645E+03 0.  0.
          4    1    3    3  502    0 -0.46551887173E+02  0.26763128878E+02  0.26207554793E+03  0.26752298778E+03  0.12700000000E+01 0. -1.
         -4    1    3    3    0  502 -0.65232229039E+01  0.86976097433E+02  0.83220172103E+02  0.12055954507E+03  0.12700000000E+01 0. -1.
          2    1    1    2  503    0  0.19970461029E+02 -0.69389892371E+02  0.14138676743E+04  0.14157102729E+04  0.00000000000E+00 0. -1.
         -2    1    1    2    0  501  0.33104649048E+02 -0.44349333940E+02  0.11447887618E+02  0.56514027819E+02  0.00000000000E+00 0.  1.
<mgrwt>
<rscale>  0 0.64145335E+02</rscale>
<asrwt>0</asrwt>
<pdfrwt beam="1">  1        2 0.27930134E+00 0.74348493E+02</pdfrwt>
<pdfrwt beam="2">  1       -2 0.68996592E-02 0.55342400E+02</pdfrwt>
<totfact> 0.11067233E+03</totfact>
</mgrwt>
</event>
<event>
 7    1  0.4251803E-004  0.1471926E+03  0.7546771E-02  0.1245016E+00
          1   -1    0    0  503    0  0.00000000000E+00  0.00000000000E+00  0.10894028697E+04  0.10894028697E+04  0.00000000000E+00 0. -1.
         -2   -1    0    0    0  501 -0.00000000000E+00 -0.00000000000E+00 -0.79305445505E+03  0.79305445505E+03  0.00000000000E+00 0.  1.
         25    2    1    2    0    0 -0.10064257032E+03  0.16324207890E+03  0.52808427547E+03  0.57556736779E+03  0.12501155780E+03 0.  0.
          4    1    3    3  502    0 -0.13006834803E+03  0.12307608460E+03  0.40865012964E+03  0.44616369094E+03  0.12700000000E+01 0. -1.
         -4    1    3    3    0  502  0.29425777712E+02  0.40165994302E+02  0.11943414583E+03  0.12940367685E+03  0.12700000000E+01 0. -1.
          1    1    1    2  503    0 -0.27776717054E+02 -0.91847615361E+02  0.52618277927E+03  0.53486058713E+03  0.00000000000E+00 0. -1.
         -2    1    1    2    0  501  0.12841928737E+03 -0.71394463541E+02 -0.75791864013E+03  0.77202936981E+03  0.00000000000E+00 0.  1.
<mgrwt>
<rscale>  0 0.11884440E+03</rscale>
<asrwt>0</asrwt>
<pdfrwt beam="1">  1        1 0.16760044E+00 0.95955878E+02</pdfrwt>
<pdfrwt beam="2">  1       -2 0.12200838E+00 0.14719256E+03</pdfrwt>
<totfact> 0.71998535E+00</totfact>
</mgrwt>
</event>
<event>
 7    1  0.4251803E-004  0.3337858E+02  0.7546771E-02  0.1635105E+00
          2   -1    0    0  503    0  0.00000000000E+00  0.00000000000E+00  0.18247726597E+04  0.18247726597E+04  0.00000000000E+00 0. -1.
         -1   -1    0    0    0  501 -0.00000000000E+00 -0.00000000000E+00 -0.74233803044E+01  0.74233803044E+01  0.00000000000E+00 0.  1.
         25    2    1    2    0    0 -0.18510005180E+02  0.46682563282E+02  0.85931940271E+03  0.86981506633E+03  0.12500612685E+03 0.  0.
          4    1    3    3  502    0 -0.72095111632E+02  0.26977580891E+02  0.53402261200E+03  0.53954356452E+03  0.12700000000E+01 0.  1.
         -4    1    3    3    0  502  0.53585106452E+02  0.19704982390E+02  0.32529679071E+03  0.33027150181E+03  0.12700000000E+01 0.  1.
          2    1    1    2  503    0  0.15021040399E+02 -0.15634229867E+02  0.84018418071E+03  0.84046387092E+03  0.00000000000E+00 0. -1.
         -1    1    1    2    0  501  0.34889647812E+01 -0.31048333415E+02  0.11784569596E+03  0.12191710274E+03  0.00000000000E+00 0.  1.
<mgrwt>
<rscale>  0 0.26901250E+02</rscale>
<asrwt>0</asrwt>
<pdfrwt beam="1">  1        2 0.28073390E+00 0.21680886E+02</pdfrwt>
<pdfrwt beam="2">  1       -1 0.11420600E-02 0.33378584E+02</pdfrwt>
<totfact> 0.15142759E+04</totfact>
</mgrwt>
</event>
<event>
 7    1  0.4251803E-004  0.7685244E+02  0.7546771E-02  0.1423612E+00
         -1   -1    0    0    0  501 -0.00000000000E+00  0.00000000000E+00  0.22500417298E+03  0.22500417298E+03  0.00000000000E+00 0.  1.
          2   -1    0    0  503    0  0.00000000000E+00 -0.00000000000E+00 -0.83908511967E+03  0.83908511967E+03  0.00000000000E+00 0. -1.
         25    2    1    2    0    0  0.58987015313E+02  0.49383281402E+02 -0.23561163526E+03  0.27758726016E+03  0.12499467140E+03 0.  0.
          4    1    3    3  502    0  0.17592320952E+01 -0.26443448538E+02 -0.14111449222E+03  0.14358712924E+03  0.12700000000E+01 0.  1.
         -4    1    3    3    0  502  0.57227783218E+02  0.75826729940E+02 -0.94497143034E+02  0.13400013092E+03  0.12700000000E+01 0.  1.
          2    1    1    2  503    0 -0.76386146313E+02 -0.15246870401E+02 -0.57805120285E+03  0.58327566683E+03  0.00000000000E+00 0. -1.
         -1    1    1    2    0  501  0.17399131000E+02 -0.34136411001E+02  0.19958189141E+03  0.20322636565E+03  0.00000000000E+00 0.  1.
<mgrwt>
<rscale>  0 0.54264041E+02</rscale>
<asrwt>0</asrwt>
<pdfrwt beam="2">  1        2 0.12909002E+00 0.76852436E+02</pdfrwt>
<pdfrwt beam="1">  1       -1 0.34616027E-01 0.38314805E+02</pdfrwt>
<totfact> 0.31354624E+02</totfact>
</mgrwt>
</event>
<event>
 7    1  0.4251803E-004  0.7366985E+02  0.7546771E-02  0.1459921E+00
          1   -1    0    0  502    0  0.00000000000E+00  0.00000000000E+00  0.83337563626E+03  0.83337563626E+03  0.00000000000E+00 0. -1.
          1   -1    0    0  503    0 -0.00000000000E+00 -0.00000000000E+00 -0.89579095420E+02  0.89579095420E+02  0.00000000000E+00 0. -1.
         25    2    1    2    0    0  0.59664893284E+02  0.44788594513E+02  0.15939240943E+02  0.14643896516E+03  0.12499757369E+03 0.  0.
          4    1    3    3  501    0  0.22448516100E+02 -0.43742465511E+02  0.10160794647E+02  0.50221447728E+02  0.12700000000E+01 0.  1.
         -4    1    3    3    0  501  0.37216377184E+02  0.88531060025E+02  0.57784462966E+01  0.96217517435E+02  0.12700000000E+01 0.  1.
          1    1    1    2  502    0  0.13873849061E+02 -0.27151905871E+02  0.69226225737E+03  0.69293343307E+03  0.00000000000E+00 0. -1.
          1    1    1    2  503    0 -0.73538742346E+02 -0.17636688642E+02  0.35595042519E+02  0.83582333444E+02  0.00000000000E+00 0. -1.
<mgrwt>
<rscale>  0 0.47394914E+02</rscale>
<asrwt>0</asrwt>
<pdfrwt beam="1">  1        1 0.12821163E+00 0.30491141E+02</pdfrwt>
<pdfrwt beam="2">  1        1 0.13781400E-01 0.73669853E+02</pdfrwt>
<totfact> 0.11360990E+03</totfact>
</mgrwt>
</event>
<event>
 7    1  0.4251803E-004  0.6250638E+02  0.7546771E-02  0.1463815E+00
         -1   -1    0    0    0  501 -0.00000000000E+00  0.00000000000E+00  0.40378846730E+03  0.40378846730E+03  0.00000000000E+00 0.  1.
          1   -1    0    0  503    0  0.00000000000E+00 -0.00000000000E+00 -0.15002222378E+03  0.15002222378E+03  0.00000000000E+00 0. -1.
         25    2    1    2    0    0 -0.26386071851E+02  0.27969228671E+02  0.56014077505E+02  0.14227029701E+03  0.12499903196E+03 0.  0.
          4    1    3    3  502    0 -0.64992144166E+02 -0.75127662656E+01  0.61159371203E+02  0.89568421032E+02  0.12700000000E+01 0. -1.
         -4    1    3    3    0  502  0.38606072314E+02  0.35481994937E+02 -0.51452936981E+01  0.52701875976E+02  0.12700000000E+01 0. -1.
          1    1    1    2  503    0  0.19731155212E+02 -0.62266771702E+02 -0.95782283134E+02  0.11593409812E+03  0.00000000000E+00 0. -1.
         -1    1    1    2    0  501  0.66549166398E+01  0.34297543031E+02  0.29353444914E+03  0.29560629596E+03  0.00000000000E+00 0.  1.
<mgrwt>
<rscale>  0 0.46731136E+02</rscale>
<asrwt>0</asrwt>
<pdfrwt beam="2">  1        1 0.23080342E-01 0.62506376E+02</pdfrwt>
<pdfrwt beam="1">  1       -1 0.62121302E-01 0.34937220E+02</pdfrwt>
<totfact> 0.57490709E+02</totfact>
</mgrwt>
</event>
<event>
 7    1  0.4251803E-004  0.5302751E+02  0.7546771E-02  0.1471887E+00
          1   -1    0    0  503    0  0.00000000000E+00  0.00000000000E+00  0.56372594982E+03  0.56372594982E+03  0.00000000000E+00 0. -1.
         -2   -1    0    0    0  501 -0.00000000000E+00 -0.00000000000E+00 -0.76825587997E+03  0.76825587997E+03  0.00000000000E+00 0.  1.
         25    2    1    2    0    0  0.19255386169E+02 -0.39314854131E+02 -0.18156063314E+03  0.22473399779E+03  0.12499871441E+03 0.  0.
          4    1    3    3  502    0 -0.13084536885E+02  0.22327381873E+02 -0.14263458188E+03  0.14496880331E+03  0.12700000000E+01 0. -1.
         -4    1    3    3    0  502  0.32339923054E+02 -0.61642236004E+02 -0.38926051267E+02  0.79765194477E+02  0.12700000000E+01 0. -1.
          1    1    1    2  503    0  0.18110990473E+02  0.49993058158E+02  0.54016419877E+03  0.54277497683E+03  0.00000000000E+00 0. -1.
         -2    1    1    2    0  501 -0.37366376642E+02 -0.10678204028E+02 -0.56313349578E+03  0.56447285516E+03  0.00000000000E+00 0.  1.
<mgrwt>
<rscale>  0 0.45395654E+02</rscale>
<asrwt>0</asrwt>
<pdfrwt beam="1">  1        1 0.86727070E-01 0.53027510E+02</pdfrwt>
<pdfrwt beam="2">  1       -2 0.11819321E+00 0.38862194E+02</pdfrwt>
<totfact> 0.22109182E+01</totfact>
</mgrwt>
</event>
<event>
 7    1  0.4251803E-004  0.7414529E+02  0.7546771E-02  0.1484402E+00
          2   -1    0    0  502    0  0.00000000000E+00  0.00000000000E+00  0.15363492728E+04  0.15363492728E+04  0.00000000000E+00 0. -1.
          1   -1    0    0  503    0 -0.00000000000E+00 -0.00000000000E+00 -0.56685333777E+03  0.56685333777E+03  0.00000000000E+00 0. -1.
         25    2    1    2    0    0  0.15815828813E+02  0.60712915743E+02  0.26791711717E+03  0.30222652132E+03  0.12500035975E+03 0.  0.
          4    1    3    3  501    0 -0.49549544047E+02  0.55290601264E+02  0.14105135848E+03  0.15940296902E+03  0.12700000000E+01 0.  1.
         -4    1    3    3    0  501  0.65365372860E+02  0.54223144783E+01  0.12686575869E+03  0.14282355230E+03  0.12700000000E+01 0.  1.
          2    1    1    2  502    0  0.25413660554E+02  0.10693173544E+01  0.12486382715E+04  0.12488973259E+04  0.00000000000E+00 0. -1.
          1    1    1    2  503    0 -0.41229489367E+02 -0.61782233097E+02 -0.54705945364E+03  0.55207876335E+03  0.00000000000E+00 0. -1.
<mgrwt>
<rscale>  0 0.43427761E+02</rscale>
<asrwt>0</asrwt>
<pdfrwt beam="1">  1        2 0.23636143E+00 0.25436147E+02</pdfrwt>
<pdfrwt beam="2">  1        1 0.87208206E-01 0.74145288E+02</pdfrwt>
<totfact> 0.86842928E+01</totfact>
</mgrwt>
</event>
<event>
 7    1  0.4251803E-004  0.7949842E+02  0.7546771E-02  0.1426099E+00
         -1   -1    0    0    0  501 -0.00000000000E+00  0.00000000000E+00  0.47513350952E+03  0.47513350952E+03  0.00000000000E+00 0.  1.
          2   -1    0    0  503    0  0.00000000000E+00 -0.00000000000E+00 -0.37839773399E+02  0.37839773399E+02  0.00000000000E+00 0. -1.
         25    2    1    2    0    0  0.55108136691E+02 -0.64406610688E+02  0.23608347974E+03  0.28026518538E+03  0.12501218541E+03 0.  0.
          4    1    3    3  502    0  0.12197694358E-01  0.11347163244E+02  0.15771637384E+03  0.15812914260E+03  0.12700000000E+01 0. -1.
         -4    1    3    3    0  502  0.55095938997E+02 -0.75753773932E+02  0.78367105897E+02  0.12213604278E+03  0.12700000000E+01 0. -1.
          2    1    1    2  503    0  0.17554315323E+02  0.31821774039E+02  0.50031796139E+02  0.61838175219E+02  0.00000000000E+00 0. -1.
         -1    1    1    2    0  501 -0.72662452014E+02  0.32584836649E+02  0.15117846024E+03  0.17086992232E+03  0.00000000000E+00 0.  1.
<mgrwt>
<rscale>  0 0.53751031E+02</rscale>
<asrwt>0</asrwt>
<pdfrwt beam="2">  1        2 0.58215039E-02 0.36342527E+02</pdfrwt>
<pdfrwt beam="1">  1       -1 0.73097459E-01 0.79498416E+02</pdfrwt>
<totfact> 0.24978969E+03</totfact>
</mgrwt>
</event>
<event>
 7    1  0.4251803E-004  0.1030640E+03  0.7546771E-02  0.1409212E+00
         -1   -1    0    0    0  501 -0.00000000000E+00  0.00000000000E+00  0.16410882478E+03  0.16410882478E+03  0.00000000000E+00 0.  1.
          1   -1    0    0  503    0  0.00000000000E+00 -0.00000000000E+00 -0.54758531587E+03  0.54758531587E+03  0.00000000000E+00 0. -1.
         25    2    1    2    0    0  0.92324495502E+02 -0.30510745478E+02 -0.10463992103E+03  0.18978609923E+03  0.12495812230E+03 0.  0.
          4    1    3    3  502    0  0.87251000456E+02 -0.71291455079E+02 -0.95410569352E+02  0.14764822482E+03  0.12700000000E+01 0. -1.
         -4    1    3    3    0  502  0.50734950459E+01  0.40780709601E+02 -0.92293516757E+01  0.42137874411E+02  0.12700000000E+01 0. -1.
          1    1    1    2  503    0 -0.84667933101E+02  0.61513900861E+02 -0.39127148987E+03  0.40502592224E+03  0.00000000000E+00 0. -1.
         -1    1    1    2    0  501 -0.76565624007E+01 -0.31003155382E+02  0.11243491981E+03  0.11688211918E+03  0.00000000000E+00 0.  1.
<mgrwt>
<rscale>  0 0.57369929E+02</rscale>
<asrwt>0</asrwt>
<pdfrwt beam="2">  1        1 0.84243894E-01 0.10306404E+03</pdfrwt>
<pdfrwt beam="1">  1       -1 0.25247512E-01 0.31934599E+02</pdfrwt>
<totfact> 0.53240095E+02</totfact>
</mgrwt>
</event>
<event>
 7    1  0.4251803E-004  0.2068712E+03  0.7546771E-02  0.1214382E+00
          1   -1    0    0  503    0  0.00000000000E+00  0.00000000000E+00  0.61472074706E+03  0.61472074706E+03  0.00000000000E+00 0. -1.
          1   -1    0    0  502    0 -0.00000000000E+00 -0.00000000000E+00 -0.33985923950E+03  0.33985923950E+03  0.00000000000E+00 0. -1.
         25    2    1    2    0    0 -0.10090805946E+03  0.14355641974E+03  0.97526318626E+02  0.23647069365E+03  0.12496449103E+03 0.  0.
          4    1    3    3  501    0 -0.13000991220E+03  0.12689263706E+03  0.78671435524E+02  0.19797759034E+03  0.12700000000E+01 0.  1.
         -4    1    3    3    0  501  0.29101852736E+02  0.16663782685E+02  0.18854883101E+02  0.38493103315E+02  0.12700000000E+01 0.  1.
          1    1    1    2  502    0  0.54832103531E+02  0.75972492214E+02 -0.23263054090E+03  0.25078944897E+03  0.00000000000E+00 0. -1.
          1    1    1    2  503    0  0.46075955932E+02 -0.21952891196E+03  0.40996572983E+03  0.46731984394E+03  0.00000000000E+00 0. -1.
<mgrwt>
<rscale>  0 0.13922063E+03</rscale>
<asrwt>0</asrwt>
<pdfrwt beam="1">  1        1 0.94572423E-01 0.20687118E+03</pdfrwt>
<pdfrwt beam="2">  1        1 0.52286037E-01 0.93693005E+02</pdfrwt>
<totfact> 0.30991747E+02</totfact>
</mgrwt>
</event>
<event>
 7    1  0.4251803E-004  0.1281203E+03  0.7546771E-02  0.1363638E+00
          2   -1    0    0  503    0  0.00000000000E+00  0.00000000000E+00  0.12513604682E+04  0.12513604682E+04  0.00000000000E+00 0. -1.
          2   -1    0    0  502    0 -0.00000000000E+00 -0.00000000000E+00 -0.20295973070E+03  0.20295973070E+03  0.00000000000E+00 0. -1.
         25    2    1    2    0    0 -0.49126130004E+02 -0.86740722692E+02 -0.94161318348E+02  0.18555085681E+03  0.12500174786E+03 0.  0.
          4    1    3    3  501    0 -0.32129233797E+02 -0.11890073113E+03 -0.77466994528E+02  0.14550745572E+03  0.12700000000E+01 0.  1.
         -4    1    3    3    0  501 -0.16996896207E+02  0.32160008439E+02 -0.16694323820E+02  0.40043401095E+02  0.12700000000E+01 0.  1.
          2    1    1    2  502    0  0.95010963790E+01 -0.35889679511E+02 -0.53865811086E+02  0.65420681224E+02  0.00000000000E+00 0. -1.
          2    1    1    2  503    0  0.39625033625E+02  0.12263040220E+03  0.11964278669E+04  0.12033486608E+04  0.00000000000E+00 0. -1.
<mgrwt>
<rscale>  0 0.68968065E+02</rscale>
<asrwt>0</asrwt>
<pdfrwt beam="1">  1        2 0.19251699E+00 0.12812029E+03</pdfrwt>
<pdfrwt beam="2">  1        2 0.31224575E-01 0.37126001E+02</pdfrwt>
<totfact> 0.48868389E+02</totfact>
</mgrwt>
</event>
<event>
 7    1  0.4251803E-004  0.6081147E+02  0.7546771E-02  0.1516119E+00
          1   -1    0    0  503    0  0.00000000000E+00  0.00000000000E+00  0.31156042170E+04  0.31156042170E+04  0.00000000000E+00 0. -1.
         -2   -1    0    0    0  501 -0.00000000000E+00 -0.00000000000E+00 -0.48944003167E+01  0.48944003167E+01  0.00000000000E+00 0.  1.
         25    2    1    2    0    0  0.51719566586E+01  0.64875695901E+02  0.16079667126E+04  0.16141308071E+04  0.12500283417E+03 0.  0.
          4    1    3    3  502    0  0.25139767354E+02  0.98052649733E+02  0.12421215711E+04  0.12462399208E+04  0.12700000000E+01 0.  1.
         -4    1    3    3    0  502 -0.19967810696E+02 -0.33176953832E+02  0.36584514157E+03  0.36789088632E+03  0.12700000000E+01 0.  1.
          1    1    1    2  503    0 -0.23869266930E+02 -0.72353021090E+01  0.94742922206E+03  0.94775747020E+03  0.00000000000E+00 0. -1.
         -2    1    1    2    0  501  0.18697310271E+02 -0.57640393792E+02  0.55531388199E+03  0.55861033999E+03  0.00000000000E+00 0.  1.
<mgrwt>
<rscale>  0 0.38945413E+02</rscale>
<asrwt>0</asrwt>
<pdfrwt beam="1">  1        1 0.47932214E+00 0.24941762E+02</pdfrwt>
<pdfrwt beam="2">  1       -2 0.75298715E-03 0.60811468E+02</pdfrwt>
<totfact> 0.20712776E+03</totfact>
</mgrwt>
</event>
<event>
 7    1  0.4251803E-004  0.4521692E+02  0.7546771E-02  0.1530498E+00
          2   -1    0    0  503    0  0.00000000000E+00  0.00000000000E+00  0.32711009806E+02  0.32711009806E+02  0.00000000000E+00 0. -1.
         -1   -1    0    0    0  501 -0.00000000000E+00 -0.00000000000E+00 -0.75258647218E+03  0.75258647218E+03  0.00000000000E+00 0.  1.
         25    2    1    2    0    0  0.34951537300E+02  0.43835596812E+02 -0.64358017657E+03  0.65800046742E+03  0.12500400771E+03 0.  0.
          4    1    3    3  502    0  0.59441230032E+02  0.74274206351E+02 -0.51087680360E+03  0.51966011865E+03  0.12700000000E+01 0.  1.
         -4    1    3    3    0  502 -0.24489692733E+02 -0.30438609538E+02 -0.13270337297E+03  0.13834034877E+03  0.12700000000E+01 0.  1.
          2    1    1    2  503    0 -0.42788665522E+02 -0.14378556205E+02 -0.21037063025E-02  0.45139924459E+02  0.00000000000E+00 0. -1.
         -1    1    1    2    0  501  0.78371282226E+01 -0.29457040608E+02 -0.76293182100E+02  0.82157090109E+02  0.00000000000E+00 0.  1.
<mgrwt>
<rscale>  0 0.37125349E+02</rscale>
<asrwt>0</asrwt>
<pdfrwt beam="1">  1        2 0.50324633E-02 0.45216925E+02</pdfrwt>
<pdfrwt beam="2">  1       -1 0.11578253E+00 0.30481762E+02</pdfrwt>
<totfact> 0.12172211E+03</totfact>
</mgrwt>
</event>
<event>
 7    1  0.4251803E-004  0.9669099E+02  0.7546771E-02  0.1359765E+00
          2   -1    0    0  503    0  0.00000000000E+00  0.00000000000E+00  0.12374551093E+04  0.12374551093E+04  0.00000000000E+00 0. -1.
         -1   -1    0    0    0  501 -0.00000000000E+00 -0.00000000000E+00 -0.24757308783E+02  0.24757308783E+02  0.00000000000E+00 0.  1.
         25    2    1    2    0    0  0.30080870744E+02  0.11123567632E+03  0.36481879016E+03  0.40248861198E+03  0.12500439450E+03 0.  0.
          4    1    3    3  502    0  0.54703468546E+02 -0.13741026275E+01  0.11754595218E+03  0.12966503539E+03  0.12700000000E+01 0.  1.
         -4    1    3    3    0  502 -0.24622597802E+02  0.11260977895E+03  0.24727283799E+03  0.27282357659E+03  0.12700000000E+01 0.  1.
          2    1    1    2  503    0 -0.41398641543E+02 -0.29470257813E+02  0.48081592704E+03  0.48349384620E+03  0.00000000000E+00 0. -1.
         -1    1    1    2    0  501  0.11317770799E+02 -0.81765418509E+02  0.36706308336E+03  0.37622995995E+03  0.00000000000E+00 0.  1.
<mgrwt>
<rscale>  0 0.70096529E+02</rscale>
<asrwt>0</asrwt>
<pdfrwt beam="1">  1        2 0.19037766E+00 0.50816765E+02</pdfrwt>
<pdfrwt beam="2">  1       -1 0.38088177E-02 0.96690992E+02</pdfrwt>
<totfact> 0.57898689E+03</totfact>
</mgrwt>
</event>
<event>
 7    1  0.4251803E-004  0.3837385E+02  0.7546771E-02  0.1529276E+00
          2   -1    0    0  503    0  0.00000000000E+00  0.00000000000E+00  0.23133931078E+04  0.23133931078E+04  0.00000000000E+00 0. -1.
         -1   -1    0    0    0  501 -0.00000000000E+00 -0.00000000000E+00 -0.47310033271E+01  0.47310033271E+01  0.00000000000E+00 0.  1.
         25    2    1    2    0    0  0.77940277220E+00 -0.19521763200E+02  0.13294663991E+04  0.13354729152E+04  0.12500117727E+03 0.  0.
          4    1    3    3  502    0 -0.49730630727E+02 -0.38722322364E+01  0.10411336902E+04  0.10423286926E+04  0.12700000000E+01 0.  1.
         -4    1    3    3    0  502  0.50510033499E+02 -0.15649530964E+02  0.28833270891E+03  0.29314422258E+03  0.12700000000E+01 0.  1.
          2    1    1    2  503    0 -0.35697997588E+02  0.29098969635E+02  0.56850002874E+03  0.57036249854E+03  0.00000000000E+00 0. -1.
         -1    1    1    2    0  501  0.34918594816E+02 -0.95772064350E+01  0.41069567667E+03  0.41228869737E+03  0.00000000000E+00 0.  1.
<mgrwt>
<rscale>  0 0.37275280E+02</rscale>
<asrwt>0</asrwt>
<pdfrwt beam="1">  1        2 0.35590573E+00 0.38373846E+02</pdfrwt>
<pdfrwt beam="2">  1       -1 0.72784851E-03 0.36208164E+02</pdfrwt>
<totfact> 0.15496568E+04</totfact>
</mgrwt>
</event>
<event>
 7    1  0.4251803E-004  0.1093996E+03  0.7546771E-02  0.1370106E+00
          1   -1    0    0  503    0  0.00000000000E+00  0.00000000000E+00  0.21714680977E+03  0.21714680977E+03  0.00000000000E+00 0. -1.
         -2   -1    0    0    0  501 -0.00000000000E+00 -0.00000000000E+00 -0.60627388806E+03  0.60627388806E+03  0.00000000000E+00 0.  1.
         25    2    1    2    0    0  0.50906160810E+02  0.60471782094E+02  0.14818338300E+03  0.20936006146E+03  0.12500018680E+03 0.  0.
          4    1    3    3  502    0  0.33339180760E+02  0.47496125996E+02  0.16928853787E+03  0.17896257964E+03  0.12700000000E+01 0.  1.
         -4    1    3    3    0  502  0.17566980049E+02  0.12975656098E+02 -0.21105154866E+02  0.30397481822E+02  0.12700000000E+01 0.  1.
          1    1    1    2  503    0  0.41199846310E+02  0.42104011656E+00  0.20083251765E+02  0.45836029629E+02  0.00000000000E+00 0. -1.
         -2    1    1    2    0  501 -0.92106007119E+02 -0.60892822211E+02 -0.55739371306E+03  0.56822460673E+03  0.00000000000E+00 0.  1.
<mgrwt>
<rscale>  0 0.67137776E+02</rscale>
<asrwt>0</asrwt>
<pdfrwt beam="1">  1        1 0.33407202E-01 0.41201998E+02</pdfrwt>
<pdfrwt beam="2">  1       -2 0.93272905E-01 0.10939957E+03</pdfrwt>
<totfact> 0.11761224E+02</totfact>
</mgrwt>
</event>
<event>
 7    1  0.4251803E-004  0.6700259E+02  0.7546771E-02  0.1390593E+00
          2   -1    0    0  503    0  0.00000000000E+00  0.00000000000E+00  0.43694859479E+03  0.43694859479E+03  0.00000000000E+00 0. -1.
         -2   -1    0    0    0  501 -0.00000000000E+00 -0.00000000000E+00 -0.17425506398E+03  0.17425506398E+03  0.00000000000E+00 0.  1.
         25    2    1    2    0    0  0.73067149431E+02 -0.55527729347E+02  0.62461626525E+02  0.16719707476E+03  0.12502507735E+03 0.  0.
          4    1    3    3  502    0 -0.12738910676E+02 -0.66533213892E+02  0.18951848908E+02  0.70354345090E+02  0.12700000000E+01 0. -1.
         -4    1    3    3    0  502  0.85806060108E+02  0.11005484545E+02  0.43509777617E+02  0.96842729668E+02  0.12700000000E+01 0. -1.
          2    1    1    2  503    0 -0.16834548686E+02  0.64388365064E+02  0.31176306949E+03  0.31878750773E+03  0.00000000000E+00 0. -1.
         -2    1    1    2    0  501 -0.56232600745E+02 -0.88606357168E+01 -0.11153116520E+03  0.12521907628E+03  0.00000000000E+00 0.  1.
<mgrwt>
<rscale>  0 0.61759348E+02</rscale>
<asrwt>0</asrwt>
<pdfrwt beam="1">  1        2 0.67222861E-01 0.67002591E+02</pdfrwt>
<pdfrwt beam="2">  1       -2 0.26808471E-01 0.56926411E+02</pdfrwt>
<totfact> 0.88792784E+02</totfact>
</mgrwt>
</event>
<event>
 7    1  0.4251803E-004  0.1078474E+03  0.7546771E-02  0.1283347E+00
         -2   -1    0    0    0  501 -0.00000000000E+00  0.00000000000E+00  0.11404979320E+03  0.11404979320E+03  0.00000000000E+00 0.  1.
          1   -1    0    0  503    0  0.00000000000E+00 -0.00000000000E+00 -0.62002725097E+03  0.62002725097E+03  0.00000000000E+00 0. -1.
         25    2    1    2    0    0  0.14331674393E+02  0.77498886463E+02 -0.11167052581E+03  0.18522068267E+03  0.12499968264E+03 0.  0.
          4    1    3    3  502    0  0.33050929109E+02  0.10694498375E+03 -0.75988201823E+02  0.13529749880E+03  0.12700000000E+01 0.  1.
         -4    1    3    3    0  502 -0.18719254716E+02 -0.29446097291E+02 -0.35682323985E+02  0.49923183871E+02  0.12700000000E+01 0.  1.
          1    1    1    2  503    0  0.89800091669E+02 -0.70677459598E+01 -0.41215346335E+03  0.42188207695E+03  0.00000000000E+00 0. -1.
         -2    1    1    2    0  501 -0.10413176606E+03 -0.70431140503E+02  0.17846531394E+02  0.12697428456E+03  0.00000000000E+00 0.  1.
<mgrwt>
<rscale>  0 0.98562952E+02</rscale>
<asrwt>0</asrwt>
<pdfrwt beam="2">  1        1 0.95388809E-01 0.90077797E+02</pdfrwt>
<pdfrwt beam="1">  1       -2 0.17546122E-01 0.10784739E+03</pdfrwt>
<totfact> 0.78125015E+02</totfact>
</mgrwt>
</event>
<event>
 7    1  0.4251803E-004  0.4836499E+02  0.7546771E-02  0.1455468E+00
          2   -1    0    0  502    0  0.00000000000E+00  0.00000000000E+00  0.49622281671E+02  0.49622281671E+02  0.00000000000E+00 0. -1.
          1   -1    0    0  503    0 -0.00000000000E+00 -0.00000000000E+00 -0.18342862810E+04  0.18342862810E+04  0.00000000000E+00 0. -1.
         25    2    1    2    0    0 -0.54235070065E+01 -0.20131341162E+00 -0.16065419046E+03  0.20362852812E+03  0.12500141439E+03 0.  0.
          4    1    3    3  501    0 -0.16195563880E+02  0.20911979452E+02  0.12197445723E+02  0.29154720993E+02  0.12700000000E+01 0. -1.
         -4    1    3    3    0  501  0.10772056874E+02 -0.21113292864E+02 -0.17285163618E+03  0.17447380713E+03  0.12700000000E+01 0. -1.
          2    1    1    2  502    0  0.80705911034E+00 -0.48358258310E+02  0.67123002365E+01  0.48828551747E+02  0.00000000000E+00 0. -1.
          1    1    1    2  503    0  0.46164478962E+01  0.48559571722E+02 -0.16307221092E+04  0.16314514828E+04  0.00000000000E+00 0. -1.
<mgrwt>
<rscale>  0 0.48170326E+02</rscale>
<asrwt>0</asrwt>
<pdfrwt beam="1">  1        2 0.76341978E-02 0.48364992E+02</pdfrwt>
<pdfrwt beam="2">  1        1 0.28219787E+00 0.47976443E+02</pdfrwt>
<totfact> 0.56968322E+02</totfact>
</mgrwt>
</event>
<event>
 7    1  0.4251803E-004  0.8473727E+02  0.7546771E-02  0.1336414E+00
         -3   -1    0    0    0  501 -0.00000000000E+00  0.00000000000E+00  0.40680633648E+03  0.40680633648E+03  0.00000000000E+00 0.  1.
          1   -1    0    0  503    0  0.00000000000E+00 -0.00000000000E+00 -0.43864322758E+03  0.43864322758E+03  0.00000000000E+00 0. -1.
         25    2    1    2    0    0  0.41108661343E+02  0.10366718718E+03 -0.15603998722E+03  0.22893232171E+03  0.12499889030E+03 0.  0.
          4    1    3    3  502    0 -0.29444171399E+02  0.85355616841E+02 -0.60244509772E+02  0.10855208157E+03  0.12700000000E+01 0. -1.
         -4    1    3    3    0  502  0.70552832742E+02  0.18311570343E+02 -0.95795477451E+02  0.12038024014E+03  0.12700000000E+01 0. -1.
          1    1    1    2  503    0 -0.66961151910E+02 -0.23027917220E+02 -0.23605161783E+03  0.24644359825E+03  0.00000000000E+00 0. -1.
         -3    1    1    2    0  501  0.25852490567E+02 -0.80639269964E+02  0.36025471396E+03  0.37007364410E+03  0.00000000000E+00 0.  1.
<mgrwt>
<rscale>  0 0.77461350E+02</rscale>
<asrwt>0</asrwt>
<pdfrwt beam="2">  1        1 0.67483573E-01 0.70810175E+02</pdfrwt>
<pdfrwt beam="1">  1       -3 0.62585590E-01 0.84737267E+02</pdfrwt>
<totfact> 0.72887471E+01</totfact>
</mgrwt>
</event>
<event>
 7    1  0.4251803E-004  0.9429078E+02  0.7546771E-02  0.1370562E+00
         -1   -1    0    0    0  501 -0.00000000000E+00  0.00000000000E+00  0.28461186262E+02  0.28461186262E+02  0.00000000000E+00 0.  1.
          2   -1    0    0  503    0  0.00000000000E+00 -0.00000000000E+00 -0.96200778644E+03  0.96200778644E+03  0.00000000000E+00 0. -1.
         25    2    1    2    0    0 -0.96526033384E+02  0.84769365530E+02 -0.46607800469E+03  0.49935733012E+03  0.12500366490E+03 0.  0.
          4    1    3    3  502    0 -0.41224598121E+02  0.16907196879E+02 -0.35565558257E+03  0.35843803803E+03  0.12700000000E+01 0.  1.
         -4    1    3    3    0  502 -0.55301435263E+02  0.67862168651E+02 -0.11042242212E+03  0.14091929209E+03  0.12700000000E+01 0.  1.
          2    1    1    2  503    0  0.41495985050E+02 -0.23369198736E+02 -0.30728132983E+03  0.31094991861E+03  0.00000000000E+00 0. -1.
         -1    1    1    2    0  501  0.55030048335E+02 -0.61400166794E+02 -0.16018726566E+03  0.18016172397E+03  0.00000000000E+00 0.  1.
<mgrwt>
<rscale>  0 0.67011155E+02</rscale>
<asrwt>0</asrwt>
<pdfrwt beam="2">  1        2 0.14800120E+00 0.47623904E+02</pdfrwt>
<pdfrwt beam="1">  1       -1 0.43786440E-02 0.94290776E+02</pdfrwt>
<totfact> 0.66904473E+03</totfact>
</mgrwt>
</event>
<event>
 7    1  0.4251803E-004  0.6778160E+02  0.7546771E-02  0.1521194E+00
          1   -1    0    0  502    0  0.00000000000E+00  0.00000000000E+00  0.11923059668E+04  0.11923059668E+04  0.00000000000E+00 0. -1.
          1   -1    0    0  503    0 -0.00000000000E+00 -0.00000000000E+00 -0.25943801409E+02  0.25943801409E+02  0.00000000000E+00 0. -1.
         25    2    1    2    0    0  0.84346891534E+02 -0.10712415114E+02  0.35957462959E+03  0.39006175025E+03  0.12500040325E+03 0.  0.
          4    1    3    3  501    0  0.15114277450E+02  0.53962569136E+02  0.14710307364E+03  0.15742086083E+03  0.12700000000E+01 0.  1.
         -4    1    3    3    0  501  0.69232614084E+02 -0.64674984251E+02  0.21247155595E+03  0.23264088942E+03  0.12700000000E+01 0.  1.
          1    1    1    2  502    0 -0.21454493023E+02  0.27412418477E+01  0.72198318647E+03  0.72230708928E+03  0.00000000000E+00 0. -1.
          1    1    1    2  503    0 -0.62892398511E+02  0.79711732667E+01  0.84804349349E+02  0.10588092870E+03  0.00000000000E+00 0. -1.
<mgrwt>
<rscale>  0 0.38288927E+02</rscale>
<asrwt>0</asrwt>
<pdfrwt beam="1">  1        1 0.18343165E+00 0.21628908E+02</pdfrwt>
<pdfrwt beam="2">  1        1 0.39913550E-02 0.67781597E+02</pdfrwt>
<totfact> 0.33783605E+03</totfact>
</mgrwt>
</event>
<event>
 7    1  0.4251803E-004  0.7495828E+02  0.7546771E-02  0.1488569E+00
          2   -1    0    0  502    0  0.00000000000E+00  0.00000000000E+00  0.10238097941E+04  0.10238097941E+04  0.00000000000E+00 0.  1.
          1   -1    0    0  503    0 -0.00000000000E+00 -0.00000000000E+00 -0.18556641042E+02  0.18556641042E+02  0.00000000000E+00 0.  1.
         25    2    1    2    0    0  0.29351206014E+02  0.50368526875E+02  0.61166570811E+03  0.62703350187E+03  0.12505035863E+03 0.  0.
          4    1    3    3  501    0  0.53412836023E+02  0.93291433053E+01  0.10539874879E+03  0.11853469160E+03  0.12700000000E+01 0. -1.
         -4    1    3    3    0  501 -0.24061630009E+02  0.41039383570E+02  0.50626695932E+03  0.50849881027E+03  0.12700000000E+01 0. -1.
          2    1    1    2  502    0 -0.26841336413E+01  0.24289113167E+02  0.25101505868E+03  0.25220175510E+03  0.00000000000E+00 0.  1.
          1    1    1    2  503    0 -0.26667072372E+02 -0.74657640042E+02  0.14257238626E+03  0.16313117816E+03  0.00000000000E+00 0.  1.
<mgrwt>
<rscale>  0 0.42798988E+02</rscale>
<asrwt>0</asrwt>
<pdfrwt beam="1">  1        2 0.15750916E+00 0.24436972E+02</pdfrwt>
<pdfrwt beam="2">  1        1 0.28548686E-02 0.74958281E+02</pdfrwt>
<totfact> 0.12440213E+04</totfact>
</mgrwt>
</event>
<event>
 7    1  0.4251803E-004  0.1294711E+03  0.7546771E-02  0.1436847E+00
          2   -1    0    0  502    0  0.00000000000E+00  0.00000000000E+00  0.15142294435E+04  0.15142294435E+04  0.00000000000E+00 0. -1.
          1   -1    0    0  503    0 -0.00000000000E+00 -0.00000000000E+00 -0.53432505660E+03  0.53432505660E+03  0.00000000000E+00 0. -1.
         25    2    1    2    0    0  0.12301012020E+03  0.73448869496E+02  0.13656840200E+04  0.13788559600E+04  0.12499875941E+03 0.  0.
          4    1    3    3  501    0  0.36311575102E+02 -0.98051044482E+01  0.78290687338E+03  0.78381085463E+03  0.12700000000E+01 0. -1.
         -4    1    3    3    0  501  0.86698545097E+02  0.83253973944E+02  0.58277714661E+03  0.59504510536E+03  0.12700000000E+01 0. -1.
          2    1    1    2  502    0 -0.52133284587E+01 -0.19901301424E+02  0.13322635693E+03  0.13480542560E+03  0.00000000000E+00 0. -1.
          1    1    1    2  503    0 -0.11779679174E+03 -0.53547568072E+02 -0.51900599005E+03  0.53489311446E+03  0.00000000000E+00 0. -1.
<mgrwt>
<rscale>  0 0.51609935E+02</rscale>
<asrwt>0</asrwt>
<pdfrwt beam="1">  1        2 0.23295837E+00 0.20572812E+02</pdfrwt>
<pdfrwt beam="2">  1        1 0.82203856E-01 0.12947114E+03</pdfrwt>
<totfact> 0.96603801E+01</totfact>
</mgrwt>
</event>
<event>
 7    1  0.4251803E-004  0.1607039E+03  0.7546771E-02  0.1332598E+00
          2   -1    0    0  502    0  0.00000000000E+00  0.00000000000E+00  0.11874996487E+04  0.11874996487E+04  0.00000000000E+00 0. -1.
          1   -1    0    0  503    0 -0.00000000000E+00 -0.00000000000E+00 -0.15369927287E+04  0.15369927287E+04  0.00000000000E+00 0. -1.
         25    2    1    2    0    0  0.14927632761E+03  0.12763401627E+03 -0.17504475579E+03  0.29127271587E+03  0.12500105753E+03 0.  0.
          4    1    3    3  501    0  0.14909000532E+03  0.12846244130E+03 -0.19158757870E+03  0.27465950143E+03  0.12700000000E+01 0.  1.
         -4    1    3    3    0  501  0.18632229037E+00 -0.82842502685E+00  0.16542822914E+02  0.16613214439E+02  0.12700000000E+01 0.  1.
          2    1    1    2  502    0 -0.12846815661E+03 -0.95119175835E+02  0.11234411411E+04  0.11347562392E+04  0.00000000000E+00 0. -1.
          1    1    1    2  503    0 -0.20808171004E+02 -0.32514840440E+02 -0.12978894653E+04  0.12984634223E+04  0.00000000000E+00 0. -1.
<mgrwt>
<rscale>  0 0.78763319E+02</rscale>
<asrwt>0</asrwt>
<pdfrwt beam="1">  1        2 0.18269225E+00 0.16070393E+03</pdfrwt>
<pdfrwt beam="2">  1        1 0.23646042E+00 0.38603042E+02</pdfrwt>
<totfact> 0.23675709E+01</totfact>
</mgrwt>
</event>
<event>
 7    1  0.4251803E-004  0.8689781E+02  0.7546771E-02  0.1359851E+00
          1   -1    0    0  503    0  0.00000000000E+00  0.00000000000E+00  0.50326332777E+02  0.50326332777E+02  0.00000000000E+00 0. -1.
          1   -1    0    0  502    0 -0.00000000000E+00 -0.00000000000E+00 -0.21119191125E+04  0.21119191125E+04  0.00000000000E+00 0. -1.
         25    2    1    2    0    0 -0.10383817114E+03  0.28968415607E+02 -0.39130905060E+03  0.42470120637E+03  0.12500722666E+03 0.  0.
          4    1    3    3  501    0 -0.13311833032E+03  0.22613466977E+02 -0.32417575528E+03  0.35117430425E+03  0.12700000000E+01 0.  1.
         -4    1    3    3    0  501  0.29280159178E+02  0.63549486305E+01 -0.67133295322E+02  0.73526902114E+02  0.12700000000E+01 0.  1.
          1    1    1    2  502    0  0.58947574029E+02 -0.63281653683E+02 -0.16782550900E+04  0.16804819343E+04  0.00000000000E+00 0. -1.
          1    1    1    2  503    0  0.44890597114E+02  0.34313238076E+02  0.79713609113E+01  0.57062304644E+02  0.00000000000E+00 0. -1.
<mgrwt>
<rscale>  0 0.70071161E+02</rscale>
<asrwt>0</asrwt>
<pdfrwt beam="1">  1        1 0.77425144E-02 0.56502779E+02</pdfrwt>
<pdfrwt beam="2">  1        1 0.32491056E+00 0.86897809E+02</pdfrwt>
<totfact> 0.31864339E+02</totfact>
</mgrwt>
</event>
<event>
 7    1  0.5219855E-004  0.5065658E+03  0.7546771E-02  0.1012079E+00
          2   -1    0    0  503    0  0.00000000000E+00  0.00000000000E+00  0.61025963393E+03  0.61025963393E+03  0.00000000000E+00 0. -1.
         -1   -1    0    0    0  501 -0.00000000000E+00 -0.00000000000E+00 -0.10512283966E+03  0.10512283966E+03  0.00000000000E+00 0.  1.
         25    2    1    2    0    0  0.10739238460E+03  0.18216012294E+03  0.13190579290E+03  0.27881751276E+03  0.12499853024E+03 0.  0.
          4    1    3    3  502    0  0.12968741919E+03  0.12887930475E+03  0.74684930946E+02  0.19750481943E+03  0.12700000000E+01 0.  1.
         -4    1    3    3    0  502 -0.22295034582E+02  0.53280818191E+02  0.57220861955E+02  0.81312693332E+02  0.12700000000E+01 0.  1.
          2    1    1    2  503    0 -0.71133605152E+02 -0.12432782171E+03  0.31795959557E+03  0.34873442826E+03  0.00000000000E+00 0. -1.
         -1    1    1    2    0  501 -0.36258779452E+02 -0.57832301233E+02  0.55271405800E+02  0.87830532575E+02  0.00000000000E+00 0.  1.
<mgrwt>
<rscale>  0 0.50656579E+03</rscale>
<asrwt>0</asrwt>
<pdfrwt beam="1">  1        2 0.93886095E-01 0.50656579E+03</pdfrwt>
<pdfrwt beam="2">  1       -1 0.16172745E-01 0.50656579E+03</pdfrwt>
<totfact> 0.16081742E+03</totfact>
</mgrwt>
</event>
<event>
 7    1  0.4251803E-004  0.4589711E+02  0.7546771E-02  0.1496929E+00
         -2   -1    0    0    0  501 -0.00000000000E+00  0.00000000000E+00  0.13298500577E+02  0.13298500577E+02  0.00000000000E+00 0.  1.
          1   -1    0    0  503    0  0.00000000000E+00 -0.00000000000E+00 -0.93069124929E+03  0.93069124929E+03  0.00000000000E+00 0. -1.
         25    2    1    2    0    0  0.35340852812E+02 -0.87354701897E+01 -0.46055036989E+03  0.47859582696E+03  0.12498815169E+03 0.  0.
          4    1    3    3  502    0 -0.30315421556E+02 -0.75779830850E+00 -0.28912493187E+02  0.41918303934E+02  0.12700000000E+01 0.  1.
         -4    1    3    3    0  502  0.65656274368E+02 -0.79776718812E+01 -0.43163787670E+03  0.43667752303E+03  0.12700000000E+01 0.  1.
          1    1    1    2  503    0 -0.42448267539E+02 -0.28248065631E+02 -0.27634236199E+03  0.28100695660E+03  0.00000000000E+00 0. -1.
         -2    1    1    2    0  501  0.71074147265E+01  0.36983535820E+02 -0.18050001684E+03  0.18438696631E+03  0.00000000000E+00 0.  1.
<mgrwt>
<rscale>  0 0.41575212E+02</rscale>
<asrwt>0</asrwt>
<pdfrwt beam="2">  1        1 0.14318328E+00 0.45897108E+02</pdfrwt>
<pdfrwt beam="1">  1       -2 0.20459231E-02 0.37660288E+02</pdfrwt>
<totfact> 0.10141910E+04</totfact>
</mgrwt>
</event>
<event>
 7    1  0.4251803E-004  0.1361221E+03  0.7546771E-02  0.1228478E+00
          2   -1    0    0  502    0  0.00000000000E+00  0.00000000000E+00  0.20392998377E+04  0.20392998377E+04  0.00000000000E+00 0. -1.
          2   -1    0    0  503    0 -0.00000000000E+00 -0.00000000000E+00 -0.29128454002E+02  0.29128454002E+02  0.00000000000E+00 0. -1.
         25    2    1    2    0    0  0.93345714171E+02 -0.16093298393E+02  0.63664083230E+03  0.65567558185E+03  0.12500601052E+03 0.  0.
          4    1    3    3  501    0  0.10957140058E+03  0.23330298782E+02  0.40863932350E+03  0.42371913371E+03  0.12700000000E+01 0.  1.
         -4    1    3    3    0  501 -0.16225686405E+02 -0.39423597175E+02  0.22800150881E+03  0.23195644814E+03  0.12700000000E+01 0.  1.
          2    1    1    2  502    0 -0.12002654078E+03  0.13600611908E+03  0.10706526767E+04  0.10859103043E+04  0.00000000000E+00 0. -1.
          2    1    1    2  503    0  0.26680826606E+02 -0.11991282069E+03  0.30287787471E+03  0.32684240554E+03  0.00000000000E+00 0. -1.
<mgrwt>
<rscale>  0 0.12931339E+03</rscale>
<asrwt>0</asrwt>
<pdfrwt beam="1">  1        2 0.31373833E+00 0.13612211E+03</pdfrwt>
<pdfrwt beam="2">  1        2 0.44813022E-02 0.12284523E+03</pdfrwt>
<totfact> 0.19993011E+03</totfact>
</mgrwt>
</event>
<event>
 7    1  0.4251803E-004  0.5995138E+02  0.7546771E-02  0.1548114E+00
          2   -1    0    0  503    0  0.00000000000E+00  0.00000000000E+00  0.10121934280E+04  0.10121934280E+04  0.00000000000E+00 0. -1.
         -2   -1    0    0    0  501 -0.00000000000E+00 -0.00000000000E+00 -0.67629490238E+03  0.67629490238E+03  0.00000000000E+00 0.  1.
         25    2    1    2    0    0 -0.46228916770E+02  0.26411021380E+02  0.19337507949E+03  0.23633391136E+03  0.12500056599E+03 0.  0.
          4    1    3    3  502    0 -0.21204213379E+02  0.35893268366E+02  0.20347247934E+03  0.20770317313E+03  0.12700000000E+01 0. -1.
         -4    1    3    3    0  502 -0.25024703391E+02 -0.94822469853E+01 -0.10097399856E+02  0.28630738230E+02  0.12700000000E+01 0. -1.
          2    1    1    2  503    0  0.39505779868E+02 -0.45774374185E+02  0.79603170322E+03  0.79832479136E+03  0.00000000000E+00 0. -1.
         -2    1    1    2    0  501  0.67231369027E+01  0.19363352804E+02 -0.65350825706E+03  0.65382962769E+03  0.00000000000E+00 0.  1.
<mgrwt>
<rscale>  0 0.35054849E+02</rscale>
<asrwt>0</asrwt>
<pdfrwt beam="1">  1        2 0.15572207E+00 0.59951380E+02</pdfrwt>
<pdfrwt beam="2">  1       -2 0.10404537E+00 0.20497317E+02</pdfrwt>
<totfact> 0.23685433E+01</totfact>
</mgrwt>
</event>
<event>
 7    1  0.4251803E-004  0.2974048E+03  0.7546771E-02  0.1251363E+00
          2   -1    0    0  502    0  0.00000000000E+00  0.00000000000E+00  0.22547247978E+04  0.22547247978E+04  0.00000000000E+00 0. -1.
          1   -1    0    0  503    0 -0.00000000000E+00 -0.00000000000E+00 -0.13722325069E+04  0.13722325069E+04  0.00000000000E+00 0. -1.
         25    2    1    2    0    0 -0.10044651040E+03  0.25050468329E+03  0.11527223113E+03  0.31898892129E+03  0.12499658729E+03 0.  0.
          4    1    3    3  501    0 -0.63759297681E+02  0.17771792806E+03  0.14496151358E+02  0.18936911390E+03  0.12700000000E+01 0. -1.
         -4    1    3    3    0  501 -0.36687212719E+02  0.72786755233E+02  0.10077607977E+03  0.12961980739E+03  0.12700000000E+01 0. -1.
          2    1    1    2  502    0 -0.42650129133E+02  0.12922944411E+02  0.20196591061E+04  0.20201507223E+04  0.00000000000E+00 0. -1.
          1    1    1    2  503    0  0.14309663953E+03 -0.26342762770E+03 -0.12524390464E+04  0.12878176611E+04  0.00000000000E+00 0. -1.
<mgrwt>
<rscale>  0 0.11512530E+03</rscale>
<asrwt>0</asrwt>
<pdfrwt beam="1">  1        2 0.34688074E+00 0.44564964E+02</pdfrwt>
<pdfrwt beam="2">  1        1 0.21111269E+00 0.29740482E+03</pdfrwt>
<totfact> 0.81051332E+00</totfact>
</mgrwt>
</event>
<event>
 7    1  0.4251803E-004  0.4776473E+02  0.7546771E-02  0.1465274E+00
          1   -1    0    0  503    0  0.00000000000E+00  0.00000000000E+00  0.26274172433E+02  0.26274172433E+02  0.00000000000E+00 0. -1.
         -1   -1    0    0    0  501 -0.00000000000E+00 -0.00000000000E+00 -0.59266758183E+03  0.59266758183E+03  0.00000000000E+00 0.  1.
         25    2    1    2    0    0 -0.17641961519E+02  0.82595903011E+01 -0.37461817808E+03  0.39538522338E+03  0.12494493140E+03 0.  0.
          4    1    3    3  502    0 -0.70813020940E+02  0.15620073516E+02 -0.20324739312E+03  0.21579987567E+03  0.12700000000E+01 0. -1.
         -4    1    3    3    0  502  0.53171059420E+02 -0.73604832153E+01 -0.17137078496E+03  0.17958534771E+03  0.12700000000E+01 0. -1.
          1    1    1    2  503    0 -0.47393552566E+02  0.59431496888E+01 -0.69422266883E+02  0.84266962638E+02  0.00000000000E+00 0. -1.
         -1    1    1    2    0  501  0.65035514086E+02 -0.14202739990E+02 -0.12235296443E+03  0.13928956824E+03  0.00000000000E+00 0.  1.
<mgrwt>
<rscale>  0 0.46485693E+02</rscale>
<asrwt>0</asrwt>
<pdfrwt beam="1">  1        1 0.40421805E-02 0.47764734E+02</pdfrwt>
<pdfrwt beam="2">  1       -1 0.91179626E-01 0.45240901E+02</pdfrwt>
<totfact> 0.24925114E+03</totfact>
</mgrwt>
</event>
<event>
 7    1  0.4251803E-004  0.6718904E+02  0.7546771E-02  0.1487324E+00
         -1   -1    0    0    0  501 -0.00000000000E+00  0.00000000000E+00  0.70329677326E+03  0.70329677326E+03  0.00000000000E+00 0.  1.
          1   -1    0    0  503    0  0.00000000000E+00 -0.00000000000E+00 -0.84523128530E+03  0.84523128530E+03  0.00000000000E+00 0. -1.
         25    2    1    2    0    0  0.61496899138E+02 -0.41929043907E+02  0.77018953344E+02  0.16461321421E+03  0.12500271114E+03 0.  0.
          4    1    3    3  502    0 -0.19393891567E+02  0.37978638627E+00 -0.22384142416E+02  0.29646753608E+02  0.12700000000E+01 0.  1.
         -4    1    3    3    0  502  0.80890790705E+02 -0.42308830293E+02  0.99403095760E+02  0.13496646061E+03  0.12700000000E+01 0.  1.
          1    1    1    2  503    0  0.39596059066E+01  0.27214356682E+02 -0.79926502284E+03  0.79973800486E+03  0.00000000000E+00 0. -1.
         -1    1    1    2    0  501 -0.65456505045E+02  0.14714687224E+02  0.58031155746E+03  0.58417683949E+03  0.00000000000E+00 0.  1.
<mgrwt>
<rscale>  0 0.42985572E+02</rscale>
<asrwt>0</asrwt>
<pdfrwt beam="2">  1        1 0.13003558E+00 0.27500903E+02</pdfrwt>
<pdfrwt beam="1">  1       -1 0.10819950E+00 0.67189043E+02</pdfrwt>
<totfact> 0.21851073E+01</totfact>
</mgrwt>
</event>
<event>
 7    1  0.4251803E-004  0.9630088E+02  0.7546771E-02  0.1372293E+00
          1   -1    0    0  503    0 -0.00000000000E+00  0.00000000000E+00  0.39935044710E+03  0.39935044710E+03  0.00000000000E+00 0. -1.
          2   -1    0    0  502    0  0.00000000000E+00 -0.00000000000E+00 -0.33361831449E+04  0.33361831449E+04  0.00000000000E+00 0. -1.
         25    2    1    2    0    0 -0.40986060822E+02 -0.10075855370E+03 -0.37310500207E+03  0.40824512293E+03  0.12499837799E+03 0.  0.
          4    1    3    3  501    0  0.42252638029E+02 -0.57559028341E+02 -0.14577936951E+03  0.16233165015E+03  0.12700000000E+01 0.  1.
         -4    1    3    3    0  501 -0.83238698851E+02 -0.43199525358E+02 -0.22732563256E+03  0.24591347278E+03  0.12700000000E+01 0.  1.
          2    1    1    2  502    0  0.70448840699E+02  0.65474217567E+02 -0.29433360988E+04  0.29449070109E+04  0.00000000000E+00 0. -1.
          1    1    1    2  503    0 -0.29462779876E+02  0.35284336131E+02  0.37960840314E+03  0.38238145811E+03  0.00000000000E+00 0. -1.
<mgrwt>
<rscale>  0 0.66533755E+02</rscale>
<asrwt>0</asrwt>
<pdfrwt beam="2">  1        2 0.51325894E+00 0.96300876E+02</pdfrwt>
<pdfrwt beam="1">  1        1 0.61438531E-01 0.45967812E+02</pdfrwt>
<totfact> 0.13153553E+01</totfact>
</mgrwt>
</event>
<event>
 7    1  0.5906509E-004  0.7957655E+02  0.7546771E-02  0.1351766E+00
          2   -1    0    0  503    0  0.00000000000E+00  0.00000000000E+00  0.61082727973E+02  0.61082727973E+02  0.00000000000E+00 0. -1.
         -1   -1    0    0    0  501 -0.00000000000E+00 -0.00000000000E+00 -0.40403810704E+03  0.40403810704E+03  0.00000000000E+00 0.  1.
         25    2    1    2    0    0 -0.11689961200E+03  0.92193750269E+01 -0.17608385623E+03  0.24572908743E+03  0.12500697510E+03 0.  0.
          4    1    3    3  502    0 -0.36547658117E+02  0.27136221125E+02  0.59649499461E+01  0.45927108973E+02  0.12700000000E+01 0.  1.
         -4    1    3    3    0  502 -0.80351953884E+02 -0.17916846098E+02 -0.18204880617E+03  0.19980197846E+03  0.12700000000E+01 0.  1.
          2    1    1    2  503    0  0.52333947913E+02 -0.40324760715E+02 -0.52350060549E+02  0.84293874453E+02  0.00000000000E+00 0. -1.
         -1    1    1    2    0  501  0.64565664088E+02  0.31105385688E+02 -0.11452146229E+03  0.13509787312E+03  0.00000000000E+00 0.  1.
<mgrwt>
<rscale>  0 0.72508152E+02</rscale>
<asrwt>0</asrwt>
<pdfrwt beam="1">  1        2 0.93973424E-02 0.66067605E+02</pdfrwt>
<pdfrwt beam="2">  1       -1 0.62159711E-01 0.79576550E+02</pdfrwt>
<totfact> 0.20060882E+03</totfact>
</mgrwt>
</event>
<event>
 7    1  0.4251803E-004  0.4960530E+02  0.7546771E-02  0.1575577E+00
          1   -1    0    0  503    0  0.00000000000E+00  0.00000000000E+00  0.95866815417E+03  0.95866815417E+03  0.00000000000E+00 0. -1.
         -2   -1    0    0    0  501 -0.00000000000E+00 -0.00000000000E+00 -0.11527087545E+02  0.11527087545E+02  0.00000000000E+00 0.  1.
         25    2    1    2    0    0  0.26559537135E+01 -0.33905204371E+02  0.58674610257E+03  0.60087847874E+03  0.12500936109E+03 0.  0.
          4    1    3    3  502    0 -0.13721056200E+02  0.45409942245E+02  0.18032193576E+03  0.18646164124E+03  0.12700000000E+01 0. -1.
         -4    1    3    3    0  502  0.16377009913E+02 -0.79315146616E+02  0.40642416681E+03  0.41441683750E+03  0.12700000000E+01 0. -1.
          1    1    1    2  503    0 -0.38100079018E+00 -0.20819675065E+02  0.16772747918E+03  0.16901512152E+03  0.00000000000E+00 0. -1.
         -2    1    1    2    0  501 -0.22749529233E+01  0.54724879437E+02  0.19266748488E+03  0.20030164145E+03  0.00000000000E+00 0.  1.
<mgrwt>
<rscale>  0 0.32139370E+02</rscale>
<asrwt>0</asrwt>
<pdfrwt beam="1">  1        1 0.14748735E+00 0.20823161E+02</pdfrwt>
<pdfrwt beam="2">  1       -2 0.17733988E-02 0.49605299E+02</pdfrwt>
<totfact> 0.13063249E+04</totfact>
</mgrwt>
</event>
<event>
 7    1  0.4251803E-004  0.8148774E+02  0.7546771E-02  0.1331303E+00
          3   -1    0    0  503    0  0.00000000000E+00  0.00000000000E+00  0.19088573860E+03  0.19088573860E+03  0.00000000000E+00 0. -1.
         -1   -1    0    0    0  501 -0.00000000000E+00 -0.00000000000E+00 -0.57749024461E+03  0.57749024461E+03  0.00000000000E+00 0.  1.
         25    2    1    2    0    0  0.25034953252E+02 -0.29888954723E+01 -0.67884673554E+02  0.14445966285E+03  0.12499833161E+03 0.  0.
          4    1    3    3  502    0  0.60969212956E+02 -0.39206992293E+02 -0.21824050733E+02  0.75712187021E+02  0.12700000000E+01 0.  1.
         -4    1    3    3    0  502 -0.35934259704E+02  0.36218096821E+02 -0.46060622821E+02  0.68747475826E+02  0.12700000000E+01 0.  1.
          3    1    1    2  503    0 -0.63167390222E+02 -0.63905348696E+02  0.13584624547E+03  0.16287484517E+03  0.00000000000E+00 0. -1.
         -1    1    1    2    0  501  0.38132436970E+02  0.66894244168E+02 -0.45456607793E+03  0.46104147520E+03  0.00000000000E+00 0.  1.
<mgrwt>
<rscale>  0 0.79211837E+02</rscale>
<asrwt>0</asrwt>
<pdfrwt beam="1">  1        3 0.29367037E-01 0.81487740E+02</pdfrwt>
<pdfrwt beam="2">  1       -1 0.88844652E-01 0.76999498E+02</pdfrwt>
<totfact> 0.65660970E+01</totfact>
</mgrwt>
</event>
<event>
 7    1  0.4251803E-004  0.4552728E+02  0.7546771E-02  0.1497186E+00
          3   -1    0    0  503    0 -0.00000000000E+00  0.00000000000E+00  0.49718391461E+02  0.49718391461E+02  0.00000000000E+00 0. -1.
          2   -1    0    0  502    0  0.00000000000E+00 -0.00000000000E+00 -0.72559256004E+03  0.72559256004E+03  0.00000000000E+00 0. -1.
         25    2    1    2    0    0 -0.45929926474E+02  0.27577053206E+02 -0.38941372422E+03  0.41247801626E+03  0.12500005311E+03 0.  0.
          4    1    3    3  501    0 -0.67471163287E+02 -0.30484638497E+02 -0.21019731506E+03  0.22285913761E+03  0.12700000000E+01 0. -1.
         -4    1    3    3    0  501  0.21541236814E+02  0.58061691703E+02 -0.17921640917E+03  0.18961887865E+03  0.12700000000E+01 0. -1.
          2    1    1    2  502    0  0.45092786422E+02  0.10312656878E+02 -0.31310607187E+03  0.31650453791E+03  0.00000000000E+00 0. -1.
          3    1    1    2  503    0  0.83714005211E+00 -0.37889710084E+02  0.26645627509E+02  0.46328397328E+02  0.00000000000E+00 0. -1.
<mgrwt>
<rscale>  0 0.41538373E+02</rscale>
<asrwt>0</asrwt>
<pdfrwt beam="2">  1        2 0.11162962E+00 0.45527279E+02</pdfrwt>
<pdfrwt beam="1">  1        3 0.76489837E-02 0.37898957E+02</pdfrwt>
<totfact> 0.23937446E+03</totfact>
</mgrwt>
</event>
<event>
 7    1  0.4251803E-004  0.6465606E+02  0.7546771E-02  0.1420375E+00
          2   -1    0    0  503    0  0.00000000000E+00  0.00000000000E+00  0.21366782684E+04  0.21366782684E+04  0.00000000000E+00 0. -1.
         -2   -1    0    0    0  501 -0.00000000000E+00 -0.00000000000E+00 -0.60381247897E+02  0.60381247897E+02  0.00000000000E+00 0.  1.
         25    2    1    2    0    0 -0.43123729341E+01  0.21566143592E+02  0.16305455358E+04  0.16354776620E+04  0.12499897392E+03 0.  0.
          4    1    3    3  502    0 -0.41108471487E+02  0.46791023517E+02  0.13471251880E+04  0.13485648636E+04  0.12700000000E+01 0.  1.
         -4    1    3    3    0  502  0.36796098553E+02 -0.25224879924E+02  0.28342034778E+03  0.28691279838E+03  0.12700000000E+01 0.  1.
          2    1    1    2  503    0  0.22073664643E+02  0.41139063075E+02  0.48384571305E+03  0.48609293682E+03  0.00000000000E+00 0. -1.
         -2    1    1    2    0  501 -0.17761291708E+02 -0.62705206667E+02 -0.38094228360E+02  0.75488917469E+02  0.00000000000E+00 0.  1.
<mgrwt>
<rscale>  0 0.54941723E+02</rscale>
<asrwt>0</asrwt>
<pdfrwt beam="1">  1        2 0.32871968E+00 0.46686927E+02</pdfrwt>
<pdfrwt beam="2">  1       -2 0.92894244E-02 0.64656064E+02</pdfrwt>
<totfact> 0.52476299E+02</totfact>
</mgrwt>
</event>
<event>
 7    1  0.4293868E-004  0.7197457E+02  0.7546771E-02  0.1418252E+00
         -1   -1    0    0    0  501 -0.00000000000E+00  0.00000000000E+00  0.83786844660E+01  0.83786844660E+01  0.00000000000E+00 0.  1.
          2   -1    0    0  503    0  0.00000000000E+00 -0.00000000000E+00 -0.24636042001E+04  0.24636042001E+04  0.00000000000E+00 0. -1.
         25    2    1    2    0    0 -0.13615465613E+02  0.97921579285E+02 -0.14297660039E+04  0.14386208390E+04  0.12500030371E+03 0.  0.
          4    1    3    3  502    0  0.10131794357E+02  0.79558191387E+02 -0.13635468942E+04  0.13659040613E+04  0.12700000000E+01 0. -1.
         -4    1    3    3    0  502 -0.23747259971E+02  0.18363387898E+02 -0.66219109646E+02  0.72716777662E+02  0.12700000000E+01 0. -1.
          2    1    1    2  503    0 -0.12554113860E+02 -0.64268582100E+02 -0.86032734919E+03  0.86281585763E+03  0.00000000000E+00 0. -1.
         -1    1    1    2    0  501  0.26169579473E+02 -0.33652997185E+02 -0.16513216259E+03  0.17054618797E+03  0.00000000000E+00 0.  1.
<mgrwt>
<rscale>  0 0.55392435E+02</rscale>
<asrwt>0</asrwt>
<pdfrwt beam="2">  1        2 0.37901644E+00 0.71974575E+02</pdfrwt>
<pdfrwt beam="1">  1       -1 0.12890270E-02 0.42630636E+02</pdfrwt>
<totfact> 0.56148768E+03</totfact>
</mgrwt>
</event>
<event>
 7    1  0.4251803E-004  0.1245691E+03  0.7546771E-02  0.1277075E+00
          1   -1    0    0  503    0 -0.00000000000E+00  0.00000000000E+00  0.30369106355E+04  0.30369106355E+04  0.00000000000E+00 0. -1.
          2   -1    0    0  502    0  0.00000000000E+00 -0.00000000000E+00 -0.54035367562E+03  0.54035367562E+03  0.00000000000E+00 0. -1.
         25    2    1    2    0    0 -0.17954825899E+02 -0.17735765061E+03  0.90672012211E+03  0.93249393484E+03  0.12500178667E+03 0.  0.
          4    1    3    3  501    0 -0.44738009998E+01  0.12192028448E+02  0.11712796126E+02  0.17534621357E+02  0.12700000000E+01 0. -1.
         -4    1    3    3    0  501 -0.13481024899E+02 -0.18954967906E+03  0.89500732598E+03  0.91495931348E+03  0.12700000000E+01 0. -1.
          2    1    1    2  502    0 -0.39544541792E+02  0.11780609846E+03 -0.51932459331E+03  0.53398509421E+03  0.00000000000E+00 0. -1.
          1    1    1    2  503    0  0.57499367691E+02  0.59551552149E+02  0.21091614311E+04  0.21107852821E+04  0.00000000000E+00 0. -1.
<mgrwt>
<rscale>  0 0.10154733E+03</rscale>
<asrwt>0</asrwt>
<pdfrwt beam="2">  1        2 0.83131337E-01 0.12456915E+03</pdfrwt>
<pdfrwt beam="1">  1        1 0.46721701E+00 0.82780219E+02</pdfrwt>
<totfact> 0.65833875E+00</totfact>
</mgrwt>
</event>
<event>
 7    1  0.4251803E-004  0.1903818E+03  0.7546771E-02  0.1196636E+00
         -3   -1    0    0    0  501 -0.00000000000E+00  0.00000000000E+00  0.10319365129E+04  0.10319365129E+04  0.00000000000E+00 0.  1.
          1   -1    0    0  503    0  0.00000000000E+00 -0.00000000000E+00 -0.25354592229E+04  0.25354592229E+04  0.00000000000E+00 0. -1.
         25    2    1    2    0    0  0.22743474399E+03 -0.12847738534E+03 -0.52826682805E+02  0.29436094238E+03  0.12499881866E+03 0.  0.
          4    1    3    3  502    0  0.77312134130E+02 -0.59602181885E+02  0.39290121094E+02  0.10523741105E+03  0.12700000000E+01 0. -1.
         -4    1    3    3    0  502  0.15012260986E+03 -0.68875203451E+02 -0.92116803899E+02  0.18912353133E+03  0.12700000000E+01 0. -1.
          1    1    1    2  503    0 -0.10722809258E+03  0.15558322070E+03 -0.23538959299E+04  0.23614677748E+04  0.00000000000E+00 0. -1.
         -3    1    1    2    0  501 -0.12020665141E+03 -0.27105835366E+02  0.90319990265E+03  0.91156701865E+03  0.00000000000E+00 0.  1.
<mgrwt>
<rscale>  0 0.15316584E+03</rscale>
<asrwt>0</asrwt>
<pdfrwt beam="2">  1        1 0.39007064E+00 0.19038183E+03</pdfrwt>
<pdfrwt beam="1">  1       -3 0.15875947E+00 0.12322486E+03</pdfrwt>
<totfact> 0.25697469E-01</totfact>
</mgrwt>
</event>
<event>
 7    1  0.4251803E-004  0.5159933E+02  0.7546771E-02  0.1528912E+00
         -2   -1    0    0    0  501 -0.00000000000E+00  0.00000000000E+00  0.51717297060E+03  0.51717297060E+03  0.00000000000E+00 0.  1.
          1   -1    0    0  503    0  0.00000000000E+00 -0.00000000000E+00 -0.31829156594E+02  0.31829156594E+02  0.00000000000E+00 0. -1.
         25    2    1    2    0    0  0.70122039373E+02  0.52421218989E+01  0.32688885407E+03  0.35696327326E+03  0.12498750056E+03 0.  0.
          4    1    3    3  502    0  0.58517765696E+02 -0.11188358298E+02  0.45814177288E+02  0.75166881032E+02  0.12700000000E+01 0. -1.
         -4    1    3    3    0  502  0.11604273676E+02  0.16430480197E+02  0.28107467678E+03  0.28179639223E+03  0.12700000000E+01 0. -1.
          1    1    1    2  503    0 -0.25036482961E+02  0.10088169267E+02  0.43146213536E+00  0.26995977437E+02  0.00000000000E+00 0. -1.
         -2    1    1    2    0  501 -0.45085556411E+02 -0.15330291166E+02  0.15802349781E+03  0.16504287650E+03  0.00000000000E+00 0.  1.
<mgrwt>
<rscale>  0 0.37320188E+02</rscale>
<asrwt>0</asrwt>
<pdfrwt beam="2">  1        1 0.48967937E-02 0.26992529E+02</pdfrwt>
<pdfrwt beam="1">  1       -2 0.79565066E-01 0.51599330E+02</pdfrwt>
<totfact> 0.17840323E+03</totfact>
</mgrwt>
</event>
<event>
 7    1  0.4251803E-004  0.4533191E+03  0.7546771E-02  0.1026737E+00
          1   -1    0    0  503    0  0.00000000000E+00  0.00000000000E+00  0.12746630442E+03  0.12746630442E+03  0.00000000000E+00 0. -1.
         -2   -1    0    0    0  501 -0.00000000000E+00 -0.00000000000E+00 -0.40304424622E+03  0.40304424622E+03  0.00000000000E+00 0.  1.
         25    2    1    2    0    0  0.15538896343E+03 -0.87588844641E+02 -0.24878511875E+03  0.33066078884E+03  0.12499994521E+03 0.  0.
          4    1    3    3  502    0  0.11255900634E+03 -0.10838104244E+03 -0.13205250889E+03  0.20458606568E+03  0.12700000000E+01 0.  1.
         -4    1    3    3    0  502  0.42829957088E+02  0.20792197795E+02 -0.11673260986E+03  0.12607472316E+03  0.12700000000E+01 0.  1.
          1    1    1    2  503    0 -0.74447353462E+02  0.32134912100E+02  0.30028519838E+02  0.86468335342E+02  0.00000000000E+00 0. -1.
         -2    1    1    2    0  501 -0.80941609965E+02  0.55453932540E+02 -0.56821342891E+02  0.11338142646E+03  0.00000000000E+00 0.  1.
<mgrwt>
<rscale>  0 0.45331914E+03</rscale>
<asrwt>0</asrwt>
<pdfrwt beam="1">  1        1 0.19610201E-01 0.45331914E+03</pdfrwt>
<pdfrwt beam="2">  1       -2 0.62006806E-01 0.45331914E+03</pdfrwt>
<totfact> 0.57139742E+02</totfact>
</mgrwt>
</event>
<event>
 7    1  0.4251803E-004  0.1227805E+03  0.7546771E-02  0.1340667E+00
         -1   -1    0    0    0  501 -0.00000000000E+00  0.00000000000E+00  0.41688621508E+03  0.41688621508E+03  0.00000000000E+00 0.  1.
          2   -1    0    0  503    0  0.00000000000E+00 -0.00000000000E+00 -0.80261080755E+02  0.80261080755E+02  0.00000000000E+00 0. -1.
         25    2    1    2    0    0 -0.17332666908E+02 -0.13799643753E+03  0.24615756342E+03  0.30914740322E+03  0.12504052453E+03 0.  0.
          4    1    3    3  502    0  0.68500018147E+01 -0.11410975959E+02 -0.13664249403E+02  0.19116942981E+02  0.12700000000E+01 0. -1.
         -4    1    3    3    0  502 -0.24182668723E+02 -0.12658546157E+03  0.25982181283E+03  0.29003046024E+03  0.12700000000E+01 0. -1.
          2    1    1    2  503    0 -0.29296739221E+02  0.36877250887E+02  0.44786291966E+01  0.47310555708E+02  0.00000000000E+00 0. -1.
         -1    1    1    2    0  501  0.46629406129E+02  0.10111918664E+03  0.85988941705E+02  0.14068933691E+03  0.00000000000E+00 0.  1.
<mgrwt>
<rscale>  0 0.76044257E+02</rscale>
<asrwt>0</asrwt>
<pdfrwt beam="2">  1        2 0.12347859E-01 0.47098095E+02</pdfrwt>
<pdfrwt beam="1">  1       -1 0.64136340E-01 0.12278053E+03</pdfrwt>
<totfact> 0.13264780E+03</totfact>
</mgrwt>
</event>
<event>
 7    1  0.4251803E-004  0.5772062E+02  0.7546771E-02  0.1499878E+00
         -2   -1    0    0    0  501 -0.00000000000E+00  0.00000000000E+00  0.39252083574E+03  0.39252083574E+03  0.00000000000E+00 0.  1.
          1   -1    0    0  503    0  0.00000000000E+00 -0.00000000000E+00 -0.33708186837E+02  0.33708186837E+02  0.00000000000E+00 0. -1.
         25    2    1    2    0    0 -0.24951017777E+02 -0.40815033055E+02  0.25113538860E+03  0.28457509321E+03  0.12500232021E+03 0.  0.
          4    1    3    3  502    0 -0.50537668218E+02 -0.59590955225E+02  0.85131836762E+02  0.11556028896E+03  0.12700000000E+01 0.  1.
         -4    1    3    3    0  502  0.25586650441E+02  0.18775922171E+02  0.16600355184E+03  0.16901480425E+03  0.12700000000E+01 0.  1.
          1    1    1    2  503    0  0.42745345276E+01  0.61636981388E+02  0.63322298121E+02  0.88470913635E+02  0.00000000000E+00 0. -1.
         -2    1    1    2    0  501  0.20676483249E+02 -0.20821948334E+02  0.44354962178E+02  0.53183015727E+02  0.00000000000E+00 0.  1.
<mgrwt>
<rscale>  0 0.41155243E+02</rscale>
<asrwt>0</asrwt>
<pdfrwt beam="2">  1        1 0.51858752E-02 0.57720621E+02</pdfrwt>
<pdfrwt beam="1">  1       -2 0.60387818E-01 0.29344003E+02</pdfrwt>
<totfact> 0.32036080E+03</totfact>
</mgrwt>
</event>
<event>
 7    1  0.4251803E-004  0.8433436E+02  0.7546771E-02  0.1487055E+00
         -2   -1    0    0    0  501 -0.00000000000E+00  0.00000000000E+00  0.26573061482E+02  0.26573061482E+02  0.00000000000E+00 0.  1.
          1   -1    0    0  503    0  0.00000000000E+00 -0.00000000000E+00 -0.78154296529E+03  0.78154296529E+03  0.00000000000E+00 0. -1.
         25    2    1    2    0    0  0.34251105376E+02 -0.93324512195E+02 -0.40297464717E+03  0.43346449851E+03  0.12498120823E+03 0.  0.
          4    1    3    3  502    0  0.21949733515E+02 -0.12241719240E+03 -0.27801132788E+03  0.30456472403E+03  0.12700000000E+01 0. -1.
         -4    1    3    3    0  502  0.12301371861E+02  0.29092680208E+02 -0.12496331929E+03  0.12889977447E+03  0.12700000000E+01 0. -1.
          1    1    1    2  503    0 -0.35811246683E+02  0.71428896016E+02 -0.34073963785E+03  0.34998290441E+03  0.00000000000E+00 0. -1.
         -2    1    1    2    0  501  0.15601413068E+01  0.21895616179E+02 -0.11255618791E+02  0.24668623859E+02  0.00000000000E+00 0.  1.
<mgrwt>
<rscale>  0 0.43025973E+02</rscale>
<asrwt>0</asrwt>
<pdfrwt beam="2">  1        1 0.12023738E+00 0.84334358E+02</pdfrwt>
<pdfrwt beam="1">  1       -2 0.40881634E-02 0.21951129E+02</pdfrwt>
<totfact> 0.44298934E+03</totfact>
</mgrwt>
</event>
<event>
 7    1  0.4251803E-004  0.3134642E+02  0.7546771E-02  0.1645257E+00
         -1   -1    0    0    0  501 -0.00000000000E+00  0.00000000000E+00  0.57710387393E+02  0.57710387393E+02  0.00000000000E+00 0.  1.
          2   -1    0    0  503    0  0.00000000000E+00 -0.00000000000E+00 -0.19818646366E+03  0.19818646366E+03  0.00000000000E+00 0. -1.
         25    2    1    2    0    0  0.10839497943E+02  0.21267253144E+01 -0.11717801015E+03  0.17172992219E+03  0.12505383815E+03 0.  0.
          4    1    3    3  502    0 -0.58435078822E+01 -0.56115072877E+02 -0.25717939173E+02  0.62016717776E+02  0.12700000000E+01 0.  1.
         -4    1    3    3    0  502  0.16683005825E+02  0.58241798192E+02 -0.91460070975E+02  0.10971320441E+03  0.12700000000E+01 0.  1.
          2    1    1    2  503    0  0.20245726445E+02  0.80427921361E+01 -0.41402522942E+02  0.46784023455E+02  0.00000000000E+00 0. -1.
         -1    1    1    2    0  501 -0.31085224388E+02 -0.10169517451E+02  0.18104456819E+02  0.37382905413E+02  0.00000000000E+00 0.  1.
<mgrwt>
<rscale>  0 0.26131865E+02</rscale>
<asrwt>0</asrwt>
<pdfrwt beam="2">  1        2 0.30490225E-01 0.21784764E+02</pdfrwt>
<pdfrwt beam="1">  1       -1 0.88785211E-02 0.31346419E+02</pdfrwt>
<totfact> 0.11383179E+04</totfact>
</mgrwt>
</event>
<event>
 7    1  0.4251803E-004  0.4860247E+02  0.7546771E-02  0.1487276E+00
          2   -1    0    0  502    0  0.00000000000E+00  0.00000000000E+00  0.47746266469E+03  0.47746266469E+03  0.00000000000E+00 0. -1.
          2   -1    0    0  503    0 -0.00000000000E+00 -0.00000000000E+00 -0.26821668404E+02  0.26821668404E+02  0.00000000000E+00 0. -1.
         25    2    1    2    0    0 -0.22543236289E+02  0.26164147069E+02  0.22690495237E+03  0.26136111226E+03  0.12502405169E+03 0.  0.
          4    1    3    3  501    0 -0.44541488747E+02  0.67697821487E+02  0.12283271064E+03  0.14716122777E+03  0.12700000000E+01 0. -1.
         -4    1    3    3    0  501  0.21998252458E+02 -0.41533674419E+02  0.10407224172E+03  0.11419988450E+03  0.12700000000E+01 0. -1.
          2    1    1    2  502    0 -0.27145694101E+01 -0.54595844777E+02  0.15516383511E+03  0.16451106614E+03  0.00000000000E+00 0. -1.
          2    1    1    2  503    0  0.25257805699E+02  0.28431697708E+02  0.68572208809E+02  0.78412154697E+02  0.00000000000E+00 0. -1.
<mgrwt>
<rscale>  0 0.42992741E+02</rscale>
<asrwt>0</asrwt>
<pdfrwt beam="1">  1        2 0.73455789E-01 0.48602469E+02</pdfrwt>
<pdfrwt beam="2">  1        2 0.41264109E-02 0.38030490E+02</pdfrwt>
<totfact> 0.17188862E+04</totfact>
</mgrwt>
</event>
<event>
 7    1  0.4251803E-004  0.3490795E+02  0.7546771E-02  0.1639940E+00
         -1   -1    0    0    0  501 -0.00000000000E+00  0.00000000000E+00  0.19452219939E+02  0.19452219939E+02  0.00000000000E+00 0.  1.
          2   -1    0    0  503    0  0.00000000000E+00 -0.00000000000E+00 -0.71911691108E+03  0.71911691108E+03  0.00000000000E+00 0. -1.
         25    2    1    2    0    0  0.52306852235E+02  0.12798301202E+02 -0.34682592895E+03  0.37257660651E+03  0.12500119768E+03 0.  0.
          4    1    3    3  502    0  0.42717859758E+02 -0.41358749414E+02 -0.27888168498E+03  0.28515253604E+03  0.12700000000E+01 0. -1.
         -4    1    3    3    0  502  0.95889924771E+01  0.54157050615E+02 -0.67944243975E+02  0.87424070469E+02  0.12700000000E+01 0. -1.
          2    1    1    2  503    0 -0.32756604753E+02 -0.78609126890E+01 -0.34089746863E+03  0.34255783924E+03  0.00000000000E+00 0. -1.
         -1    1    1    2    0  501 -0.19550247482E+02 -0.49373885125E+01 -0.11941293556E+02  0.23434685271E+02  0.00000000000E+00 0.  1.
<mgrwt>
<rscale>  0 0.26530860E+02</rscale>
<asrwt>0</asrwt>
<pdfrwt beam="2">  1        2 0.11063337E+00 0.34907948E+02</pdfrwt>
<pdfrwt beam="1">  1       -1 0.29926493E-02 0.20164077E+02</pdfrwt>
<totfact> 0.13337673E+04</totfact>
</mgrwt>
</event>
<event>
 7    1  0.4251803E-004  0.1068297E+03  0.7546771E-02  0.1374489E+00
         -1   -1    0    0    0  501 -0.00000000000E+00  0.00000000000E+00  0.11704698427E+04  0.11704698427E+04  0.00000000000E+00 0.  1.
          2   -1    0    0  503    0  0.00000000000E+00 -0.00000000000E+00 -0.15357059688E+04  0.15357059688E+04  0.00000000000E+00 0.  1.
         25    2    1    2    0    0  0.88600881648E+02  0.63186507099E+01  0.14250133800E+03  0.20933516063E+03  0.12499814626E+03 0.  0.
          4    1    3    3  502    0  0.92771327921E+02  0.51115426940E+02  0.82159266777E+02  0.13405619782E+03  0.12700000000E+01 0.  1.
         -4    1    3    3    0  502 -0.41704462736E+01 -0.44796776230E+02  0.60342071224E+02  0.75278962814E+02  0.12700000000E+01 0.  1.
          2    1    1    2  503    0 -0.96604429179E+02 -0.46218743908E+02 -0.14999629213E+04  0.15037810191E+04  0.00000000000E+00 0.  1.
         -1    1    1    2    0  501  0.80035475313E+01  0.39900093198E+02  0.99222545720E+03  0.99305963171E+03  0.00000000000E+00 0.  1.
<mgrwt>
<rscale>  0 0.65934989E+02</rscale>
<asrwt>0</asrwt>
<pdfrwt beam="2">  1        2 0.23626246E+00 0.10682969E+03</pdfrwt>
<pdfrwt beam="1">  1       -1 0.18007228E+00 0.40694892E+02</pdfrwt>
<totfact> 0.43260785E+00</totfact>
</mgrwt>
</event>
<event>
 7    1  0.4251803E-004  0.4435494E+02  0.7546771E-02  0.1530619E+00
         -1   -1    0    0    0  501 -0.00000000000E+00  0.00000000000E+00  0.17208669859E+02  0.17208669859E+02  0.00000000000E+00 0.  1.
          2   -1    0    0  503    0  0.00000000000E+00 -0.00000000000E+00 -0.71168287696E+03  0.71168287696E+03  0.00000000000E+00 0. -1.
         25    2    1    2    0    0  0.57182808721E+01  0.34189307144E+02 -0.48375798848E+03  0.50085370745E+03  0.12502414724E+03 0.  0.
          4    1    3    3  502    0  0.52290598889E+02 -0.13927918078E+02 -0.13012574839E+03  0.14093479672E+03  0.12700000000E+01 0. -1.
         -4    1    3    3    0  502 -0.46572318017E+02  0.48117225221E+02 -0.35363224009E+03  0.35991891072E+03  0.12700000000E+01 0. -1.
          2    1    1    2  503    0  0.20987562105E+02 -0.50027947775E+02 -0.11011654212E+03  0.12275555454E+03  0.00000000000E+00 0. -1.
         -1    1    1    2    0  501 -0.26705842977E+02  0.15838640631E+02 -0.10059967651E+03  0.10528228484E+03  0.00000000000E+00 0.  1.
<mgrwt>
<rscale>  0 0.37110563E+02</rscale>
<asrwt>0</asrwt>
<pdfrwt beam="2">  1        2 0.10948966E+00 0.44354943E+02</pdfrwt>
<pdfrwt beam="1">  1       -1 0.26474880E-02 0.31049389E+02</pdfrwt>
<totfact> 0.17063188E+04</totfact>
</mgrwt>
</event>
<event>
 7    1  0.4251803E-004  0.1061088E+03  0.7546771E-02  0.1323908E+00
          2   -1    0    0  503    0  0.00000000000E+00  0.00000000000E+00  0.20153930654E+04  0.20153930654E+04  0.00000000000E+00 0.  1.
          2   -1    0    0  502    0 -0.00000000000E+00 -0.00000000000E+00 -0.57013822310E+03  0.57013822310E+03  0.00000000000E+00 0. -1.
         25    2    1    2    0    0 -0.48660033174E+01  0.13100254428E+03 -0.16142501319E+03  0.24262516508E+03  0.12499436486E+03 0.  0.
          4    1    3    3  501    0  0.16073499540E+02  0.63939070525E+02  0.68165667426E+00  0.65944216448E+02  0.12700000000E+01 0.  1.
         -4    1    3    3    0  501 -0.20939502857E+02  0.67063473759E+02 -0.16210666987E+03  0.17668094863E+03  0.12700000000E+01 0.  1.
          2    1    1    2  502    0 -0.49073332663E+02 -0.39702311428E+02 -0.36397105662E+03  0.36940410876E+03  0.00000000000E+00 0. -1.
          2    1    1    2  503    0  0.53939335980E+02 -0.91300232856E+02  0.19706509121E+04  0.19735020146E+04  0.00000000000E+00 0.  1.
<mgrwt>
<rscale>  0 0.81840501E+02</rscale>
<asrwt>0</asrwt>
<pdfrwt beam="1">  1        2 0.31006047E+00 0.10610883E+03</pdfrwt>
<pdfrwt beam="2">  1        2 0.87713573E-01 0.63122623E+02</pdfrwt>
<totfact> 0.69270583E+01</totfact>
</mgrwt>
</event>
<event>
 7    1  0.4251803E-004  0.1177364E+03  0.7546771E-02  0.1432385E+00
          2   -1    0    0  503    0  0.00000000000E+00  0.00000000000E+00  0.88937007289E+03  0.88937007289E+03  0.00000000000E+00 0. -1.
         -1   -1    0    0    0  501 -0.00000000000E+00 -0.00000000000E+00 -0.37194236469E+02  0.37194236469E+02  0.00000000000E+00 0.  1.
         25    2    1    2    0    0  0.11977895517E+03 -0.13170320187E+02  0.49500949212E+03  0.52457546244E+03  0.12499825226E+03 0.  0.
          4    1    3    3  502    0  0.66059955581E+02 -0.16636935233E+02  0.44783311860E+03  0.45298655649E+03  0.12700000000E+01 0.  1.
         -4    1    3    3    0  502  0.53718999586E+02  0.34666150461E+01  0.47176373524E+02  0.71588905951E+02  0.12700000000E+01 0.  1.
          2    1    1    2  503    0 -0.27919646498E+01  0.23229130998E+02  0.22080090820E+03  0.22203699839E+03  0.00000000000E+00 0. -1.
         -1    1    1    2    0  501 -0.11698699052E+03 -0.10058810811E+02  0.13636543610E+03  0.17995184852E+03  0.00000000000E+00 0.  1.
<mgrwt>
<rscale>  0 0.52484255E+02</rscale>
<asrwt>0</asrwt>
<pdfrwt beam="1">  1        2 0.13682615E+00 0.23396316E+02</pdfrwt>
<pdfrwt beam="2">  1       -1 0.57221909E-02 0.11773636E+03</pdfrwt>
<totfact> 0.52538572E+03</totfact>
</mgrwt>
</event>
<event>
 7    1  0.4251803E-004  0.6005316E+02  0.7546771E-02  0.1412608E+00
          1   -1    0    0  503    0  0.00000000000E+00  0.00000000000E+00  0.30697276861E+03  0.30697276861E+03  0.00000000000E+00 0. -1.
          1   -1    0    0  502    0 -0.00000000000E+00 -0.00000000000E+00 -0.38592099783E+03  0.38592099783E+03  0.00000000000E+00 0. -1.
         25    2    1    2    0    0 -0.57606746191E+02  0.40851880557E+02 -0.13226507260E+02  0.14417205835E+03  0.12499291405E+03 0.  0.
          4    1    3    3  501    0 -0.94280188193E+02  0.45852079555E+02  0.22771798016E-03  0.10484645910E+03  0.12700000000E+01 0.  1.
         -4    1    3    3    0  501  0.36673442002E+02 -0.50001989978E+01 -0.13226734978E+02  0.39325599251E+02  0.12700000000E+01 0.  1.
          1    1    1    2  502    0  0.78073350654E+01 -0.60060267240E+02 -0.30122095087E+03  0.30724949378E+03  0.00000000000E+00 0. -1.
          1    1    1    2  503    0  0.49799411126E+02  0.19208386683E+02  0.23549922891E+03  0.24147221431E+03  0.00000000000E+00 0. -1.
<mgrwt>
<rscale>  0 0.56615963E+02</rscale>
<asrwt>0</asrwt>
<pdfrwt beam="1">  1        1 0.47226580E-01 0.53375495E+02</pdfrwt>
<pdfrwt beam="2">  1        1 0.59372461E-01 0.60053163E+02</pdfrwt>
<totfact> 0.65841443E+02</totfact>
</mgrwt>
</event>
<event>
 7    1  0.4251803E-004  0.9008617E+02  0.7546771E-02  0.1377500E+00
          1   -1    0    0  503    0 -0.00000000000E+00  0.00000000000E+00  0.13991587710E+03  0.13991587710E+03  0.00000000000E+00 0. -1.
          2   -1    0    0  502    0  0.00000000000E+00 -0.00000000000E+00 -0.56162756731E+03  0.56162756731E+03  0.00000000000E+00 0. -1.
         25    2    1    2    0    0 -0.94722843813E+02  0.89804649173E+02 -0.17232989308E+03  0.24971468547E+03  0.12499015936E+03 0.  0.
          4    1    3    3  501    0 -0.10460229765E+03  0.22265177427E+02 -0.13389992076E+03  0.17137146927E+03  0.12700000000E+01 0.  1.
         -4    1    3    3    0  501  0.98794538387E+01  0.67539471746E+02 -0.38429972321E+02  0.78343216199E+02  0.12700000000E+01 0.  1.
          2    1    1    2  502    0  0.42146988341E+02 -0.20981897928E+02 -0.33009884192E+03  0.33343943093E+03  0.00000000000E+00 0. -1.
          1    1    1    2  503    0  0.52575855472E+02 -0.68822751245E+02  0.80717044783E+02  0.11838932801E+03  0.00000000000E+00 0. -1.
<mgrwt>
<rscale>  0 0.65125537E+02</rscale>
<asrwt>0</asrwt>
<pdfrwt beam="2">  1        2 0.86404240E-01 0.47080874E+02</pdfrwt>
<pdfrwt beam="1">  1        1 0.21525520E-01 0.90086169E+02</pdfrwt>
<totfact> 0.17203124E+03</totfact>
</mgrwt>
</event>
<event>
 7    1  0.4251803E-004  0.6025006E+02  0.7546771E-02  0.1464164E+00
         -2   -1    0    0    0  501 -0.00000000000E+00  0.00000000000E+00  0.76764147192E+01  0.76764147192E+01  0.00000000000E+00 0.  1.
          2   -1    0    0  503    0  0.00000000000E+00 -0.00000000000E+00 -0.22316271223E+04  0.22316271223E+04  0.00000000000E+00 0. -1.
         25    2    1    2    0    0 -0.19371356717E+02 -0.63650239897E+02 -0.14526395932E+04  0.14595245251E+04  0.12499379677E+03 0.  0.
          4    1    3    3  502    0  0.23727245825E+02  0.15538899342E+01 -0.58025757051E+02  0.62721592373E+02  0.12700000000E+01 0. -1.
         -4    1    3    3    0  502 -0.43098602542E+02 -0.65204129831E+02 -0.13946138361E+04  0.13968029328E+04  0.12700000000E+01 0. -1.
          2    1    1    2  503    0  0.44887876885E+02  0.38036828151E+02 -0.23510067760E+03  0.24235108911E+03  0.00000000000E+00 0.  1.
         -2    1    1    2    0  501 -0.25516520168E+02  0.25613411746E+02 -0.53621043678E+03  0.53742792277E+03  0.00000000000E+00 0. -1.
<mgrwt>
<rscale>  0 0.46672303E+02</rscale>
<asrwt>0</asrwt>
<pdfrwt beam="2">  1        2 0.34332688E+00 0.60250058E+02</pdfrwt>
<pdfrwt beam="1">  1       -2 0.11809882E-02 0.36154386E+02</pdfrwt>
<totfact> 0.82009245E+03</totfact>
</mgrwt>
</event>
<event>
 7    1  0.4251803E-004  0.2033437E+03  0.7546771E-02  0.1274774E+00
          2   -1    0    0  502    0  0.00000000000E+00  0.00000000000E+00  0.70614397785E+03  0.70614397785E+03  0.00000000000E+00 0.  1.
          1   -1    0    0  503    0 -0.00000000000E+00 -0.00000000000E+00 -0.18123527715E+03  0.18123527715E+03  0.00000000000E+00 0. -1.
         25    2    1    2    0    0  0.17110544398E+02 -0.17609874080E+03  0.34988021921E+03  0.41151533948E+03  0.12500067837E+03 0.  0.
          4    1    3    3  501    0  0.59596978940E+02 -0.14822709921E+03  0.21876470329E+03  0.27089237927E+03  0.12700000000E+01 0.  1.
         -4    1    3    3    0  501 -0.42486434543E+02 -0.27871641592E+02  0.13111551592E+03  0.14062296021E+03  0.12700000000E+01 0.  1.
          2    1    1    2  502    0 -0.41046753126E+02 -0.31665619792E+02  0.24876333586E+03  0.25410774228E+03  0.00000000000E+00 0.  1.
          1    1    1    2  503    0  0.23936208729E+02  0.20776436059E+03 -0.73734854359E+02  0.22175617324E+03  0.00000000000E+00 0. -1.
<mgrwt>
<rscale>  0 0.10267257E+03</rscale>
<asrwt>0</asrwt>
<pdfrwt beam="1">  1        2 0.10863753E+00 0.51841561E+02</pdfrwt>
<pdfrwt beam="2">  1        1 0.27882351E-01 0.20334374E+03</pdfrwt>
<totfact> 0.98173329E+02</totfact>
</mgrwt>
</event>
<event>
 7    1  0.4251803E-004  0.1386587E+03  0.7546771E-02  0.1268227E+00
          2   -1    0    0  502    0  0.00000000000E+00  0.00000000000E+00  0.52446264455E+03  0.52446264455E+03  0.00000000000E+00 0. -1.
          2   -1    0    0  503    0 -0.00000000000E+00 -0.00000000000E+00 -0.15938240971E+04  0.15938240971E+04  0.00000000000E+00 0. -1.
         25    2    1    2    0    0  0.20361422437E+03 -0.23325944906E+02 -0.52641143285E+03  0.57856448377E+03  0.12500005272E+03 0.  0.
          4    1    3    3  501    0  0.12786933370E+03 -0.15856284081E+02 -0.45946448361E+03  0.47719096057E+03  0.12700000000E+01 0. -1.
         -4    1    3    3    0  501  0.75744890670E+02 -0.74696608248E+01 -0.66946949236E+02  0.10137352321E+03  0.12700000000E+01 0. -1.
          2    1    1    2  502    0 -0.79948984381E+02 -0.12896232709E+02  0.49107057879E+03  0.49770319094E+03  0.00000000000E+00 0. -1.
          2    1    1    2  503    0 -0.12366523999E+03  0.36222177616E+02 -0.10340205985E+04  0.10420190669E+04  0.00000000000E+00 0. -1.
<mgrwt>
<rscale>  0 0.10596658E+03</rscale>
<asrwt>0</asrwt>
<pdfrwt beam="1">  1        2 0.80686560E-01 0.80982424E+02</pdfrwt>
<pdfrwt beam="2">  1        2 0.24520371E+00 0.13865868E+03</pdfrwt>
<totfact> 0.12066332E+02</totfact>
</mgrwt>
</event>
<event>
 7    1  0.4251803E-004  0.7859833E+02  0.7546771E-02  0.1445087E+00
         -1   -1    0    0    0  501 -0.00000000000E+00  0.00000000000E+00  0.22433054804E+02  0.22433054804E+02  0.00000000000E+00 0.  1.
          2   -1    0    0  503    0  0.00000000000E+00 -0.00000000000E+00 -0.94300269430E+03  0.94300269430E+03  0.00000000000E+00 0. -1.
         25    2    1    2    0    0 -0.98832624130E+02  0.22723709631E+02 -0.48264305754E+03  0.50877540233E+03  0.12499533770E+03 0.  0.
          4    1    3    3  502    0  0.19243865512E+02 -0.12432753818E+02 -0.18821404027E+03  0.18960758841E+03  0.12700000000E+01 0. -1.
         -4    1    3    3    0  502 -0.11807648964E+03  0.35156463449E+02 -0.29442901728E+03  0.31916781392E+03  0.12700000000E+01 0. -1.
          2    1    1    2  503    0  0.67445850270E+02 -0.28237170652E+02 -0.40217520610E+03  0.40876787658E+03  0.00000000000E+00 0. -1.
         -1    1    1    2    0  501  0.31386773860E+02  0.55134610208E+01 -0.35751375851E+02  0.47892470191E+02  0.00000000000E+00 0.  1.
<mgrwt>
<rscale>  0 0.50047182E+02</rscale>
<asrwt>0</asrwt>
<pdfrwt beam="2">  1        2 0.14507731E+00 0.78598334E+02</pdfrwt>
<pdfrwt beam="1">  1       -1 0.34512398E-02 0.31867347E+02</pdfrwt>
<totfact> 0.82385009E+03</totfact>
</mgrwt>
</event>
<event>
 7    1  0.4251803E-004  0.1032564E+03  0.7546771E-02  0.1390558E+00
          2   -1    0    0  503    0  0.00000000000E+00  0.00000000000E+00  0.21644700003E+04  0.21644700003E+04  0.00000000000E+00 0. -1.
         -1   -1    0    0    0  501 -0.00000000000E+00 -0.00000000000E+00 -0.23491387500E+02  0.23491387500E+02  0.00000000000E+00 0.  1.
         25    2    1    2    0    0 -0.11090929282E+03  0.35194663707E+02  0.19029121913E+04  0.19105600817E+04  0.12500192975E+03 0.  0.
          4    1    3    3  502    0 -0.97096539750E+02 -0.78396886072E+01  0.16945714738E+04  0.16973695212E+04  0.12700000000E+01 0. -1.
         -4    1    3    3    0  502 -0.13812753065E+02  0.43034352314E+02  0.20834071749E+03  0.21319056051E+03  0.12700000000E+01 0. -1.
          2    1    1    2  503    0  0.27565309312E+02  0.24605589957E+02  0.89844573879E+02  0.97145914943E+02  0.00000000000E+00 0. -1.
         -1    1    1    2    0  501  0.83343983503E+02 -0.59800253664E+02  0.14822184760E+03  0.18025539113E+03  0.00000000000E+00 0.  1.
<mgrwt>
<rscale>  0 0.61768072E+02</rscale>
<asrwt>0</asrwt>
<pdfrwt beam="1">  1        2 0.33299523E+00 0.36949714E+02</pdfrwt>
<pdfrwt beam="2">  1       -1 0.36140613E-02 0.10325641E+03</pdfrwt>
<totfact> 0.22853845E+03</totfact>
</mgrwt>
</event>
<event>
 7    1  0.4251803E-004  0.4459742E+02  0.7546771E-02  0.1570034E+00
         -2   -1    0    0    0  501 -0.00000000000E+00  0.00000000000E+00  0.23162369871E+03  0.23162369871E+03  0.00000000000E+00 0.  1.
          2   -1    0    0  503    0  0.00000000000E+00 -0.00000000000E+00 -0.33785996999E+03  0.33785996999E+03  0.00000000000E+00 0. -1.
         25    2    1    2    0    0 -0.27487300016E+02 -0.61694571577E+02 -0.14727903828E+03  0.20464620441E+03  0.12500872786E+03 0.  0.
          4    1    3    3  502    0 -0.66508851770E+02 -0.19762140697E+02 -0.12539270702E+03  0.14331403784E+03  0.12700000000E+01 0. -1.
         -4    1    3    3    0  502  0.39021551754E+02 -0.41932430880E+02 -0.21886331258E+02  0.61332166575E+02  0.12700000000E+01 0. -1.
          2    1    1    2  503    0  0.52569379705E+01  0.23392130428E+02 -0.15856935774E+03  0.16037165703E+03  0.00000000000E+00 0. -1.
         -2    1    1    2    0  501  0.22230362045E+02  0.38302441149E+02  0.19961212474E+03  0.20446580726E+03  0.00000000000E+00 0.  1.
<mgrwt>
<rscale>  0 0.32699356E+02</rscale>
<asrwt>0</asrwt>
<pdfrwt beam="2">  1        2 0.51978457E-01 0.23975553E+02</pdfrwt>
<pdfrwt beam="1">  1       -2 0.35634415E-01 0.44597422E+02</pdfrwt>
<totfact> 0.69058956E+02</totfact>
</mgrwt>
</event>
<event>
 7    1  0.7537970E-004  0.1018251E+03  0.7546771E-02  0.1380413E+00
          1   -1    0    0  503    0  0.00000000000E+00  0.00000000000E+00  0.30638693427E+02  0.30638693427E+02  0.00000000000E+00 0. -1.
         -2   -1    0    0    0  501 -0.00000000000E+00 -0.00000000000E+00 -0.90729395459E+03  0.90729395459E+03  0.00000000000E+00 0.  1.
         25    2    1    2    0    0  0.54800226752E+02 -0.10337138592E+03 -0.31412509763E+03  0.35775130466E+03  0.12499084266E+03 0.  0.
          4    1    3    3  502    0  0.47263016407E+01 -0.47343980689E+01  0.11766635240E+02  0.13594817290E+02  0.12700000000E+01 0. -1.
         -4    1    3    3    0  502  0.50073925111E+02 -0.98636987853E+02 -0.32589173287E+03  0.34415648737E+03  0.12700000000E+01 0. -1.
          1    1    1    2  503    0 -0.16451039477E+02  0.89817737100E+02 -0.27439052332E+03  0.28918509970E+03  0.00000000000E+00 0. -1.
         -2    1    1    2    0  501 -0.38349187275E+02  0.13553648822E+02 -0.28813964021E+03  0.29099624366E+03  0.00000000000E+00 0.  1.
<mgrwt>
<rscale>  0 0.64355394E+02</rscale>
<asrwt>0</asrwt>
<pdfrwt beam="1">  1        1 0.47136448E-02 0.10182506E+03</pdfrwt>
<pdfrwt beam="2">  1       -2 0.13958369E+00 0.40673844E+02</pdfrwt>
<totfact> 0.60566602E+02</totfact>
</mgrwt>
</event>
<event>
 7    1  0.4251803E-004  0.1068367E+03  0.7546771E-02  0.1366492E+00
          1   -1    0    0  503    0 -0.00000000000E+00  0.00000000000E+00  0.13253127586E+03  0.13253127586E+03  0.00000000000E+00 0. -1.
          2   -1    0    0  502    0  0.00000000000E+00 -0.00000000000E+00 -0.22147348610E+04  0.22147348610E+04  0.00000000000E+00 0.  1.
         25    2    1    2    0    0  0.77239982457E+02  0.38627763076E+02 -0.20940518965E+03  0.25872271554E+03  0.12501516354E+03 0.  0.
          4    1    3    3  501    0  0.74455137571E+02  0.50509308170E+02 -0.58511685963E+02  0.10733120710E+03  0.12700000000E+01 0.  1.
         -4    1    3    3    0  501  0.27848448864E+01 -0.11881545094E+02 -0.15089350368E+03  0.15139150844E+03  0.12700000000E+01 0.  1.
          2    1    1    2  502    0 -0.10814560907E+03 -0.80517648006E+01 -0.19747416480E+04  0.19777170880E+04  0.00000000000E+00 0.  1.
          1    1    1    2  503    0  0.30905626615E+02 -0.30575998275E+02  0.10194325253E+03  0.11082633334E+03  0.00000000000E+00 0. -1.
<mgrwt>
<rscale>  0 0.68151999E+02</rscale>
<asrwt>0</asrwt>
<pdfrwt beam="2">  1        2 0.34072843E+00 0.10683674E+03</pdfrwt>
<pdfrwt beam="1">  1        1 0.20389428E-01 0.43474699E+02</pdfrwt>
<totfact> 0.20281139E+02</totfact>
</mgrwt>
</event>
<event>
 7    1  0.4251803E-004  0.6558238E+02  0.7546771E-02  0.1506335E+00
          2   -1    0    0  502    0  0.00000000000E+00  0.00000000000E+00  0.13825334492E+04  0.13825334492E+04  0.00000000000E+00 0. -1.
          1   -1    0    0  503    0 -0.00000000000E+00 -0.00000000000E+00 -0.55404117168E+03  0.55404117168E+03  0.00000000000E+00 0. -1.
         25    2    1    2    0    0  0.48080941885E+02  0.29635276075E+02  0.29655872635E+03  0.32674472580E+03  0.12500004441E+03 0.  0.
          4    1    3    3  501    0  0.52695913666E+02 -0.17777979053E+02  0.47443128253E+02  0.73112100057E+02  0.12700000000E+01 0.  1.
         -4    1    3    3    0  501 -0.46149717808E+01  0.47413255128E+02  0.24911559810E+03  0.25363262574E+03  0.12700000000E+01 0.  1.
          2    1    1    2  502    0 -0.40072044753E+02 -0.53011680516E+02  0.10695667428E+04  0.10716291449E+04  0.00000000000E+00 0. -1.
          1    1    1    2  503    0 -0.80088971320E+01  0.23376404442E+02 -0.53763319161E+03  0.53820075013E+03  0.00000000000E+00 0. -1.
<mgrwt>
<rscale>  0 0.40256180E+02</rscale>
<asrwt>0</asrwt>
<pdfrwt beam="1">  1        2 0.21269745E+00 0.65582380E+02</pdfrwt>
<pdfrwt beam="2">  1        1 0.85237104E-01 0.24710296E+02</pdfrwt>
<totfact> 0.10114429E+02</totfact>
</mgrwt>
</event>
<event>
 7    1  0.4251803E-004  0.5923317E+02  0.7546771E-02  0.1402465E+00
         -1   -1    0    0    0  501 -0.00000000000E+00  0.00000000000E+00  0.17376012409E+03  0.17376012409E+03  0.00000000000E+00 0.  1.
          2   -1    0    0  503    0  0.00000000000E+00 -0.00000000000E+00 -0.44463281304E+03  0.44463281304E+03  0.00000000000E+00 0. -1.
         25    2    1    2    0    0  0.49131733945E+02 -0.24513122027E+02 -0.13032121440E+03  0.18874122701E+03  0.12499924567E+03 0.  0.
          4    1    3    3  502    0  0.48553065759E+02 -0.31025486729E+01  0.75146543925E+01  0.49245395049E+02  0.12700000000E+01 0.  1.
         -4    1    3    3    0  502  0.57866818546E+00 -0.21410573354E+02 -0.13783586880E+03  0.13949583196E+03  0.12700000000E+01 0.  1.
          2    1    1    2  503    0  0.88610279134E+00  0.58581338474E+02 -0.27554965332E+03  0.28170937123E+03  0.00000000000E+00 0. -1.
         -1    1    1    2    0  501 -0.50017836736E+02 -0.34068216446E+02  0.13499817877E+03  0.14794233889E+03  0.00000000000E+00 0.  1.
<mgrwt>
<rscale>  0 0.58909724E+02</rscale>
<asrwt>0</asrwt>
<pdfrwt beam="2">  1        2 0.68405047E-01 0.58588040E+02</pdfrwt>
<pdfrwt beam="1">  1       -1 0.26732327E-01 0.59233174E+02</pdfrwt>
<totfact> 0.99063204E+02</totfact>
</mgrwt>
</event>
<event>
 7    1  0.4251803E-004  0.4305468E+03  0.7546771E-02  0.1033687E+00
          2   -1    0    0  503    0  0.00000000000E+00  0.00000000000E+00  0.51305220948E+03  0.51305220948E+03  0.00000000000E+00 0. -1.
         -1   -1    0    0    0  501 -0.00000000000E+00 -0.00000000000E+00 -0.90327335295E+02  0.90327335295E+02  0.00000000000E+00 0.  1.
         25    2    1    2    0    0 -0.18176870512E+03  0.43077135908E+02  0.18585371099E+03  0.29165389708E+03  0.12499956798E+03 0.  0.
          4    1    3    3  502    0 -0.73964945966E+02  0.81063245751E+02  0.79416151408E+02  0.13546439033E+03  0.12700000000E+01 0. -1.
         -4    1    3    3    0  502 -0.10780375915E+03 -0.37986109843E+02  0.10643755958E+03  0.15618950675E+03  0.12700000000E+01 0. -1.
          2    1    1    2  503    0  0.45788980094E+02 -0.48101890946E+02  0.83592970667E+02  0.10676238736E+03  0.00000000000E+00 0. -1.
         -1    1    1    2    0  501  0.13597972502E+03  0.50247550382E+01  0.15327819252E+03  0.20496326033E+03  0.00000000000E+00 0.  1.
<mgrwt>
<rscale>  0 0.43054681E+03</rscale>
<asrwt>0</asrwt>
<pdfrwt beam="1">  1        2 0.78931108E-01 0.43054681E+03</pdfrwt>
<pdfrwt beam="2">  1       -1 0.13896513E-01 0.43054681E+03</pdfrwt>
<totfact> 0.25129811E+03</totfact>
</mgrwt>
</event>
<event>
 7    1  0.4251803E-004  0.8022911E+02  0.7546771E-02  0.1366678E+00
          2   -1    0    0  502    0  0.00000000000E+00  0.00000000000E+00  0.12702008759E+04  0.12702008759E+04  0.00000000000E+00 0. -1.
          1   -1    0    0  503    0 -0.00000000000E+00 -0.00000000000E+00 -0.29543202916E+03  0.29543202916E+03  0.00000000000E+00 0. -1.
         25    2    1    2    0    0 -0.12931358622E+02  0.90605285423E+02  0.10836349548E+04  0.10946538021E+04  0.12500277354E+03 0.  0.
          4    1    3    3  501    0 -0.46523459853E+02  0.39067914241E+02  0.20369952881E+03  0.21256962431E+03  0.12700000000E+01 0. -1.
         -4    1    3    3    0  501  0.33592101231E+02  0.51537371182E+02  0.87993542598E+03  0.88208417778E+03  0.12700000000E+01 0. -1.
          2    1    1    2  502    0 -0.38554812438E+02 -0.64329193139E+02  0.17019898493E+03  0.18599035761E+03  0.00000000000E+00 0. -1.
          1    1    1    2  503    0  0.51486171060E+02 -0.26276092284E+02 -0.27906509300E+03  0.28498874534E+03  0.00000000000E+00 0. -1.
<mgrwt>
<rscale>  0 0.68099438E+02</rscale>
<asrwt>0</asrwt>
<pdfrwt beam="1">  1        2 0.19541552E+00 0.80229113E+02</pdfrwt>
<pdfrwt beam="2">  1        1 0.45451082E-01 0.57803623E+02</pdfrwt>
<totfact> 0.24139037E+02</totfact>
</mgrwt>
</event>
<event>
 7    1  0.4251803E-004  0.7158588E+02  0.7546771E-02  0.1374210E+00
          3   -1    0    0  503    0 -0.00000000000E+00  0.00000000000E+00  0.11260915372E+02  0.11260915372E+02  0.00000000000E+00 0. -1.
          2   -1    0    0  502    0  0.00000000000E+00 -0.00000000000E+00 -0.21584278732E+04  0.21584278732E+04  0.00000000000E+00 0. -1.
         25    2    1    2    0    0  0.42472640545E+02 -0.13773094136E+02 -0.99495212700E+03  0.10037634019E+04  0.12497043098E+03 0.  0.
          4    1    3    3  501    0  0.88610135940E+01 -0.11403503462E+02 -0.86431605723E+01  0.16878227922E+02  0.12700000000E+01 0.  1.
         -4    1    3    3    0  501  0.33611626951E+02 -0.23695906739E+01 -0.98630896643E+03  0.98688517396E+03  0.12700000000E+01 0.  1.
          2    1    1    2  502    0 -0.47980801213E+02 -0.57600557240E+02 -0.91698036433E+03  0.92003965678E+03  0.00000000000E+00 0. -1.
          3    1    1    2  503    0  0.55081606687E+01  0.71373651376E+02 -0.23523446650E+03  0.24588572991E+03  0.00000000000E+00 0. -1.
<mgrwt>
<rscale>  0 0.66010442E+02</rscale>
<asrwt>0</asrwt>
<pdfrwt beam="2">  1        2 0.33206576E+00 0.60869247E+02</pdfrwt>
<pdfrwt beam="1">  1        3 0.17324489E-02 0.71585878E+02</pdfrwt>
<totfact> 0.44747364E+03</totfact>
</mgrwt>
</event>
<event>
 7    1  0.4251803E-004  0.4347962E+02  0.7546771E-02  0.1501011E+00
          1   -1    0    0  502    0  0.00000000000E+00  0.00000000000E+00  0.10833727692E+04  0.10833727692E+04  0.00000000000E+00 0. -1.
          1   -1    0    0  503    0 -0.00000000000E+00 -0.00000000000E+00 -0.58856627800E+03  0.58856627800E+03  0.00000000000E+00 0. -1.
         25    2    1    2    0    0 -0.26259735855E+02 -0.83299560026E+01 -0.38744438735E+03  0.40803420831E+03  0.12497919814E+03 0.  0.
          4    1    3    3  501    0 -0.62151334027E+02 -0.12646111508E+02 -0.10069153148E+03  0.11900886467E+03  0.12700000000E+01 0. -1.
         -4    1    3    3    0  501  0.35891598171E+02  0.43161555059E+01 -0.28675285587E+03  0.28902534364E+03  0.12700000000E+01 0. -1.
          1    1    1    2  502    0  0.22505147868E+02 -0.37202097181E+02  0.10698954562E+04  0.10707785788E+04  0.00000000000E+00 0. -1.
          1    1    1    2  503    0  0.37545879873E+01  0.45532053184E+02 -0.18764457765E+03  0.19312626004E+03  0.00000000000E+00 0. -1.
<mgrwt>
<rscale>  0 0.40995454E+02</rscale>
<asrwt>0</asrwt>
<pdfrwt beam="1">  1        1 0.16667273E+00 0.43479624E+02</pdfrwt>
<pdfrwt beam="2">  1        1 0.90548658E-01 0.38653215E+02</pdfrwt>
<totfact> 0.73151052E+01</totfact>
</mgrwt>
</event>
<event>
 7    1  0.4251803E-004  0.8443308E+02  0.7546771E-02  0.1358403E+00
          1   -1    0    0  503    0  0.00000000000E+00  0.00000000000E+00  0.33580118641E+03  0.33580118641E+03  0.00000000000E+00 0. -1.
          1   -1    0    0  502    0 -0.00000000000E+00 -0.00000000000E+00 -0.14733187383E+03  0.14733187383E+03  0.00000000000E+00 0. -1.
         25    2    1    2    0    0  0.19722107737E+02 -0.90166621427E+02  0.85158816364E+02  0.17718694323E+03  0.12499683073E+03 0.  0.
          4    1    3    3  501    0  0.55889135126E+02 -0.90302056870E+02  0.28511264579E+02  0.10996618575E+03  0.12700000000E+01 0. -1.
         -4    1    3    3    0  501 -0.36167027389E+02  0.13543544227E+00  0.56647551785E+02  0.67220757480E+02  0.12700000000E+01 0. -1.
          1    1    1    2  502    0  0.46959732982E+02  0.35495130171E+02 -0.82357364253E+02  0.10123169580E+03  0.00000000000E+00 0. -1.
          1    1    1    2  503    0 -0.66681840719E+02  0.54671491256E+02  0.18566786047E+03  0.20471442120E+03  0.00000000000E+00 0. -1.
<mgrwt>
<rscale>  0 0.70499481E+02</rscale>
<asrwt>0</asrwt>
<pdfrwt beam="1">  1        1 0.51661721E-01 0.84433083E+02</pdfrwt>
<pdfrwt beam="2">  1        1 0.22666442E-01 0.58865277E+02</pdfrwt>
<totfact> 0.18914327E+03</totfact>
</mgrwt>
</event>
<event>
 7    1  0.4251803E-004  0.1996290E+03  0.7546771E-02  0.1265137E+00
          1   -1    0    0  503    0 -0.00000000000E+00  0.00000000000E+00  0.26297438942E+03  0.26297438942E+03  0.00000000000E+00 0.  1.
          2   -1    0    0  502    0  0.00000000000E+00 -0.00000000000E+00 -0.86229916340E+03  0.86229916340E+03  0.00000000000E+00 0. -1.
         25    2    1    2    0    0 -0.68609066371E+02 -0.19130783194E+03 -0.31608280690E+03  0.39602423912E+03  0.12498386536E+03 0.  0.
          4    1    3    3  501    0 -0.37866582897E+02 -0.20134964793E+03 -0.28617051885E+03  0.35195274908E+03  0.12700000000E+01 0.  1.
         -4    1    3    3    0  501 -0.30742483474E+02  0.10041815984E+02 -0.29912288051E+02  0.44071490045E+02  0.12700000000E+01 0.  1.
          2    1    1    2  502    0 -0.49665254452E+02  0.29886042549E+02 -0.45916004585E+03  0.46280423588E+03  0.00000000000E+00 0. -1.
          1    1    1    2  503    0  0.11827432082E+03  0.16142178940E+03  0.17591807877E+03  0.26644507782E+03  0.00000000000E+00 0.  1.
<mgrwt>
<rscale>  0 0.10756985E+03</rscale>
<asrwt>0</asrwt>
<pdfrwt beam="2">  1        2 0.13266141E+00 0.57963894E+02</pdfrwt>
<pdfrwt beam="1">  1        1 0.40457599E-01 0.19962897E+03</pdfrwt>
<totfact> 0.48389347E+02</totfact>
</mgrwt>
</event>
<event>
 7    1  0.4251803E-004  0.5315707E+02  0.7546771E-02  0.1540405E+00
          2   -1    0    0  503    0  0.00000000000E+00  0.00000000000E+00  0.15929140280E+02  0.15929140280E+02  0.00000000000E+00 0. -1.
         -3   -1    0    0    0  501 -0.00000000000E+00 -0.00000000000E+00 -0.72805498761E+03  0.72805498761E+03  0.00000000000E+00 0.  1.
         25    2    1    2    0    0  0.27562883281E+02  0.24829100425E+02 -0.43216564215E+03  0.45140938812E+03  0.12500838638E+03 0.  0.
          4    1    3    3  502    0  0.27274674825E+02 -0.16730748031E+02 -0.21332509246E+02  0.38477456611E+02  0.12700000000E+01 0.  1.
         -4    1    3    3    0  502  0.28820845637E+00  0.41559848457E+02 -0.41083313290E+03  0.41293193151E+03  0.12700000000E+01 0.  1.
          2    1    1    2  503    0  0.10934710359E+02  0.21700541943E+02 -0.69748468290E+02  0.73860207419E+02  0.00000000000E+00 0. -1.
         -3    1    1    2    0  501 -0.38497593640E+02 -0.46529642368E+02 -0.21021173689E+03  0.21871453235E+03  0.00000000000E+00 0.  1.
<mgrwt>
<rscale>  0 0.35940332E+02</rscale>
<asrwt>0</asrwt>
<pdfrwt beam="1">  1        2 0.24506369E-02 0.24299823E+02</pdfrwt>
<pdfrwt beam="2">  1       -3 0.11200846E+00 0.53157073E+02</pdfrwt>
<totfact> 0.12708104E+03</totfact>
</mgrwt>
</event>
<event>
 7    1  0.4251803E-004  0.7098903E+02  0.7546771E-02  0.1507949E+00
          1   -1    0    0  503    0  0.00000000000E+00  0.00000000000E+00  0.55730180168E+03  0.55730180168E+03  0.00000000000E+00 0. -1.
         -2   -1    0    0    0  501 -0.00000000000E+00 -0.00000000000E+00 -0.33752335868E+02  0.33752335868E+02  0.00000000000E+00 0.  1.
         25    2    1    2    0    0 -0.82378714351E+02 -0.29231184434E+02  0.24921544889E+03  0.29218483070E+03  0.12499168216E+03 0.  0.
          4    1    3    3  502    0  0.21977346127E+02  0.21399920805E+02  0.24432033306E+02  0.39236430835E+02  0.12700000000E+01 0. -1.
         -4    1    3    3    0  502 -0.10435606048E+03 -0.50631105238E+02  0.22478341558E+03  0.25294839987E+03  0.12700000000E+01 0. -1.
          1    1    1    2  503    0  0.19340044606E+02  0.11651928577E+02  0.19373751514E+03  0.19504878758E+03  0.00000000000E+00 0. -1.
         -2    1    1    2    0  501  0.63038669745E+02  0.17579255856E+02  0.80596501790E+02  0.10382051927E+03  0.00000000000E+00 0.  1.
<mgrwt>
<rscale>  0 0.40035624E+02</rscale>
<asrwt>0</asrwt>
<pdfrwt beam="1">  1        1 0.85738732E-01 0.22578857E+02</pdfrwt>
<pdfrwt beam="2">  1       -2 0.51926674E-02 0.70989031E+02</pdfrwt>
<totfact> 0.60248440E+03</totfact>
</mgrwt>
</event>
<event>
 7    1  0.4251803E-004  0.7834159E+02  0.7546771E-02  0.1461355E+00
          2   -1    0    0  503    0  0.00000000000E+00  0.00000000000E+00  0.97787841497E+02  0.97787841497E+02  0.00000000000E+00 0. -1.
         -1   -1    0    0    0  501 -0.00000000000E+00 -0.00000000000E+00 -0.40355544163E+03  0.40355544163E+03  0.00000000000E+00 0.  1.
         25    2    1    2    0    0 -0.32801792249E+02  0.87989899726E+02 -0.30763706072E+03  0.34508190963E+03  0.12499113247E+03 0.  0.
          4    1    3    3  502    0 -0.13290215029E+02  0.11768619007E+03 -0.25936406003E+03  0.28512803735E+03  0.12700000000E+01 0.  1.
         -4    1    3    3    0  502 -0.19511577220E+02 -0.29696290341E+02 -0.48273000691E+02  0.59953872280E+02  0.12700000000E+01 0.  1.
          2    1    1    2  503    0  0.50825225897E+01 -0.27917321924E+02  0.61159843663E+02  0.67422068910E+02  0.00000000000E+00 0. -1.
         -1    1    1    2    0  501  0.27719269660E+02 -0.60072577803E+02 -0.59290383077E+02  0.88839304588E+02  0.00000000000E+00 0.  1.
<mgrwt>
<rscale>  0 0.47149091E+02</rscale>
<asrwt>0</asrwt>
<pdfrwt beam="1">  1        2 0.15044283E-01 0.28376203E+02</pdfrwt>
<pdfrwt beam="2">  1       -1 0.62085453E-01 0.78341589E+02</pdfrwt>
<totfact> 0.10986011E+03</totfact>
</mgrwt>
</event>
<event>
 7    1  0.4251803E-004  0.1404109E+03  0.7546771E-02  0.1299584E+00
         -1   -1    0    0    0  501 -0.00000000000E+00  0.00000000000E+00  0.58952246092E+03  0.58952246092E+03  0.00000000000E+00 0.  1.
          1   -1    0    0  503    0  0.00000000000E+00 -0.00000000000E+00 -0.65650777405E+03  0.65650777405E+03  0.00000000000E+00 0. -1.
         25    2    1    2    0    0 -0.69895300275E+02 -0.54360450988E+02  0.10774823886E+00  0.15319131551E+03  0.12500862333E+03 0.  0.
          4    1    3    3  502    0 -0.42292399019E+02  0.35604378402E+02 -0.16317964251E+02  0.57655941875E+02  0.12700000000E+01 0.  1.
         -4    1    3    3    0  502 -0.27602901256E+02 -0.89964829391E+02  0.16425712490E+02  0.95535373636E+02  0.12700000000E+01 0.  1.
          1    1    1    2  503    0 -0.41420527694E+02 -0.42643050300E+02 -0.56775496093E+03  0.57085881399E+03  0.00000000000E+00 0. -1.
         -1    1    1    2    0  501  0.11131582797E+03  0.97003501288E+02  0.50066189957E+03  0.52198010546E+03  0.00000000000E+00 0.  1.
<mgrwt>
<rscale>  0 0.91362895E+02</rscale>
<asrwt>0</asrwt>
<pdfrwt beam="2">  1        1 0.10100120E+00 0.59448212E+02</pdfrwt>
<pdfrwt beam="1">  1       -1 0.90695764E-01 0.14041093E+03</pdfrwt>
<totfact> 0.42599271E+01</totfact>
</mgrwt>
</event>
<event>
 7    1  0.4251803E-004  0.1599810E+03  0.7546771E-02  0.1282375E+00
         -2   -1    0    0    0  501 -0.00000000000E+00  0.00000000000E+00  0.12291799121E+04  0.12291799121E+04  0.00000000000E+00 0.  1.
          1   -1    0    0  503    0  0.00000000000E+00 -0.00000000000E+00 -0.61251997802E+03  0.61251997802E+03  0.00000000000E+00 0. -1.
         25    2    1    2    0    0 -0.87403999539E+02  0.16949047688E+03  0.35431304594E+03  0.42134128529E+03  0.12499705310E+03 0.  0.
          4    1    3    3  502    0 -0.58134666996E+02  0.13868007752E+03  0.34702424282E+03  0.37820529003E+03  0.12700000000E+01 0.  1.
         -4    1    3    3    0  502 -0.29269332544E+02  0.30810399357E+02  0.72888031202E+01  0.43135995260E+02  0.12700000000E+01 0.  1.
          1    1    1    2  503    0 -0.19927572386E+02 -0.57955332637E+02 -0.57023046048E+03  0.57351434750E+03  0.00000000000E+00 0. -1.
         -2    1    1    2    0  501  0.10733157193E+03 -0.11153514424E+03  0.83257734864E+03  0.84684425735E+03  0.00000000000E+00 0.  1.
<mgrwt>
<rscale>  0 0.99017875E+02</rscale>
<asrwt>0</asrwt>
<pdfrwt beam="2">  1        1 0.94233843E-01 0.61285632E+02</pdfrwt>
<pdfrwt beam="1">  1       -2 0.18910460E+00 0.15998105E+03</pdfrwt>
<totfact> 0.56154544E+00</totfact>
</mgrwt>
</event>
<event>
 7    1  0.4251803E-004  0.8099220E+02  0.7546771E-02  0.1408006E+00
          2   -1    0    0  503    0  0.00000000000E+00  0.00000000000E+00  0.62986779153E+03  0.62986779153E+03  0.00000000000E+00 0. -1.
         -3   -1    0    0    0  501 -0.00000000000E+00 -0.00000000000E+00 -0.34327165208E+03  0.34327165208E+03  0.00000000000E+00 0.  1.
         25    2    1    2    0    0 -0.77488740432E+02  0.69736095419E+02  0.73938510329E+02  0.17877250321E+03  0.12500030678E+03 0.  0.
          4    1    3    3  502    0 -0.16564817907E+02  0.93300658757E+02  0.59382178382E+02  0.11183587138E+03  0.12700000000E+01 0. -1.
         -4    1    3    3    0  502 -0.60923922525E+02 -0.23564563339E+02  0.14556331946E+02  0.66936631831E+02  0.12700000000E+01 0. -1.
          2    1    1    2  503    0  0.40985592144E+02  0.17396820394E+01  0.49711478581E+03  0.49880452637E+03  0.00000000000E+00 0. -1.
         -3    1    1    2    0  501  0.36503148288E+02 -0.71475777458E+02 -0.28445715669E+03  0.29556241403E+03  0.00000000000E+00 0.  1.
<mgrwt>
<rscale>  0 0.57641150E+02</rscale>
<asrwt>0</asrwt>
<pdfrwt beam="1">  1        2 0.96902737E-01 0.41022497E+02</pdfrwt>
<pdfrwt beam="2">  1       -3 0.52811023E-01 0.80992197E+02</pdfrwt>
<totfact> 0.10596900E+02</totfact>
</mgrwt>
</event>
<event>
 7    1  0.4251803E-004  0.1106688E+03  0.7546771E-02  0.1309943E+00
          2   -1    0    0  503    0  0.00000000000E+00  0.00000000000E+00  0.17851126305E+04  0.17851126305E+04  0.00000000000E+00 0. -1.
         -1   -1    0    0    0  501 -0.00000000000E+00 -0.00000000000E+00 -0.92916555359E+02  0.92916555359E+02  0.00000000000E+00 0.  1.
         25    2    1    2    0    0  0.15520868621E+02 -0.15312362095E+03  0.46545594304E+03  0.50592956947E+03  0.12501101432E+03 0.  0.
          4    1    3    3  502    0 -0.84926307538E+00 -0.15400500922E+03  0.27847190086E+03  0.31822394093E+03  0.12700000000E+01 0. -1.
         -4    1    3    3    0  502  0.16370131696E+02  0.88138827023E+00  0.18698404218E+03  0.18770562854E+03  0.12700000000E+01 0. -1.
          2    1    1    2  503    0  0.30779549393E+02  0.10249819411E+03  0.12804849206E+04  0.12849493734E+04  0.00000000000E+00 0. -1.
         -1    1    1    2    0  501 -0.46300418014E+02  0.50625426841E+02 -0.53744788503E+02  0.87150242927E+02  0.00000000000E+00 0.  1.
<mgrwt>
<rscale>  0 0.87134636E+02</rscale>
<asrwt>0</asrwt>
<pdfrwt beam="1">  1        2 0.27463269E+00 0.11066878E+03</pdfrwt>
<pdfrwt beam="2">  1       -1 0.14294856E-01 0.68605120E+02</pdfrwt>
<totfact> 0.38967800E+02</totfact>
</mgrwt>
</event>
<event>
 7    1  0.4251803E-004  0.4731457E+02  0.7546771E-02  0.1513703E+00
         -1   -1    0    0    0  501 -0.00000000000E+00  0.00000000000E+00  0.27530501673E+03  0.27530501673E+03  0.00000000000E+00 0.  1.
          2   -1    0    0  503    0  0.00000000000E+00 -0.00000000000E+00 -0.62945102892E+02  0.62945102892E+02  0.00000000000E+00 0. -1.
         25    2    1    2    0    0 -0.49029986031E+02  0.46025248576E+02  0.18118350667E+03  0.23016372702E+03  0.12500246042E+03 0.  0.
          4    1    3    3  502    0 -0.70932516919E+02 -0.15346290129E+02  0.12287692460E+03  0.14271398697E+03  0.12700000000E+01 0.  1.
         -4    1    3    3    0  502  0.21902530888E+02  0.61371538705E+02  0.58306582061E+02  0.87449740045E+02  0.12700000000E+01 0.  1.
          2    1    1    2  503    0  0.44126561451E+02 -0.13813970791E+02 -0.17561133579E+02  0.49460819110E+02  0.00000000000E+00 0. -1.
         -1    1    1    2    0  501  0.49034245799E+01 -0.32211277784E+02  0.48737540752E+02  0.58625573496E+02  0.00000000000E+00 0.  1.
<mgrwt>
<rscale>  0 0.39263470E+02</rscale>
<asrwt>0</asrwt>
<pdfrwt beam="2">  1        2 0.96838621E-02 0.47314567E+02</pdfrwt>
<pdfrwt beam="1">  1       -1 0.42354617E-01 0.32582357E+02</pdfrwt>
<totfact> 0.37547508E+03</totfact>
</mgrwt>
</event>
<event>
 7    1  0.4251803E-004  0.3818637E+02  0.7546771E-02  0.1567420E+00
          2   -1    0    0  503    0  0.00000000000E+00  0.00000000000E+00  0.13260814929E+03  0.13260814929E+03  0.00000000000E+00 0. -1.
         -1   -1    0    0    0  501 -0.00000000000E+00 -0.00000000000E+00 -0.21272993440E+03  0.21272993440E+03  0.00000000000E+00 0.  1.
         25    2    1    2    0    0  0.13117943490E+02  0.23179942040E+02 -0.17585966925E+03  0.21739731848E+03  0.12500232261E+03 0.  0.
          4    1    3    3  502    0  0.29518566315E+02 -0.40181397287E+02 -0.12473687673E+03  0.13433834807E+03  0.12700000000E+01 0. -1.
         -4    1    3    3    0  502 -0.16400622825E+02  0.63361339327E+02 -0.51122792517E+02  0.83058970407E+02  0.12700000000E+01 0. -1.
          2    1    1    2  503    0 -0.33321386304E+02  0.18651659519E+02  0.47899245211E+02  0.61257953605E+02  0.00000000000E+00 0. -1.
         -1    1    1    2    0  501  0.20203442814E+02 -0.41831601558E+02  0.47838638922E+02  0.66682811611E+02  0.00000000000E+00 0.  1.
<mgrwt>
<rscale>  0 0.32968323E+02</rscale>
<asrwt>0</asrwt>
<pdfrwt beam="1">  1        2 0.20401254E-01 0.38186374E+02</pdfrwt>
<pdfrwt beam="2">  1       -1 0.32727682E-01 0.28463302E+02</pdfrwt>
<totfact> 0.24310279E+03</totfact>
</mgrwt>
</event>
<event>
 7    1  0.4251803E-004  0.4853449E+03  0.7546771E-02  0.1017676E+00
          2   -1    0    0  503    0  0.00000000000E+00  0.00000000000E+00  0.14957410782E+03  0.14957410782E+03  0.00000000000E+00 0. -1.
         -1   -1    0    0    0  501 -0.00000000000E+00 -0.00000000000E+00 -0.39371739543E+03  0.39371739543E+03  0.00000000000E+00 0.  1.
         25    2    1    2    0    0 -0.11198620676E+03 -0.13622782355E+03  0.20996554122E+02  0.21717646739E+03  0.12500332911E+03 0.  0.
          4    1    3    3  502    0 -0.83823266785E+02 -0.11091944336E+03 -0.40616768833E+02  0.14484749836E+03  0.12700000000E+01 0.  1.
         -4    1    3    3    0  502 -0.28162939973E+02 -0.25308380193E+02  0.61613322955E+02  0.72328969034E+02  0.12700000000E+01 0.  1.
          2    1    1    2  503    0  0.18752472773E+02  0.51520310668E+02 -0.39086085026E+02  0.67332901981E+02  0.00000000000E+00 0. -1.
         -1    1    1    2    0  501  0.93233733985E+02  0.84707512885E+02 -0.22605375671E+03  0.25878213388E+03  0.00000000000E+00 0.  1.
<mgrwt>
<rscale>  0 0.48534494E+03</rscale>
<asrwt>0</asrwt>
<pdfrwt beam="1">  1        2 0.23011401E-01 0.48534494E+03</pdfrwt>
<pdfrwt beam="2">  1       -1 0.60571907E-01 0.48534494E+03</pdfrwt>
<totfact> 0.76924140E+02</totfact>
</mgrwt>
</event>
<event>
 7    1  0.4251803E-004  0.1446003E+03  0.7546771E-02  0.1367443E+00
          2   -1    0    0  503    0  0.00000000000E+00  0.00000000000E+00  0.19027419260E+04  0.19027419260E+04  0.00000000000E+00 0.  1.
          2   -1    0    0  502    0 -0.00000000000E+00 -0.00000000000E+00 -0.24402622238E+03  0.24402622238E+03  0.00000000000E+00 0. -1.
         25    2    1    2    0    0 -0.53373008829E+02  0.14572555817E+03  0.23083419673E+03  0.30494563456E+03  0.12499118882E+03 0.  0.
          4    1    3    3  501    0 -0.27755832370E+02  0.23508232371E+02  0.15417770363E+03  0.15841527835E+03  0.12700000000E+01 0.  1.
         -4    1    3    3    0  501 -0.25617176458E+02  0.12221732580E+03  0.76656493104E+02  0.14653035621E+03  0.12700000000E+01 0.  1.
          2    1    1    2  502    0  0.21697694308E+02 -0.14222731017E+03 -0.18179088845E+03  0.23183469288E+03  0.00000000000E+00 0. -1.
          2    1    1    2  503    0  0.31675314520E+02 -0.34982480029E+01  0.16096723953E+04  0.16099878209E+04  0.00000000000E+00 0.  1.
<mgrwt>
<rscale>  0 0.67883041E+02</rscale>
<asrwt>0</asrwt>
<pdfrwt beam="1">  1        2 0.29272952E+00 0.31867904E+02</pdfrwt>
<pdfrwt beam="2">  1        2 0.37542497E-01 0.14460026E+03</pdfrwt>
<totfact> 0.22134370E+02</totfact>
</mgrwt>
</event>
<event>
 7    1  0.4251803E-004  0.7613150E+02  0.7546771E-02  0.1371456E+00
          2   -1    0    0  503    0  0.00000000000E+00  0.00000000000E+00  0.94341807839E+03  0.94341807839E+03  0.00000000000E+00 0. -1.
         -3   -1    0    0    0  501 -0.00000000000E+00 -0.00000000000E+00 -0.54065245976E+02  0.54065245976E+02  0.00000000000E+00 0.  1.
         25    2    1    2    0    0  0.10527450640E+03 -0.49119473261E+02  0.62539596676E+03  0.64825921696E+03  0.12499781110E+03 0.  0.
          4    1    3    3  502    0  0.36217170261E+02 -0.63653833795E+02  0.49122289860E+03  0.49665384624E+03  0.12700000000E+01 0. -1.
         -4    1    3    3    0  502  0.69057336135E+02  0.14534360534E+02  0.13417306817E+03  0.15160537072E+03  0.12700000000E+01 0. -1.
          2    1    1    2  503    0 -0.46924679338E+02  0.44290719213E+02  0.28094523801E+03  0.28825998699E+03  0.00000000000E+00 0. -1.
         -3    1    1    2    0  501 -0.58349827058E+02  0.48287540482E+01 -0.16988372354E+02  0.60964120420E+02  0.00000000000E+00 0.  1.
<mgrwt>
<rscale>  0 0.66764100E+02</rscale>
<asrwt>0</asrwt>
<pdfrwt beam="1">  1        2 0.14514123E+00 0.76131499E+02</pdfrwt>
<pdfrwt beam="2">  1       -3 0.83177308E-02 0.58549288E+02</pdfrwt>
<totfact> 0.16048430E+03</totfact>
</mgrwt>
</event>
<event>
 7    1  0.4251803E-004  0.5138899E+02  0.7546771E-02  0.1502311E+00
         -1   -1    0    0    0  501 -0.00000000000E+00  0.00000000000E+00  0.86529330486E+01  0.86529330486E+01  0.00000000000E+00 0.  1.
          2   -1    0    0  503    0  0.00000000000E+00 -0.00000000000E+00 -0.15274067324E+04  0.15274067324E+04  0.00000000000E+00 0. -1.
         25    2    1    2    0    0  0.26818861278E+00 -0.27661301321E+02 -0.68736125210E+03  0.69918158427E+03  0.12499670948E+03 0.  0.
          4    1    3    3  502    0 -0.76101018576E+01 -0.74822191806E+02 -0.32011271242E+03  0.32883131784E+03  0.12700000000E+01 0.  1.
         -4    1    3    3    0  502  0.78782904704E+01  0.47160890485E+02 -0.36724853968E+03  0.37035026643E+03  0.12700000000E+01 0.  1.
          2    1    1    2  503    0 -0.62175266118E+01  0.59524567860E+02 -0.42474587270E+03  0.42894159066E+03  0.00000000000E+00 0. -1.
         -1    1    1    2    0  501  0.59493379990E+01 -0.31863266539E+02 -0.40664667457E+03  0.40793649054E+03  0.00000000000E+00 0.  1.
<mgrwt>
<rscale>  0 0.40813218E+02</rscale>
<asrwt>0</asrwt>
<pdfrwt beam="2">  1        2 0.23498554E+00 0.51388991E+02</pdfrwt>
<pdfrwt beam="1">  1       -1 0.13312211E-02 0.32413923E+02</pdfrwt>
<totfact> 0.15471227E+04</totfact>
</mgrwt>
</event>
<event>
 7    1  0.4251803E-004  0.7384151E+02  0.7546771E-02  0.1375245E+00
         -3   -1    0    0    0  501 -0.00000000000E+00  0.00000000000E+00  0.10380843442E+04  0.10380843442E+04  0.00000000000E+00 0.  1.
          2   -1    0    0  503    0  0.00000000000E+00 -0.00000000000E+00 -0.27469968610E+04  0.27469968610E+04  0.00000000000E+00 0. -1.
         25    2    1    2    0    0  0.80751482082E+02  0.49900821287E+02 -0.86280484561E+03  0.87696544878E+03  0.12500121171E+03 0.  0.
          4    1    3    3  502    0  0.55803234892E+02 -0.26617027568E+02 -0.20137975342E+03  0.21066059235E+03  0.12700000000E+01 0.  1.
         -4    1    3    3    0  502  0.24948247190E+02  0.76517848855E+02 -0.66142509218E+03  0.66630485643E+03  0.12700000000E+01 0.  1.
          2    1    1    2  503    0 -0.25442059747E+02 -0.68988258698E+02 -0.18755606069E+04  0.18770014034E+04  0.00000000000E+00 0. -1.
         -3    1    1    2    0  501 -0.55309422335E+02  0.19087437412E+02  0.10294529356E+04  0.10311143531E+04  0.00000000000E+00 0.  1.
<mgrwt>
<rscale>  0 0.65730460E+02</rscale>
<asrwt>0</asrwt>
<pdfrwt beam="2">  1        2 0.42261490E+00 0.73841508E+02</pdfrwt>
<pdfrwt beam="1">  1       -3 0.15970529E+00 0.58510362E+02</pdfrwt>
<totfact> 0.64804939E-01</totfact>
</mgrwt>
</event>
<event>
 7    1  0.4251803E-004  0.1602488E+03  0.7546771E-02  0.1292730E+00
         -1   -1    0    0    0  501 -0.00000000000E+00  0.00000000000E+00  0.43500053487E+03  0.43500053487E+03  0.00000000000E+00 0.  1.
          2   -1    0    0  503    0  0.00000000000E+00 -0.00000000000E+00 -0.12813737509E+04  0.12813737509E+04  0.00000000000E+00 0. -1.
         25    2    1    2    0    0 -0.18763716911E+03  0.81670450979E+02 -0.27127090559E+03  0.36206840479E+03  0.12501142240E+03 0.  0.
          4    1    3    3  502    0  0.10377515739E+02 -0.13942949825E+02 -0.36224676399E+02  0.40198740812E+02  0.12700000000E+01 0. -1.
         -4    1    3    3    0  502 -0.19801468485E+03  0.95613400804E+02 -0.23504622919E+03  0.32186966397E+03  0.12700000000E+01 0. -1.
          2    1    1    2  503    0  0.13215966785E+03 -0.79839261860E+02 -0.95650400494E+03  0.96888616308E+03  0.00000000000E+00 0. -1.
         -1    1    1    2    0  501  0.55477501258E+02 -0.18311891192E+01  0.38140169449E+03  0.38541971792E+03  0.00000000000E+00 0.  1.
<mgrwt>
<rscale>  0 0.94313552E+02</rscale>
<asrwt>0</asrwt>
<pdfrwt beam="2">  1        2 0.19713442E+00 0.16024883E+03</pdfrwt>
<pdfrwt beam="1">  1       -1 0.66923159E-01 0.55507715E+02</pdfrwt>
<totfact> 0.52146445E+01</totfact>
</mgrwt>
</event>
<event>
 7    1  0.4251803E-004  0.1497571E+03  0.7546771E-02  0.1315065E+00
          2   -1    0    0  502    0  0.00000000000E+00  0.00000000000E+00  0.91417368954E+03  0.91417368954E+03  0.00000000000E+00 0. -1.
          1   -1    0    0  503    0 -0.00000000000E+00 -0.00000000000E+00 -0.81971886202E+02  0.81971886202E+02  0.00000000000E+00 0. -1.
         25    2    1    2    0    0  0.56358561044E+02  0.11336782081E+03  0.20923642488E+03  0.27465143069E+03  0.12499990674E+03 0.  0.
          4    1    3    3  501    0  0.78199856108E+02  0.19018725034E+02  0.10598824267E+03  0.13308662548E+03  0.12700000000E+01 0.  1.
         -4    1    3    3    0  501 -0.21841295064E+02  0.94349095780E+02  0.10324818221E+03  0.14156480521E+03  0.12700000000E+01 0.  1.
          2    1    1    2  502    0  0.45966829279E+02  0.15167190317E+02  0.53102459747E+03  0.53322613980E+03  0.00000000000E+00 0. -1.
          1    1    1    2  503    0 -0.10232539032E+03 -0.12853501113E+03  0.91940780996E+02  0.18826800525E+03  0.00000000000E+00 0. -1.
<mgrwt>
<rscale>  0 0.85140561E+02</rscale>
<asrwt>0</asrwt>
<pdfrwt beam="1">  1        2 0.14064210E+00 0.48404474E+02</pdfrwt>
<pdfrwt beam="2">  1        1 0.12611060E-01 0.14975713E+03</pdfrwt>
<totfact> 0.19899124E+03</totfact>
</mgrwt>
</event>
<event>
 7    1  0.4251803E-004  0.7713143E+02  0.7546771E-02  0.1439489E+00
          2   -1    0    0  503    0  0.00000000000E+00  0.00000000000E+00  0.13915725874E+04  0.13915725874E+04  0.00000000000E+00 0. -1.
         -2   -1    0    0    0  501 -0.00000000000E+00 -0.00000000000E+00 -0.17201397914E+03  0.17201397914E+03  0.00000000000E+00 0.  1.
         25    2    1    2    0    0  0.55046281733E+02  0.34234767349E+02  0.84017688858E+03  0.85189520109E+03  0.12500446836E+03 0.  0.
          4    1    3    3  502    0 -0.11980267318E+02 -0.22741256405E+02  0.49546872063E+03  0.49613663195E+03  0.12700000000E+01 0. -1.
         -4    1    3    3    0  502  0.67026549051E+02  0.56976023754E+02  0.34470816796E+03  0.35575856914E+03  0.12700000000E+01 0. -1.
          2    1    1    2  503    0 -0.52518025183E+02 -0.67996233077E+02  0.54038225183E+03  0.54716963437E+03  0.00000000000E+00 0. -1.
         -2    1    1    2    0  501 -0.25282565496E+01  0.33761465727E+02 -0.16100053214E+03  0.16452173109E+03  0.00000000000E+00 0.  1.
<mgrwt>
<rscale>  0 0.51101485E+02</rscale>
<asrwt>0</asrwt>
<pdfrwt beam="1">  1        2 0.21408808E+00 0.77131435E+02</pdfrwt>
<pdfrwt beam="2">  1       -2 0.26463690E-01 0.33855999E+02</pdfrwt>
<totfact> 0.20904377E+02</totfact>
</mgrwt>
</event>
<event>
 7    1  0.4251803E-004  0.4026289E+02  0.7546771E-02  0.1551719E+00
         -2   -1    0    0    0  501 -0.00000000000E+00  0.00000000000E+00  0.41348656733E+02  0.41348656733E+02  0.00000000000E+00 0.  1.
          1   -1    0    0  503    0  0.00000000000E+00 -0.00000000000E+00 -0.31517443631E+03  0.31517443631E+03  0.00000000000E+00 0. -1.
         25    2    1    2    0    0  0.13462867580E+02  0.21539762682E+02 -0.22688015591E+03  0.26027947898E+03  0.12500236739E+03 0.  0.
          4    1    3    3  502    0  0.15108718242E+01  0.41283485223E+02 -0.10466998750E+02  0.42635429501E+02  0.12700000000E+01 0.  1.
         -4    1    3    3    0  502  0.11951995756E+02 -0.19743722542E+02 -0.21641315716E+03  0.21764404948E+03  0.12700000000E+01 0.  1.
          1    1    1    2  503    0 -0.15702812086E+02 -0.51277271452E+02 -0.35435949615E+02  0.64277860886E+02  0.00000000000E+00 0. -1.
         -2    1    1    2    0  501  0.22399445059E+01  0.29737508770E+02 -0.11509674049E+02  0.31965753174E+02  0.00000000000E+00 0.  1.
<mgrwt>
<rscale>  0 0.34651260E+02</rscale>
<asrwt>0</asrwt>
<pdfrwt beam="2">  1        1 0.48488372E-01 0.40262889E+02</pdfrwt>
<pdfrwt beam="1">  1       -2 0.63613322E-02 0.29821750E+02</pdfrwt>
<totfact> 0.79935838E+03</totfact>
</mgrwt>
</event>
<event>
 7    1  0.4251803E-004  0.7506858E+02  0.7546771E-02  0.1443100E+00
          1   -1    0    0  502    0  0.00000000000E+00  0.00000000000E+00  0.10191032557E+04  0.10191032557E+04  0.00000000000E+00 0. -1.
          3   -1    0    0  503    0 -0.00000000000E+00 -0.00000000000E+00 -0.15767467371E+03  0.15767467371E+03  0.00000000000E+00 0. -1.
         25    2    1    2    0    0  0.61999328284E+02  0.19034476034E+02  0.13448230770E+03  0.19472543155E+03  0.12500509839E+03 0.  0.
          4    1    3    3  501    0  0.98777040454E+02  0.17198003076E+02  0.76901337104E+02  0.12636496183E+03  0.12700000000E+01 0. -1.
         -4    1    3    3    0  501 -0.36777712170E+02  0.18364729582E+01  0.57580970592E+02  0.68360469715E+02  0.12700000000E+01 0. -1.
          1    1    1    2  502    0 -0.75015247295E+02  0.12226041033E+02  0.85052714196E+03  0.85391637917E+03  0.00000000000E+00 0. -1.
          3    1    1    2  503    0  0.13015919012E+02 -0.31260517067E+02 -0.12358086764E+03  0.12813611872E+03  0.00000000000E+00 0. -1.
<mgrwt>
<rscale>  0 0.50417966E+02</rscale>
<asrwt>0</asrwt>
<pdfrwt beam="1">  1        1 0.15678511E+00 0.75068584E+02</pdfrwt>
<pdfrwt beam="2">  1        3 0.24257643E-01 0.33861986E+02</pdfrwt>
<totfact> 0.12325173E+02</totfact>
</mgrwt>
</event>
<event>
 7    1  0.4251803E-004  0.6003038E+02  0.7546771E-02  0.1398404E+00
         -1   -1    0    0    0  501 -0.00000000000E+00  0.00000000000E+00  0.37576351084E+03  0.37576351084E+03  0.00000000000E+00 0.  1.
          1   -1    0    0  503    0  0.00000000000E+00 -0.00000000000E+00 -0.20912813360E+03  0.20912813360E+03  0.00000000000E+00 0. -1.
         25    2    1    2    0    0  0.14596628041E+02  0.10852547691E+02 -0.53941733182E+02  0.13734418563E+03  0.12499150133E+03 0.  0.
          4    1    3    3  502    0  0.41481515989E+02  0.57864750813E+02 -0.22349337894E+02  0.74633446656E+02  0.12700000000E+01 0.  1.
         -4    1    3    3    0  502 -0.26884887948E+02 -0.47012203122E+02 -0.31592395288E+02  0.62710738972E+02  0.12700000000E+01 0.  1.
          1    1    1    2  503    0 -0.20379364868E+02 -0.70269767024E+02 -0.98630625007E+02  0.12280536983E+03  0.00000000000E+00 0. -1.
         -1    1    1    2    0  501  0.57827368265E+01  0.59417219333E+02  0.31920773543E+03  0.32474208898E+03  0.00000000000E+00 0.  1.
<mgrwt>
<rscale>  0 0.59863938E+02</rscale>
<asrwt>0</asrwt>
<pdfrwt beam="2">  1        1 0.32173559E-01 0.60030382E+02</pdfrwt>
<pdfrwt beam="1">  1       -1 0.57809771E-01 0.59697956E+02</pdfrwt>
<totfact> 0.43513903E+02</totfact>
</mgrwt>
</event>
<event>
 7    1  0.4251803E-004  0.6666741E+02  0.7546771E-02  0.1401006E+00
          2   -1    0    0  503    0  0.00000000000E+00  0.00000000000E+00  0.27645232864E+04  0.27645232864E+04  0.00000000000E+00 0. -1.
          2   -1    0    0  502    0 -0.00000000000E+00 -0.00000000000E+00 -0.46945589648E+03  0.46945589648E+03  0.00000000000E+00 0. -1.
         25    2    1    2    0    0 -0.77973941682E+02 -0.82902064166E+02 -0.63949882370E+02  0.18073916626E+03  0.12499748374E+03 0.  0.
          4    1    3    3  501    0 -0.23513473365E+01  0.26778665910E+02 -0.35428116599E+02  0.44490337468E+02  0.12700000000E+01 0. -1.
         -4    1    3    3    0  501 -0.75622594346E+02 -0.10968073008E+03 -0.28521765770E+02  0.13624882880E+03  0.12700000000E+01 0. -1.
          2    1    1    2  502    0  0.33231540706E+02  0.55135573292E+02 -0.34386789243E+03  0.34984195601E+03  0.00000000000E+00 0. -1.
          2    1    1    2  503    0  0.44742400976E+02  0.27766490874E+02  0.27028851647E+04  0.27033980606E+04  0.00000000000E+00 0. -1.
<mgrwt>
<rscale>  0 0.59250059E+02</rscale>
<asrwt>0</asrwt>
<pdfrwt beam="1">  1        2 0.42531126E+00 0.52657957E+02</pdfrwt>
<pdfrwt beam="2">  1        2 0.72223986E-01 0.66667407E+02</pdfrwt>
<totfact> 0.38493293E+01</totfact>
</mgrwt>
</event>
<event>
 7    1  0.4251803E-004  0.9455610E+02  0.7546771E-02  0.1475091E+00
          1   -1    0    0  503    0  0.00000000000E+00  0.00000000000E+00  0.11662716202E+04  0.11662716202E+04  0.00000000000E+00 0. -1.
         -2   -1    0    0    0  501 -0.00000000000E+00 -0.00000000000E+00 -0.19274201841E+02  0.19274201841E+02  0.00000000000E+00 0.  1.
         25    2    1    2    0    0  0.75956566776E+02  0.46293433833E+02  0.39077533014E+03  0.41981351681E+03  0.12500219277E+03 0.  0.
          4    1    3    3  502    0  0.15719862593E+02 -0.27982397076E+02  0.23381190896E+03  0.23600794541E+03  0.12700000000E+01 0. -1.
         -4    1    3    3    0  502  0.60236704183E+02  0.74275830909E+02  0.15696342118E+03  0.18380557140E+03  0.12700000000E+01 0. -1.
          1    1    1    2  503    0 -0.69532196047E+02 -0.66603496135E+02  0.67176596239E+03  0.67863116655E+03  0.00000000000E+00 0. -1.
         -2    1    1    2    0  501 -0.64243707287E+01  0.20310062302E+02  0.84456125806E+02  0.87101138662E+02  0.00000000000E+00 0.  1.
<mgrwt>
<rscale>  0 0.44880120E+02</rscale>
<asrwt>0</asrwt>
<pdfrwt beam="1">  1        1 0.17942635E+00 0.94556104E+02</pdfrwt>
<pdfrwt beam="2">  1       -2 0.29652627E-02 0.21301905E+02</pdfrwt>
<totfact> 0.35739398E+03</totfact>
</mgrwt>
</event>
<event>
 7    1  0.4251803E-004  0.5561554E+02  0.7546771E-02  0.1477800E+00
          3   -1    0    0  503    0  0.00000000000E+00  0.00000000000E+00  0.10621630087E+03  0.10621630087E+03  0.00000000000E+00 0. -1.
         -3   -1    0    0    0  501 -0.00000000000E+00 -0.00000000000E+00 -0.20580930277E+03  0.20580930277E+03  0.00000000000E+00 0.  1.
         25    2    1    2    0    0  0.11904340509E+02  0.51938310857E+02 -0.14346219602E+03  0.19760391721E+03  0.12500641965E+03 0.  0.
          4    1    3    3  502    0 -0.17988450078E+02 -0.37191363517E+02 -0.35926758821E+02  0.54764283578E+02  0.12700000000E+01 0.  1.
         -4    1    3    3    0  502  0.29892790587E+02  0.89129674374E+02 -0.10753543720E+03  0.14283963363E+03  0.12700000000E+01 0.  1.
          3    1    1    2  503    0  0.34793561462E+02 -0.71826399129E+01  0.33656940661E+02  0.48938450016E+02  0.00000000000E+00 0. -1.
         -3    1    1    2    0  501 -0.46697901971E+02 -0.44755670945E+02  0.10212253460E+02  0.65483236411E+02  0.00000000000E+00 0.  1.
<mgrwt>
<rscale>  0 0.44450700E+02</rscale>
<asrwt>0</asrwt>
<pdfrwt beam="1">  1        3 0.16340970E-01 0.35527204E+02</pdfrwt>
<pdfrwt beam="2">  1       -3 0.31662969E-01 0.55615542E+02</pdfrwt>
<totfact> 0.57582383E+02</totfact>
</mgrwt>
</event>
<event>
 7    1  0.4251803E-004  0.6936628E+02  0.7546771E-02  0.1431844E+00
         -1   -1    0    0    0  501 -0.00000000000E+00  0.00000000000E+00  0.18447455126E+03  0.18447455126E+03  0.00000000000E+00 0.  1.
          2   -1    0    0  503    0  0.00000000000E+00 -0.00000000000E+00 -0.11388391457E+03  0.11388391457E+03  0.00000000000E+00 0. -1.
         25    2    1    2    0    0 -0.53421774366E+02 -0.81643225980E+02  0.15503233680E+02  0.15932878791E+03  0.12500324026E+03 0.  0.
          4    1    3    3  502    0  0.30500747509E+02  0.11316896087E+02  0.96086436531E+01  0.33945642850E+02  0.12700000000E+01 0. -1.
         -4    1    3    3    0  502 -0.83922521875E+02 -0.92960122066E+02  0.58945900265E+01  0.12538314506E+03  0.12700000000E+01 0. -1.
          2    1    1    2  503    0  0.38035148326E+01  0.39691647588E+02 -0.15780939459E+02  0.42882766510E+02  0.00000000000E+00 0. -1.
         -1    1    1    2    0  501  0.49618259533E+02  0.41951578391E+02  0.70868342471E+02  0.96146911408E+02  0.00000000000E+00 0.  1.
<mgrwt>
<rscale>  0 0.52591580E+02</rscale>
<asrwt>0</asrwt>
<pdfrwt beam="2">  1        2 0.17520602E-01 0.39873470E+02</pdfrwt>
<pdfrwt beam="1">  1       -1 0.28380700E-01 0.69366280E+02</pdfrwt>
<totfact> 0.37180349E+03</totfact>
</mgrwt>
</event>
<event>
 7    1  0.4251803E-004  0.8083272E+02  0.7546771E-02  0.1366307E+00
         -1   -1    0    0    0  501 -0.00000000000E+00  0.00000000000E+00  0.53605808671E+03  0.53605808671E+03  0.00000000000E+00 0.  1.
          2   -1    0    0  503    0  0.00000000000E+00 -0.00000000000E+00 -0.30772713254E+04  0.30772713254E+04  0.00000000000E+00 0. -1.
         25    2    1    2    0    0  0.76914505435E+02 -0.86649102759E+02 -0.27672767949E+03  0.32498851925E+03  0.12496167769E+03 0.  0.
          4    1    3    3  502    0  0.90596427205E+02 -0.31130335859E+02 -0.96816875284E+02  0.13620547226E+03  0.12700000000E+01 0.  1.
         -4    1    3    3    0  502 -0.13681921769E+02 -0.55518766900E+02 -0.17991080420E+03  0.18878304699E+03  0.12700000000E+01 0.  1.
          2    1    1    2  503    0 -0.17650261426E+01  0.57522286896E+02 -0.27729405804E+04  0.27735377032E+04  0.00000000000E+00 0. -1.
         -1    1    1    2    0  501 -0.75149479293E+02  0.29126815864E+02  0.50845502111E+03  0.51480318971E+03  0.00000000000E+00 0.  1.
<mgrwt>
<rscale>  0 0.68204630E+02</rscale>
<asrwt>0</asrwt>
<pdfrwt beam="2">  1        2 0.47342635E+00 0.57549360E+02</pdfrwt>
<pdfrwt beam="1">  1       -1 0.82470476E-01 0.80832724E+02</pdfrwt>
<totfact> 0.44376243E+00</totfact>
</mgrwt>
</event>
<event>
 7    1  0.4251803E-004  0.6217743E+02  0.7546771E-02  0.1455419E+00
         -2   -1    0    0    0  501 -0.00000000000E+00  0.00000000000E+00  0.12580154145E+03  0.12580154145E+03  0.00000000000E+00 0.  1.
          1   -1    0    0  503    0  0.00000000000E+00 -0.00000000000E+00 -0.15759112045E+03  0.15759112045E+03  0.00000000000E+00 0. -1.
         25    2    1    2    0    0  0.78688015496E+02 -0.24464701345E+02 -0.70117892640E+02  0.16532060415E+03  0.12499623152E+03 0.  0.
          4    1    3    3  502    0  0.39895415403E+02 -0.37553885190E+02 -0.10039813883E+03  0.11438241842E+03  0.12700000000E+01 0.  1.
         -4    1    3    3    0  502  0.38792600092E+02  0.13089183845E+02  0.30280246195E+02  0.50938185728E+02  0.12700000000E+01 0.  1.
          1    1    1    2  503    0 -0.18671662306E+02  0.32327309832E+02 -0.12147165974E+02  0.39258624218E+02  0.00000000000E+00 0. -1.
         -2    1    1    2    0  501 -0.60016353189E+02 -0.78626084874E+01  0.50475479612E+02  0.78813433527E+02  0.00000000000E+00 0.  1.
<mgrwt>
<rscale>  0 0.48178980E+02</rscale>
<asrwt>0</asrwt>
<pdfrwt beam="2">  1        1 0.24244788E-01 0.37332103E+02</pdfrwt>
<pdfrwt beam="1">  1       -2 0.19354083E-01 0.62177426E+02</pdfrwt>
<totfact> 0.34723074E+03</totfact>
</mgrwt>
</event>
<event>
 7    1  0.4251803E-004  0.9510175E+02  0.7546771E-02  0.1438181E+00
          2   -1    0    0  503    0  0.00000000000E+00  0.00000000000E+00  0.19484780337E+04  0.19484780337E+04  0.00000000000E+00 0. -1.
         -2   -1    0    0    0  501 -0.00000000000E+00 -0.00000000000E+00 -0.11691980481E+02  0.11691980481E+02  0.00000000000E+00 0.  1.
         25    2    1    2    0    0 -0.18925115468E+02  0.10110964554E+03  0.93351514284E+03  0.94744740300E+03  0.12499895655E+03 0.  0.
          4    1    3    3  502    0  0.45284871451E+02  0.44136296629E+02  0.22403391737E+03  0.23279076720E+03  0.12700000000E+01 0.  1.
         -4    1    3    3    0  502 -0.64209986919E+02  0.56973348913E+02  0.70948122547E+03  0.71465663581E+03  0.12700000000E+01 0.  1.
          2    1    1    2  503    0  0.40757327248E+02 -0.84014360244E+02  0.92468844020E+03  0.92939135131E+03  0.00000000000E+00 0. -1.
         -2    1    1    2    0  501 -0.21832211781E+02 -0.17095285298E+02  0.78582470150E+02  0.83331259834E+02  0.00000000000E+00 0.  1.
<mgrwt>
<rscale>  0 0.51352420E+02</rscale>
<asrwt>0</asrwt>
<pdfrwt beam="1">  1        2 0.29976559E+00 0.95101754E+02</pdfrwt>
<pdfrwt beam="2">  1       -2 0.17987678E-02 0.27728942E+02</pdfrwt>
<totfact> 0.57312113E+03</totfact>
</mgrwt>
</event>
<event>
 7    1  0.4251803E-004  0.9064887E+02  0.7546771E-02  0.1315779E+00
         -2   -1    0    0    0  501  0.00000000000E+00  0.00000000000E+00  0.28497239016E+03  0.28497239016E+03  0.00000000000E+00 0.  1.
         -2   -1    0    0    0  502 -0.00000000000E+00 -0.00000000000E+00 -0.18623361569E+04  0.18623361569E+04  0.00000000000E+00 0.  1.
         25    2    1    2    0    0 -0.16879544212E+02 -0.50401407643E+02 -0.26809759683E+03  0.30056932033E+03  0.12506148086E+03 0.  0.
          4    1    3    3  503    0  0.35685739233E+02 -0.49804897861E+02 -0.22308937578E+03  0.23135358723E+03  0.12700000000E+01 0. -1.
         -4    1    3    3    0  503 -0.52565283445E+02 -0.59650978167E+00 -0.45008221050E+02  0.69215733108E+02  0.12700000000E+01 0. -1.
         -2    1    1    2    0  502 -0.58191204647E+02  0.76430683321E+02 -0.15706300245E+04  0.15735649143E+04  0.00000000000E+00 0.  1.
         -2    1    1    2    0  501  0.75070748859E+02 -0.26029275678E+02  0.26136385456E+03  0.27317431247E+03  0.00000000000E+00 0.  1.
<mgrwt>
<rscale>  0 0.84867727E+02</rscale>
<asrwt>0</asrwt>
<pdfrwt beam="1">  1       -2 0.43841908E-01 0.79455274E+02</pdfrwt>
<pdfrwt beam="2">  1       -2 0.28651325E+00 0.90648875E+02</pdfrwt>
<totfact> 0.16053965E+00</totfact>
</mgrwt>
</event>
<event>
 7    1  0.4251803E-004  0.1662342E+03  0.7546771E-02  0.1303273E+00
          2   -1    0    0  503    0  0.00000000000E+00  0.00000000000E+00  0.36467038439E+03  0.36467038439E+03  0.00000000000E+00 0. -1.
         -1   -1    0    0    0  501 -0.00000000000E+00 -0.00000000000E+00 -0.54233795415E+03  0.54233795415E+03  0.00000000000E+00 0.  1.
         25    2    1    2    0    0  0.20169113167E+02  0.12416867164E+03 -0.86578575327E+02  0.19734619238E+03  0.12500007119E+03 0.  0.
          4    1    3    3  502    0 -0.43438953973E+02  0.70879205988E+01 -0.19317976510E+02  0.48083037104E+02  0.12700000000E+01 0.  1.
         -4    1    3    3    0  502  0.63608067140E+02  0.11708075104E+03 -0.67260598817E+02  0.14926315527E+03  0.12700000000E+01 0.  1.
          2    1    1    2  503    0 -0.39649973313E+02 -0.16862653196E+03  0.28334156045E+03  0.33209858107E+03  0.00000000000E+00 0. -1.
         -1    1    1    2    0  501  0.19480860146E+02  0.44457860322E+02 -0.37443055489E+03  0.37756356510E+03  0.00000000000E+00 0.  1.
<mgrwt>
<rscale>  0 0.89826453E+02</rscale>
<asrwt>0</asrwt>
<pdfrwt beam="1">  1        2 0.56103136E-01 0.16623420E+03</pdfrwt>
<pdfrwt beam="2">  1       -1 0.83436608E-01 0.48538699E+02</pdfrwt>
<totfact> 0.16052417E+02</totfact>
</mgrwt>
</event>
<event>
 7    1  0.4251803E-004  0.1184292E+03  0.7546771E-02  0.1325994E+00
          2   -1    0    0  502    0  0.00000000000E+00  0.00000000000E+00  0.23945603965E+04  0.23945603965E+04  0.00000000000E+00 0.  1.
          1   -1    0    0  503    0 -0.00000000000E+00 -0.00000000000E+00 -0.10806731079E+04  0.10806731079E+04  0.00000000000E+00 0. -1.
         25    2    1    2    0    0 -0.52141891888E+02  0.14576765166E+03 -0.23682641768E+03  0.30932253371E+03  0.12500677018E+03 0.  0.
          4    1    3    3  501    0 -0.55750058853E+02  0.16755530142E+03 -0.21528572433E+03  0.27844641154E+03  0.12700000000E+01 0.  1.
         -4    1    3    3    0  501  0.36081669652E+01 -0.21787649758E+02 -0.21540693344E+02  0.30876122175E+02  0.12700000000E+01 0.  1.
          2    1    1    2  502    0  0.71921051699E+02 -0.93890792813E+02  0.23558729344E+04  0.23588398423E+04  0.00000000000E+00 0.  1.
          1    1    1    2  503    0 -0.19779159811E+02 -0.51876858850E+02 -0.80515922812E+03  0.80707112839E+03  0.00000000000E+00 0. -1.
<mgrwt>
<rscale>  0 0.81087226E+02</rscale>
<asrwt>0</asrwt>
<pdfrwt beam="1">  1        2 0.36839391E+00 0.11842918E+03</pdfrwt>
<pdfrwt beam="2">  1        1 0.16625740E+00 0.55519579E+02</pdfrwt>
<totfact> 0.10856952E+01</totfact>
</mgrwt>
</event>
<event>
 7    1  0.4251803E-004  0.6026141E+02  0.7546771E-02  0.1524980E+00
          1   -1    0    0  503    0  0.00000000000E+00  0.00000000000E+00  0.57082459909E+03  0.57082459909E+03  0.00000000000E+00 0. -1.
          1   -1    0    0  502    0 -0.00000000000E+00 -0.00000000000E+00 -0.40506019814E+03  0.40506019814E+03  0.00000000000E+00 0. -1.
         25    2    1    2    0    0 -0.13564910197E+02 -0.36185327876E+02  0.12529415581E+03  0.18115543785E+03  0.12500112975E+03 0.  0.
          4    1    3    3  501    0  0.53437897324E+02 -0.30931568996E+02  0.75275520032E+02  0.97367282221E+02  0.12700000000E+01 0.  1.
         -4    1    3    3    0  501 -0.67002807521E+02 -0.52537588798E+01  0.50018635780E+02  0.83788155627E+02  0.12700000000E+01 0.  1.
          1    1    1    2  502    0 -0.12686091478E+02 -0.20045490411E+02 -0.37444668362E+03  0.37519738469E+03  0.00000000000E+00 0. -1.
          1    1    1    2  503    0  0.26251001675E+02  0.56230818288E+02  0.41491692876E+03  0.41953197469E+03  0.00000000000E+00 0. -1.
<mgrwt>
<rscale>  0 0.37809434E+02</rscale>
<asrwt>0</asrwt>
<pdfrwt beam="1">  1        1 0.87819169E-01 0.60261408E+02</pdfrwt>
<pdfrwt beam="2">  1        1 0.62316953E-01 0.23722534E+02</pdfrwt>
<totfact> 0.29063924E+02</totfact>
</mgrwt>
</event>
<event>
 7    1  0.4251803E-004  0.3775809E+02  0.7546771E-02  0.1541113E+00
         -2   -1    0    0    0  501 -0.00000000000E+00  0.00000000000E+00  0.66664953335E+02  0.66664953335E+02  0.00000000000E+00 0. -1.
          2   -1    0    0  503    0  0.00000000000E+00 -0.00000000000E+00 -0.23171201947E+04  0.23171201947E+04  0.00000000000E+00 0. -1.
         25    2    1    2    0    0 -0.59261378768E+01 -0.35048285130E+02 -0.39944395072E+03  0.42003301037E+03  0.12493501766E+03 0.  0.
          4    1    3    3  502    0  0.49855167037E+02 -0.45366686954E+02 -0.15391956435E+03  0.16803725526E+03  0.12700000000E+01 0. -1.
         -4    1    3    3    0  502 -0.55781304913E+02  0.10318401824E+02 -0.24552438637E+03  0.25199575511E+03  0.12700000000E+01 0. -1.
          2    1    1    2  503    0 -0.28429703179E+02  0.18744490056E+02 -0.19007982654E+04  0.19011032717E+04  0.00000000000E+00 0. -1.
         -2    1    1    2    0  501  0.34355841056E+02  0.16303795075E+02  0.49786974764E+02  0.62648865948E+02  0.00000000000E+00 0. -1.
<mgrwt>
<rscale>  0 0.35857699E+02</rscale>
<asrwt>0</asrwt>
<pdfrwt beam="2">  1        2 0.35648009E+00 0.34052958E+02</pdfrwt>
<pdfrwt beam="1">  1       -2 0.10256145E-01 0.37758088E+02</pdfrwt>
<totfact> 0.36745941E+02</totfact>
</mgrwt>
</event>
<event>
 7    1  0.4251803E-004  0.6783242E+02  0.7546771E-02  0.1377256E+00
          2   -1    0    0  502    0  0.00000000000E+00  0.00000000000E+00  0.10348308392E+03  0.10348308392E+03  0.00000000000E+00 0.  1.
          2   -1    0    0  503    0 -0.00000000000E+00 -0.00000000000E+00 -0.23286006349E+04  0.23286006349E+04  0.00000000000E+00 0. -1.
         25    2    1    2    0    0 -0.79267884255E+01 -0.18631230033E+02 -0.87214993656E+02  0.15375979130E+03  0.12500264635E+03 0.  0.
          4    1    3    3  501    0 -0.21863990990E+02 -0.51234198587E+02  0.40251526763E+01  0.55864048912E+02  0.12700000000E+01 0. -1.
         -4    1    3    3    0  501  0.13937202564E+02  0.32602968554E+02 -0.91240146333E+02  0.97895742383E+02  0.12700000000E+01 0. -1.
          2    1    1    2  502    0 -0.60776076254E+02  0.15215951873E+02  0.55586655661E+02  0.83756390346E+02  0.00000000000E+00 0.  1.
          2    1    1    2  503    0  0.68702864679E+02  0.34152781601E+01 -0.21934892130E+04  0.21945675372E+04  0.00000000000E+00 0. -1.
<mgrwt>
<rscale>  0 0.65190706E+02</rscale>
<asrwt>0</asrwt>
<pdfrwt beam="1">  1        2 0.15920476E-01 0.62651869E+02</pdfrwt>
<pdfrwt beam="2">  1        2 0.35824623E+00 0.67832424E+02</pdfrwt>
<totfact> 0.31082471E+02</totfact>
</mgrwt>
</event>
<event>
 7    1  0.4251803E-004  0.9560993E+02  0.7546771E-02  0.1392776E+00
          1   -1    0    0  503    0 -0.00000000000E+00  0.00000000000E+00  0.32180096064E+03  0.32180096064E+03  0.00000000000E+00 0. -1.
          2   -1    0    0  502    0  0.00000000000E+00 -0.00000000000E+00 -0.22987774489E+03  0.22987774489E+03  0.00000000000E+00 0. -1.
         25    2    1    2    0    0  0.78464525682E+01  0.11975441220E+03  0.44440477026E+02  0.17889404890E+03  0.12500175469E+03 0.  0.
          4    1    3    3  501    0 -0.36529795282E+02  0.60746159073E+02 -0.27271699250E+02  0.75959727918E+02  0.12700000000E+01 0.  1.
         -4    1    3    3    0  501  0.44376247850E+02  0.59008253125E+02  0.71712176276E+02  0.10293432098E+03  0.12700000000E+01 0.  1.
          2    1    1    2  502    0  0.22149871192E+02 -0.32344383331E+02 -0.14984550657E+03  0.15488851399E+03  0.00000000000E+00 0. -1.
          1    1    1    2  503    0 -0.29996323761E+02 -0.87410028866E+02  0.19732824529E+03  0.21789614264E+03  0.00000000000E+00 0. -1.
<mgrwt>
<rscale>  0 0.61221523E+02</rscale>
<asrwt>0</asrwt>
<pdfrwt beam="2">  1        2 0.35365807E-01 0.39201734E+02</pdfrwt>
<pdfrwt beam="1">  1        1 0.49507840E-01 0.95609927E+02</pdfrwt>
<totfact> 0.15445428E+03</totfact>
</mgrwt>
</event>
<event>
 7    1  0.4251803E-004  0.3431948E+02  0.7546771E-02  0.1642059E+00
          2   -1    0    0  502    0  0.00000000000E+00  0.00000000000E+00  0.86229993855E+03  0.86229993855E+03  0.00000000000E+00 0.  1.
          3   -1    0    0  503    0 -0.00000000000E+00 -0.00000000000E+00 -0.93451236549E+02  0.93451236549E+02  0.00000000000E+00 0. -1.
         25    2    1    2    0    0 -0.22929666124E+02 -0.48810159094E+02  0.28878345173E+03  0.31926073025E+03  0.12499332248E+03 0.  0.
          4    1    3    3  501    0  0.15443202470E+02  0.25924285375E+02  0.17626493485E+03  0.17883372510E+03  0.12700000000E+01 0.  1.
         -4    1    3    3    0  501 -0.38372868595E+02 -0.74734444469E+02  0.11251851688E+03  0.14042700515E+03  0.12700000000E+01 0.  1.
          2    1    1    2  502    0  0.14393261112E+02  0.30432869803E+02  0.55644810957E+03  0.55746553632E+03  0.00000000000E+00 0.  1.
          3    1    1    2  503    0  0.85364050126E+01  0.18377289291E+02 -0.76382859309E+02  0.79024908532E+02  0.00000000000E+00 0. -1.
<mgrwt>
<rscale>  0 0.26370827E+02</rscale>
<asrwt>0</asrwt>
<pdfrwt beam="1">  1        2 0.13266152E+00 0.34319480E+02</pdfrwt>
<pdfrwt beam="2">  1        3 0.14377114E-01 0.20263143E+02</pdfrwt>
<totfact> 0.64473253E+02</totfact>
</mgrwt>
</event>
<event>
 7    1  0.4251803E-004  0.6276960E+02  0.7546771E-02  0.1471207E+00
          1   -1    0    0  502    0  0.00000000000E+00  0.00000000000E+00  0.57219630124E+03  0.57219630124E+03  0.00000000000E+00 0. -1.
          1   -1    0    0  503    0 -0.00000000000E+00 -0.00000000000E+00 -0.80893378740E+03  0.80893378740E+03  0.00000000000E+00 0. -1.
         25    2    1    2    0    0 -0.74710144899E+02  0.41218394411E+02 -0.31288786065E+03  0.34756989479E+03  0.12500182652E+03 0.  0.
          4    1    3    3  501    0 -0.63643044728E+00 -0.37254345108E+02 -0.43035624578E+02  0.56938292527E+02  0.12700000000E+01 0.  1.
         -4    1    3    3    0  501 -0.74073714452E+02  0.78472739518E+02 -0.26985223607E+03  0.29063160226E+03  0.12700000000E+01 0.  1.
          1    1    1    2  502    0  0.32880112885E+02  0.26961349471E+01  0.55244028549E+03  0.55342446639E+03  0.00000000000E+00 0. -1.
          1    1    1    2  503    0  0.41830032014E+02 -0.43914529358E+02 -0.47628991100E+03  0.48013572746E+03  0.00000000000E+00 0. -1.
<mgrwt>
<rscale>  0 0.45506026E+02</rscale>
<asrwt>0</asrwt>
<pdfrwt beam="1">  1        1 0.88030200E-01 0.32990468E+02</pdfrwt>
<pdfrwt beam="2">  1        1 0.12445135E+00 0.62769598E+02</pdfrwt>
<totfact> 0.11755922E+02</totfact>
</mgrwt>
</event>
<event>
 7    1  0.4251803E-004  0.1550056E+03  0.7546771E-02  0.1263162E+00
          2   -1    0    0  502    0  0.00000000000E+00  0.00000000000E+00  0.84633128213E+03  0.84633128213E+03  0.00000000000E+00 0.  1.
          1   -1    0    0  503    0 -0.00000000000E+00 -0.00000000000E+00 -0.11769485908E+04  0.11769485908E+04  0.00000000000E+00 0.  1.
         25    2    1    2    0    0 -0.61215180770E+02  0.10615708092E+03 -0.63017687134E+03  0.65403702798E+03  0.12499968243E+03 0.  0.
          4    1    3    3  501    0 -0.27219257786E+02 -0.18457644832E+02 -0.25778223944E+03  0.25987471697E+03  0.12700000000E+01 0.  1.
         -4    1    3    3    0  501 -0.33995922984E+02  0.12461472575E+03 -0.37239463190E+03  0.39416231101E+03  0.12700000000E+01 0.  1.
          2    1    1    2  502    0  0.13294854436E+03 -0.80736278906E+02  0.82438385747E+03  0.83892932160E+03  0.00000000000E+00 0.  1.
          1    1    1    2  503    0 -0.71733363590E+02 -0.25420802014E+02 -0.52482429482E+03  0.53031352336E+03  0.00000000000E+00 0.  1.
<mgrwt>
<rscale>  0 0.10861226E+03</rscale>
<asrwt>0</asrwt>
<pdfrwt beam="1">  1        2 0.13020481E+00 0.15500563E+03</pdfrwt>
<pdfrwt beam="2">  1        1 0.18106901E+00 0.76104485E+02</pdfrwt>
<totfact> 0.60556001E+01</totfact>
</mgrwt>
</event>
<event>
 7    1  0.4251803E-004  0.1218913E+03  0.7546771E-02  0.1250251E+00
          1   -1    0    0  503    0  0.00000000000E+00  0.00000000000E+00  0.25664319166E+03  0.25664319166E+03  0.00000000000E+00 0. -1.
         -2   -1    0    0    0  501 -0.00000000000E+00 -0.00000000000E+00 -0.25906737962E+03  0.25906737962E+03  0.00000000000E+00 0.  1.
         25    2    1    2    0    0  0.91503224138E+01  0.45392276435E+02  0.15446004556E+02  0.13420239079E+03  0.12501006150E+03 0.  0.
          4    1    3    3  502    0 -0.38256472468E+02  0.11210317316E+02 -0.37930384046E+02  0.55041401089E+02  0.12700000000E+01 0. -1.
         -4    1    3    3    0  502  0.47406794881E+02  0.34181959119E+02  0.53376388602E+02  0.79160989700E+02  0.12700000000E+01 0. -1.
          1    1    1    2  503    0  0.66123000531E+02 -0.14126420646E+03  0.12050573061E+03  0.19710265939E+03  0.00000000000E+00 0. -1.
         -2    1    1    2    0  501 -0.75273322945E+02  0.95871930030E+02 -0.13837592312E+03  0.18440552111E+03  0.00000000000E+00 0.  1.
<mgrwt>
<rscale>  0 0.11576529E+03</rscale>
<asrwt>0</asrwt>
<pdfrwt beam="1">  1        1 0.39483568E-01 0.10994711E+03</pdfrwt>
<pdfrwt beam="2">  1       -2 0.39856520E-01 0.12189135E+03</pdfrwt>
<totfact> 0.56083409E+02</totfact>
</mgrwt>
</event>
<event>
 7    1  0.4251803E-004  0.6961088E+02  0.7546771E-02  0.1440103E+00
          1   -1    0    0  503    0  0.00000000000E+00  0.00000000000E+00  0.53682705143E+03  0.53682705143E+03  0.00000000000E+00 0. -1.
         -1   -1    0    0    0  501 -0.00000000000E+00 -0.00000000000E+00 -0.58871290252E+02  0.58871290252E+02  0.00000000000E+00 0.  1.
         25    2    1    2    0    0  0.12140959305E+02 -0.10044774484E+03  0.25689139143E+03  0.30307632128E+03  0.12499966877E+03 0.  0.
          4    1    3    3  502    0 -0.73048098014E+01 -0.70108333782E+02  0.25753673226E+03  0.26701183508E+03  0.12700000000E+01 0.  1.
         -4    1    3    3    0  502  0.19445769107E+02 -0.30339411061E+02 -0.64534082868E+00  0.36064486195E+02  0.12700000000E+01 0.  1.
          1    1    1    2  503    0 -0.55241881264E+01  0.63696718397E+02  0.24166158066E+03  0.24997621518E+03  0.00000000000E+00 0. -1.
         -1    1    1    2    0  501 -0.66167711791E+01  0.36751026446E+02 -0.20597210913E+02  0.42645805222E+02  0.00000000000E+00 0.  1.
<mgrwt>
<rscale>  0 0.50984355E+02</rscale>
<asrwt>0</asrwt>
<pdfrwt beam="1">  1        1 0.82588774E-01 0.69610880E+02</pdfrwt>
<pdfrwt beam="2">  1       -1 0.90571219E-02 0.37341928E+02</pdfrwt>
<totfact> 0.26225800E+03</totfact>
</mgrwt>
</event>
<event>
 7    1  0.4251803E-004  0.8354787E+02  0.7546771E-02  0.1372615E+00
          1   -1    0    0  503    0  0.00000000000E+00  0.00000000000E+00  0.78441867407E+02  0.78441867407E+02  0.00000000000E+00 0. -1.
         -1   -1    0    0    0  501 -0.00000000000E+00 -0.00000000000E+00 -0.28311644992E+03  0.28311644992E+03  0.00000000000E+00 0.  1.
         25    2    1    2    0    0  0.22129168966E+02 -0.97695741418E+02 -0.12168729216E+03  0.20115743753E+03  0.12498943791E+03 0.  0.
          4    1    3    3  502    0  0.28661433644E+02 -0.94410061119E+02 -0.21873729015E+02  0.10106834490E+03  0.12700000000E+01 0.  1.
         -4    1    3    3    0  502 -0.65322646782E+01 -0.32856802987E+01 -0.99813563141E+02  0.10008909263E+03  0.12700000000E+01 0.  1.
          1    1    1    2  503    0 -0.48162195640E+02  0.21746247541E+02 -0.14309345111E+02  0.54747180096E+02  0.00000000000E+00 0. -1.
         -1    1    1    2    0  501  0.26033026675E+02  0.75949493877E+02 -0.68677945250E+02  0.10565369971E+03  0.00000000000E+00 0.  1.
<mgrwt>
<rscale>  0 0.66445540E+02</rscale>
<asrwt>0</asrwt>
<pdfrwt beam="1">  1        1 0.12067979E-01 0.52844076E+02</pdfrwt>
<pdfrwt beam="2">  1       -1 0.43556378E-01 0.83547867E+02</pdfrwt>
<totfact> 0.24183086E+03</totfact>
</mgrwt>
</event>
<event>
 7    1  0.4251803E-004  0.8406818E+02  0.7546771E-02  0.1342731E+00
          2   -1    0    0  502    0  0.00000000000E+00  0.00000000000E+00  0.65611170925E+03  0.65611170925E+03  0.00000000000E+00 0.  1.
          3   -1    0    0  503    0 -0.00000000000E+00 -0.00000000000E+00 -0.11830775205E+03  0.11830775205E+03  0.00000000000E+00 0. -1.
         25    2    1    2    0    0 -0.26053356878E+02 -0.28604836581E+02  0.40064229603E+02  0.13684519616E+03  0.12499780454E+03 0.  0.
          4    1    3    3  501    0  0.35244601829E+02  0.47950085098E+01  0.54938396972E+02  0.65460021590E+02  0.12700000000E+01 0. -1.
         -4    1    3    3    0  501 -0.61297958707E+02 -0.33399845091E+02 -0.14874167369E+02  0.71385174572E+02  0.12700000000E+01 0. -1.
          2    1    1    2  502    0  0.88209748955E+02  0.21030846969E+01  0.54692598420E+03  0.55399766694E+03  0.00000000000E+00 0.  1.
          3    1    1    2  503    0 -0.62156392077E+02  0.26501751884E+02 -0.49186256604E+02  0.83576598206E+02  0.00000000000E+00 0. -1.
<mgrwt>
<rscale>  0 0.75369230E+02</rscale>
<asrwt>0</asrwt>
<pdfrwt beam="1">  1        2 0.10094026E+00 0.84068175E+02</pdfrwt>
<pdfrwt beam="2">  1        3 0.18201193E-01 0.67570407E+02</pdfrwt>
<totfact> 0.69409546E+02</totfact>
</mgrwt>
</event>
<event>
 7    1  0.4251803E-004  0.6097099E+02  0.7546771E-02  0.1438844E+00
          1   -1    0    0  502    0  0.00000000000E+00  0.00000000000E+00  0.79326866960E+03  0.79326866960E+03  0.00000000000E+00 0. -1.
          1   -1    0    0  503    0 -0.00000000000E+00 -0.00000000000E+00 -0.53787597968E+03  0.53787597968E+03  0.00000000000E+00 0. -1.
         25    2    1    2    0    0 -0.50366944994E+02 -0.48144688895E+02  0.23233106171E+03  0.27286889526E+03  0.12499988620E+03 0.  0.
          4    1    3    3  501    0  0.18884095934E+02 -0.60482571451E+02  0.62349371972E+02  0.88903361094E+02  0.12700000000E+01 0.  1.
         -4    1    3    3    0  501 -0.69251040928E+02  0.12337882555E+02  0.16998168973E+03  0.18396553416E+03  0.12700000000E+01 0.  1.
          1    1    1    2  502    0  0.91952770452E+01  0.60677877710E+02  0.53802665095E+03  0.54151549849E+03  0.00000000000E+00 0. -1.
          1    1    1    2  503    0  0.41171667948E+02 -0.12533188815E+02 -0.51496502274E+03  0.51676025554E+03  0.00000000000E+00 0. -1.
<mgrwt>
<rscale>  0 0.51225104E+02</rscale>
<asrwt>0</asrwt>
<pdfrwt beam="1">  1        1 0.12204133E+00 0.60970994E+02</pdfrwt>
<pdfrwt beam="2">  1        1 0.82750151E-01 0.43037043E+02</pdfrwt>
<totfact> 0.13002791E+02</totfact>
</mgrwt>
</event>
<event>
 7    1  0.4251803E-004  0.6150702E+02  0.7546771E-02  0.1394356E+00
          1   -1    0    0  503    0  0.00000000000E+00  0.00000000000E+00  0.15519692540E+04  0.15519692540E+04  0.00000000000E+00 0. -1.
         -1   -1    0    0    0  501 -0.00000000000E+00 -0.00000000000E+00 -0.38940350571E+02  0.38940350571E+02  0.00000000000E+00 0.  1.
         25    2    1    2    0    0  0.21321350404E+02 -0.30602616929E+02  0.39216103247E+03  0.41328830753E+03  0.12500331838E+03 0.  0.
          4    1    3    3  502    0  0.61428829851E+02 -0.16378503141E+02  0.10326821726E+03  0.12127528230E+03  0.12700000000E+01 0.  1.
         -4    1    3    3    0  502 -0.40107479447E+02 -0.14224113788E+02  0.28889281521E+03  0.29201302523E+03  0.12700000000E+01 0.  1.
          1    1    1    2  503    0 -0.64652007968E+02 -0.11149273740E+02  0.11152597018E+04  0.11171877151E+04  0.00000000000E+00 0. -1.
         -1    1    1    2    0  501  0.43330657564E+02  0.41751890670E+02  0.56081691707E+01  0.60433581896E+02  0.00000000000E+00 0.  1.
<mgrwt>
<rscale>  0 0.60836253E+02</rscale>
<asrwt>0</asrwt>
<pdfrwt beam="1">  1        1 0.23876445E+00 0.61507018E+02</pdfrwt>
<pdfrwt beam="2">  1       -1 0.59908244E-02 0.60172803E+02</pdfrwt>
<totfact> 0.90322289E+02</totfact>
</mgrwt>
</event>
<event>
 7    1  0.4251803E-004  0.7570760E+02  0.7546771E-02  0.1472391E+00
          2   -1    0    0  503    0  0.00000000000E+00  0.00000000000E+00  0.22833891962E+03  0.22833891962E+03  0.00000000000E+00 0. -1.
         -1   -1    0    0    0  501 -0.00000000000E+00 -0.00000000000E+00 -0.93516141977E+02  0.93516141977E+02  0.00000000000E+00 0.  1.
         25    2    1    2    0    0  0.84299524533E+02 -0.41634447312E+02  0.11771156957E+03  0.19575420465E+03  0.12499543186E+03 0.  0.
          4    1    3    3  502    0  0.80210853953E+02  0.27436047663E+02  0.47552029828E+02  0.97207644987E+02  0.12700000000E+01 0.  1.
         -4    1    3    3    0  502  0.40886705804E+01 -0.69070494975E+02  0.70159539747E+02  0.98546559659E+02  0.12700000000E+01 0.  1.
          2    1    1    2  503    0 -0.58016181821E+02  0.34941286700E+02  0.49477022303E+02  0.83873396291E+02  0.00000000000E+00 0. -1.
         -1    1    1    2    0  501 -0.26283342712E+02  0.66931606120E+01 -0.32365814232E+02  0.42227460663E+02  0.00000000000E+00 0.  1.
<mgrwt>
<rscale>  0 0.45313958E+02</rscale>
<asrwt>0</asrwt>
<pdfrwt beam="1">  1        2 0.35129064E-01 0.75707595E+02</pdfrwt>
<pdfrwt beam="2">  1       -1 0.14387099E-01 0.27122177E+02</pdfrwt>
<totfact> 0.49603742E+03</totfact>
</mgrwt>
</event>
<event>
 7    1  0.4251803E-004  0.1098347E+03  0.7546771E-02  0.1450463E+00
          2   -1    0    0  503    0  0.00000000000E+00  0.00000000000E+00  0.72795275936E+03  0.72795275936E+03  0.00000000000E+00 0.  1.
         -2   -1    0    0    0  501 -0.00000000000E+00 -0.00000000000E+00 -0.11253823851E+03  0.11253823851E+03  0.00000000000E+00 0.  1.
         25    2    1    2    0    0 -0.93715323245E+02  0.32633884494E+02  0.61251762475E+03  0.63296662458E+03  0.12498549908E+03 0.  0.
          4    1    3    3  502    0 -0.20820769679E+02  0.46816873146E+02  0.46490528602E+03  0.46772199214E+03  0.12700000000E+01 0.  1.
         -4    1    3    3    0  502 -0.72894553566E+02 -0.14182988652E+02  0.14761233872E+03  0.16524463244E+03  0.12700000000E+01 0.  1.
          2    1    1    2  503    0 -0.15388525792E+02 -0.15605006039E+02  0.73339573447E+02  0.76544209271E+02  0.00000000000E+00 0.  1.
         -2    1    1    2    0  501  0.10910384904E+03 -0.17028878455E+02 -0.70442677342E+02  0.13098016402E+03  0.00000000000E+00 0.  1.
<mgrwt>
<rscale>  0 0.49062880E+02</rscale>
<asrwt>0</asrwt>
<pdfrwt beam="1">  1        2 0.11199273E+00 0.21916271E+02</pdfrwt>
<pdfrwt beam="2">  1       -2 0.17313576E-01 0.10983466E+03</pdfrwt>
<totfact> 0.11291007E+03</totfact>
</mgrwt>
</event>
<event>
 7    1  0.4251803E-004  0.4297487E+02  0.7546771E-02  0.1573104E+00
         -2   -1    0    0    0  501 -0.00000000000E+00  0.00000000000E+00  0.31237818377E+02  0.31237818377E+02  0.00000000000E+00 0.  1.
          1   -1    0    0  503    0  0.00000000000E+00 -0.00000000000E+00 -0.58641773196E+03  0.58641773196E+03  0.00000000000E+00 0. -1.
         25    2    1    2    0    0 -0.57526127674E+02 -0.22316379420E+02 -0.17311561680E+03  0.22226812269E+03  0.12500730151E+03 0.  0.
          4    1    3    3  502    0 -0.56949063391E+02 -0.14653804115E+02 -0.19254893610E+03  0.20133215215E+03  0.12700000000E+01 0. -1.
         -4    1    3    3    0  502 -0.57706428283E+00 -0.76625753054E+01  0.19433319301E+02  0.20935970542E+02  0.12700000000E+01 0. -1.
          1    1    1    2  503    0  0.21449890734E+02  0.11648068044E+02 -0.33132411079E+03  0.33222197653E+03  0.00000000000E+00 0. -1.
         -2    1    1    2    0  501  0.36076236941E+02  0.10668311376E+02 -0.50740185999E+02  0.63165451116E+02  0.00000000000E+00 0.  1.
<mgrwt>
<rscale>  0 0.32387534E+02</rscale>
<asrwt>0</asrwt>
<pdfrwt beam="2">  1        1 0.90218114E-01 0.24408509E+02</pdfrwt>
<pdfrwt beam="1">  1       -2 0.48058181E-02 0.42974865E+02</pdfrwt>
<totfact> 0.59780065E+03</totfact>
</mgrwt>
</event>
<event>
 7    1  0.4251803E-004  0.6586820E+02  0.7546771E-02  0.1526221E+00
          2   -1    0    0  502    0  0.00000000000E+00  0.00000000000E+00  0.49996527706E+03  0.49996527706E+03  0.00000000000E+00 0.  1.
          1   -1    0    0  503    0 -0.00000000000E+00 -0.00000000000E+00 -0.35959593081E+03  0.35959593081E+03  0.00000000000E+00 0. -1.
         25    2    1    2    0    0 -0.58326136753E+02 -0.91019616430E+00 -0.26465748108E+03  0.29844732889E+03  0.12499783656E+03 0.  0.
          4    1    3    3  501    0 -0.18454962505E+02  0.60433515920E+02 -0.10051970887E+03  0.11873761097E+03  0.12700000000E+01 0. -1.
         -4    1    3    3    0  501 -0.39871174249E+02 -0.61343712084E+02 -0.16413777221E+03  0.17970971792E+03  0.12700000000E+01 0. -1.
          2    1    1    2  502    0 -0.14339954606E+02 -0.16052999656E+02  0.46492769578E+03  0.46542571416E+03  0.00000000000E+00 0.  1.
          1    1    1    2  503    0  0.72666091360E+02  0.16963195820E+02 -0.59900868451E+02  0.95688164823E+02  0.00000000000E+00 0. -1.
<mgrwt>
<rscale>  0 0.37654008E+02</rscale>
<asrwt>0</asrwt>
<pdfrwt beam="1">  1        2 0.76917734E-01 0.21525174E+02</pdfrwt>
<pdfrwt beam="2">  1        1 0.55322451E-01 0.65868195E+02</pdfrwt>
<totfact> 0.61618859E+02</totfact>
</mgrwt>
</event>
<event>
 7    1  0.4251803E-004  0.2000998E+03  0.7546771E-02  0.1359075E+00
          1   -1    0    0  503    0 -0.00000000000E+00  0.00000000000E+00  0.21294106687E+04  0.21294106687E+04  0.00000000000E+00 0. -1.
          2   -1    0    0  502    0  0.00000000000E+00 -0.00000000000E+00 -0.10188662135E+04  0.10188662135E+04  0.00000000000E+00 0. -1.
         25    2    1    2    0    0 -0.11823863713E+03 -0.16610740393E+03 -0.10157009094E+03  0.25983282778E+03  0.12499828026E+03 0.  0.
          4    1    3    3  501    0 -0.19861318767E+02 -0.97455885454E+02  0.46800640253E+01  0.99577294058E+02  0.12700000000E+01 0.  1.
         -4    1    3    3    0  501 -0.98377318367E+02 -0.68651518477E+02 -0.10625015497E+03  0.16025553372E+03  0.12700000000E+01 0.  1.
          2    1    1    2  502    0  0.22732057826E+02 -0.96569129647E+01 -0.83310214259E+03  0.83346816520E+03  0.00000000000E+00 0. -1.
          1    1    1    2  503    0  0.95506579307E+02  0.17576431690E+03  0.20452166886E+04  0.20549758892E+04  0.00000000000E+00 0. -1.
<mgrwt>
<rscale>  0 0.70300147E+02</rscale>
<asrwt>0</asrwt>
<pdfrwt beam="2">  1        2 0.15674865E+00 0.24698227E+02</pdfrwt>
<pdfrwt beam="1">  1        1 0.32760164E+00 0.20009981E+03</pdfrwt>
<totfact> 0.11517528E+01</totfact>
</mgrwt>
</event>
<event>
 7    1  0.4251803E-004  0.8965351E+02  0.7546771E-02  0.1418133E+00
         -1   -1    0    0    0  501 -0.00000000000E+00  0.00000000000E+00  0.24199027244E+02  0.24199027244E+02  0.00000000000E+00 0. -1.
          1   -1    0    0  503    0  0.00000000000E+00 -0.00000000000E+00 -0.91002102489E+03  0.91002102489E+03  0.00000000000E+00 0.  1.
         25    2    1    2    0    0  0.33990576876E+02  0.87455756701E+02 -0.59012264180E+03  0.61047050227E+03  0.12500253229E+03 0.  0.
          4    1    3    3  502    0 -0.36038987605E+02  0.31270559134E+02 -0.36490130243E+03  0.36800982312E+03  0.12700000000E+01 0.  1.
         -4    1    3    3    0  502  0.70029564481E+02  0.56185197566E+02 -0.22522133937E+03  0.24246067915E+03  0.12700000000E+01 0.  1.
          1    1    1    2  503    0  0.21684994035E+00 -0.89273334146E+02 -0.25701544673E+03  0.27207850903E+03  0.00000000000E+00 0. -1.
         -1    1    1    2    0  501 -0.34207426816E+02  0.18175774458E+01 -0.38683909107E+02  0.51671040835E+02  0.00000000000E+00 0.  1.
<mgrwt>
<rscale>  0 0.55417886E+02</rscale>
<asrwt>0</asrwt>
<pdfrwt beam="2">  1        1 0.14000324E+00 0.89653512E+02</pdfrwt>
<pdfrwt beam="1">  1       -1 0.37229272E-02 0.34255680E+02</pdfrwt>
<totfact> 0.43549600E+03</totfact>
</mgrwt>
</event>
<event>
 7    1  0.4251803E-004  0.6853827E+02  0.7546771E-02  0.1437004E+00
         -2   -1    0    0    0  501 -0.00000000000E+00  0.00000000000E+00  0.75715558550E+01  0.75715558550E+01  0.00000000000E+00 0.  1.
          1   -1    0    0  503    0  0.00000000000E+00 -0.00000000000E+00 -0.27685740336E+04  0.27685740336E+04  0.00000000000E+00 0. -1.
         25    2    1    2    0    0 -0.52496998922E+02 -0.80682729179E+02 -0.18356235490E+04  0.18423910521E+04  0.12500135033E+03 0.  0.
          4    1    3    3  502    0 -0.93043465602E+02 -0.48750688433E+02 -0.11245829248E+04  0.11294786778E+04  0.12700000000E+01 0.  1.
         -4    1    3    3    0  502  0.40546466680E+02 -0.31932040746E+02 -0.71104062425E+03  0.71291237429E+03  0.12700000000E+01 0.  1.
          1    1    1    2  503    0  0.23361077548E+02  0.55034300524E+02 -0.80619371282E+03  0.80840758084E+03  0.00000000000E+00 0. -1.
         -2    1    1    2    0  501  0.29135921375E+02  0.25648428655E+02 -0.11918521587E+03  0.12534695644E+03  0.00000000000E+00 0.  1.
<mgrwt>
<rscale>  0 0.51579418E+02</rscale>
<asrwt>0</asrwt>
<pdfrwt beam="2">  1        1 0.42593469E+00 0.68538274E+02</pdfrwt>
<pdfrwt beam="1">  1       -2 0.11648541E-02 0.38816798E+02</pdfrwt>
<totfact> 0.14415525E+03</totfact>
</mgrwt>
</event>
<event>
 7    1  0.4251803E-004  0.1213089E+03  0.7546771E-02  0.1307487E+00
         -2   -1    0    0    0  501 -0.00000000000E+00  0.00000000000E+00  0.60652580129E+02  0.60652580129E+02  0.00000000000E+00 0. -1.
          2   -1    0    0  503    0  0.00000000000E+00 -0.00000000000E+00 -0.21371223750E+04  0.21371223750E+04  0.00000000000E+00 0.  1.
         25    2    1    2    0    0 -0.59787298077E+02  0.27038069519E+02 -0.30194095457E+03  0.33331702749E+03  0.12500529011E+03 0.  0.
          4    1    3    3  502    0 -0.73642667867E+02 -0.20882826195E+02 -0.24927301758E+03  0.26076423289E+03  0.12700000000E+01 0. -1.
         -4    1    3    3    0  502  0.13855369790E+02  0.47920895714E+02 -0.52667936990E+02  0.72552794604E+02  0.12700000000E+01 0. -1.
          2    1    1    2  503    0  0.11854413597E+03 -0.52410573177E+02 -0.17931302133E+04  0.17978085388E+04  0.00000000000E+00 0.  1.
         -2    1    1    2    0  501 -0.58756837896E+02  0.25372503658E+02  0.18601373074E+02  0.66649388756E+02  0.00000000000E+00 0. -1.
<mgrwt>
<rscale>  0 0.88112962E+02</rscale>
<asrwt>0</asrwt>
<pdfrwt beam="2">  1        2 0.32878800E+00 0.12130892E+03</pdfrwt>
<pdfrwt beam="1">  1       -2 0.93311678E-02 0.64001015E+02</pdfrwt>
<totfact> 0.46406865E+02</totfact>
</mgrwt>
</event>
<event>
 7    1  0.4251803E-004  0.4138855E+03  0.7546771E-02  0.1039075E+00
         -1   -1    0    0    0  501 -0.00000000000E+00  0.00000000000E+00  0.82689880125E+02  0.82689880125E+02  0.00000000000E+00 0.  1.
          2   -1    0    0  503    0  0.00000000000E+00 -0.00000000000E+00 -0.51790247164E+03  0.51790247164E+03  0.00000000000E+00 0. -1.
         25    2    1    2    0    0 -0.17157164075E+03 -0.48566017724E+02 -0.22279205304E+03  0.31153988588E+03  0.12500126244E+03 0.  0.
          4    1    3    3  502    0 -0.13643080293E+03 -0.69240232103E+02 -0.10158697907E+03  0.18365484189E+03  0.12700000000E+01 0. -1.
         -4    1    3    3    0  502 -0.35140837816E+02  0.20674214379E+02 -0.12120507397E+03  0.12788504400E+03  0.12700000000E+01 0. -1.
          2    1    1    2  503    0  0.12999182261E+03 -0.25536545407E+01 -0.13612775086E+03  0.18824228975E+03  0.00000000000E+00 0. -1.
         -1    1    1    2    0  501  0.41579818144E+02  0.51119672265E+02 -0.76292787618E+02  0.10081017613E+03  0.00000000000E+00 0.  1.
<mgrwt>
<rscale>  0 0.41388546E+03</rscale>
<asrwt>0</asrwt>
<pdfrwt beam="2">  1        2 0.79677302E-01 0.41388546E+03</pdfrwt>
<pdfrwt beam="1">  1       -1 0.12721520E-01 0.41388546E+03</pdfrwt>
<totfact> 0.28603183E+03</totfact>
</mgrwt>
</event>
<event>
 7    1  0.4251803E-004  0.1543292E+03  0.7546771E-02  0.1370269E+00
          2   -1    0    0  503    0  0.00000000000E+00  0.00000000000E+00  0.20284818671E+04  0.20284818671E+04  0.00000000000E+00 0.  1.
         -2   -1    0    0    0  501 -0.00000000000E+00 -0.00000000000E+00 -0.92943719713E+02  0.92943719713E+02  0.00000000000E+00 0.  1.
         25    2    1    2    0    0  0.10788987568E+03 -0.81860785836E+02  0.18333881563E+03  0.25996094530E+03  0.12500063294E+03 0.  0.
          4    1    3    3  502    0  0.11398737210E+03 -0.71723521071E+02  0.81481336184E+02  0.15741094473E+03  0.12700000000E+01 0.  1.
         -4    1    3    3    0  502 -0.60974964226E+01 -0.10137264765E+02  0.10185747945E+03  0.10255000058E+03  0.12700000000E+01 0.  1.
          2    1    1    2  503    0 -0.10980056864E+03  0.11096559539E+03  0.17993026572E+04  0.18060618983E+04  0.00000000000E+00 0.  1.
         -2    1    1    2    0  501  0.19106929650E+01 -0.29104809556E+02 -0.47103325452E+02  0.55402743213E+02  0.00000000000E+00 0.  1.
<mgrwt>
<rscale>  0 0.67092396E+02</rscale>
<asrwt>0</asrwt>
<pdfrwt beam="1">  1        2 0.31207410E+00 0.15432916E+03</pdfrwt>
<pdfrwt beam="2">  1       -2 0.14299035E-01 0.29167459E+02</pdfrwt>
<totfact> 0.25011060E+02</totfact>
</mgrwt>
</event>
<event>
 7    1  0.4251803E-004  0.2563493E+02  0.7546771E-02  0.1662111E+00
          2   -1    0    0  503    0  0.00000000000E+00  0.00000000000E+00  0.44375987666E+03  0.44375987666E+03  0.00000000000E+00 0. -1.
          2   -1    0    0  502    0 -0.00000000000E+00 -0.00000000000E+00 -0.10856012841E+04  0.10856012841E+04  0.00000000000E+00 0. -1.
         25    2    1    2    0    0 -0.88862871794E+01  0.46174148931E+02 -0.66757843326E+03  0.68080605864E+03  0.12499962719E+03 0.  0.
          4    1    3    3  501    0  0.28588391349E+02 -0.31662366006E+02 -0.14560868473E+03  0.15173431882E+03  0.12700000000E+01 0.  1.
         -4    1    3    3    0  501 -0.37474678529E+02  0.77836514937E+02 -0.52196974854E+03  0.52907173982E+03  0.12700000000E+01 0.  1.
          2    1    1    2  502    0  0.10818041889E+02 -0.22020578208E+02 -0.41070690811E+03  0.41143906021E+03  0.00000000000E+00 0. -1.
          2    1    1    2  503    0 -0.19317547095E+01 -0.24153570723E+02  0.43644393392E+03  0.43711604193E+03  0.00000000000E+00 0. -1.
<mgrwt>
<rscale>  0 0.24922926E+02</rscale>
<asrwt>0</asrwt>
<pdfrwt beam="1">  1        2 0.68270751E-01 0.24230697E+02</pdfrwt>
<pdfrwt beam="2">  1        2 0.16701558E+00 0.25634931E+02</pdfrwt>
<totfact> 0.30097412E+02</totfact>
</mgrwt>
</event>
<event>
 7    1  0.4251803E-004  0.1832334E+03  0.7546771E-02  0.1224912E+00
         -1   -1    0    0    0  501 -0.00000000000E+00  0.00000000000E+00  0.35030891841E+03  0.35030891841E+03  0.00000000000E+00 0.  1.
          2   -1    0    0  503    0  0.00000000000E+00 -0.00000000000E+00 -0.14758885639E+04  0.14758885639E+04  0.00000000000E+00 0. -1.
         25    2    1    2    0    0 -0.11909814877E+03  0.15945625681E+03 -0.75430417889E+03  0.79006943884E+03  0.12499702806E+03 0.  0.
          4    1    3    3  502    0 -0.95250116928E+02  0.31003548182E+02 -0.25547968888E+03  0.27441809179E+03  0.12700000000E+01 0. -1.
         -4    1    3    3    0  502 -0.23848031845E+02  0.12845270863E+03 -0.49882449001E+03  0.51565134705E+03  0.12700000000E+01 0. -1.
          2    1    1    2  503    0  0.26670020647E+02 -0.18008625602E+03 -0.68481423551E+03  0.70859924271E+03  0.00000000000E+00 0. -1.
         -1    1    1    2    0  501  0.92428128126E+02  0.20629999212E+02  0.31353876889E+03  0.32752880077E+03  0.00000000000E+00 0.  1.
<mgrwt>
<rscale>  0 0.13172946E+03</rscale>
<asrwt>0</asrwt>
<pdfrwt beam="2">  1        2 0.22705978E+00 0.18323338E+03</pdfrwt>
<pdfrwt beam="1">  1       -1 0.53893680E-01 0.94702459E+02</pdfrwt>
<totfact> 0.60453306E+01</totfact>
</mgrwt>
</event>
<event>
 7    1  0.4251803E-004  0.9681321E+02  0.7546771E-02  0.1388155E+00
          2   -1    0    0  503    0  0.00000000000E+00  0.00000000000E+00  0.29415759973E+03  0.29415759973E+03  0.00000000000E+00 0. -1.
         -2   -1    0    0    0  501 -0.00000000000E+00 -0.00000000000E+00 -0.24093401695E+03  0.24093401695E+03  0.00000000000E+00 0.  1.
         25    2    1    2    0    0  0.69062420535E+02 -0.10320218971E+02  0.18974498851E+03  0.23770674666E+03  0.12500084757E+03 0.  0.
          4    1    3    3  502    0 -0.19422883557E+02 -0.41691967814E+02  0.87714662574E+02  0.99050207049E+02  0.12700000000E+01 0.  1.
         -4    1    3    3    0  502  0.88485304092E+02  0.31371748843E+02  0.10203032593E+03  0.13865653961E+03  0.12700000000E+01 0.  1.
          2    1    1    2  503    0  0.27579296776E+02  0.29217173821E+02  0.63095004790E+02  0.74801340136E+02  0.00000000000E+00 0. -1.
         -2    1    1    2    0  501 -0.96641717311E+02 -0.18896954850E+02 -0.19961641052E+03  0.22258352989E+03  0.00000000000E+00 0.  1.
<mgrwt>
<rscale>  0 0.62367844E+02</rscale>
<asrwt>0</asrwt>
<pdfrwt beam="1">  1        2 0.45255015E-01 0.40177865E+02</pdfrwt>
<pdfrwt beam="2">  1       -2 0.37066772E-01 0.96813205E+02</pdfrwt>
<totfact> 0.75411438E+02</totfact>
</mgrwt>
</event>
<event>
 7    1  0.4251803E-004  0.2428699E+03  0.7546771E-02  0.1246332E+00
          1   -1    0    0  503    0  0.00000000000E+00  0.00000000000E+00  0.23384303975E+04  0.23384303975E+04  0.00000000000E+00 0. -1.
         -1   -1    0    0    0  501 -0.00000000000E+00 -0.00000000000E+00 -0.18713653754E+03  0.18713653754E+03  0.00000000000E+00 0.  1.
         25    2    1    2    0    0 -0.11686079347E+02 -0.28477879025E+03  0.91348622933E+03  0.96504802889E+03  0.12500033224E+03 0.  0.
          4    1    3    3  502    0 -0.57036401134E+02 -0.63777200515E+02  0.25847872956E+03  0.27227476727E+03  0.12700000000E+01 0. -1.
         -4    1    3    3    0  502  0.45350321787E+02 -0.22100158974E+03  0.65500749977E+03  0.69277326162E+03  0.12700000000E+01 0. -1.
          1    1    1    2  503    0  0.11313638500E+02  0.22739068804E+03  0.13844506545E+04  0.14030460214E+04  0.00000000000E+00 0. -1.
         -1    1    1    2    0  501  0.37244084700E+00  0.57388102212E+02 -0.14664302386E+03  0.15747288476E+03  0.00000000000E+00 0.  1.
<mgrwt>
<rscale>  0 0.11805987E+03</rscale>
<asrwt>0</asrwt>
<pdfrwt beam="1">  1        1 0.35975850E+00 0.24286986E+03</pdfrwt>
<pdfrwt beam="2">  1       -1 0.28790238E-01 0.57389311E+02</pdfrwt>
<totfact> 0.22167993E+01</totfact>
</mgrwt>
</event>
<event>
 7    1  0.4251803E-004  0.7872877E+02  0.7546771E-02  0.1374349E+00
          2   -1    0    0  503    0  0.00000000000E+00  0.00000000000E+00  0.11140010200E+04  0.11140010200E+04  0.00000000000E+00 0. -1.
          2   -1    0    0  502    0 -0.00000000000E+00 -0.00000000000E+00 -0.97227634712E+03  0.97227634712E+03  0.00000000000E+00 0. -1.
         25    2    1    2    0    0 -0.84517521281E+02 -0.21270490130E+02  0.13612561546E+02  0.15298667395E+03  0.12499590161E+03 0.  0.
          4    1    3    3  501    0 -0.10170734877E+03  0.75309305819E+01 -0.21689794965E+02  0.10427444469E+03  0.12700000000E+01 0. -1.
         -4    1    3    3    0  501  0.17189827490E+02 -0.28801420712E+02  0.35302356511E+02  0.48712229259E+02  0.12700000000E+01 0. -1.
          2    1    1    2  502    0  0.36576153888E+02 -0.41454720608E+02 -0.90022829293E+03  0.90192421427E+03  0.00000000000E+00 0. -1.
          2    1    1    2  503    0  0.47941367393E+02  0.62725210738E+02  0.10283404042E+04  0.10313664789E+04  0.00000000000E+00 0. -1.
<mgrwt>
<rscale>  0 0.65972972E+02</rscale>
<asrwt>0</asrwt>
<pdfrwt beam="1">  1        2 0.17138477E+00 0.78728771E+02</pdfrwt>
<pdfrwt beam="2">  1        2 0.14958098E+00 0.55283894E+02</pdfrwt>
<totfact> 0.11102361E+02</totfact>
</mgrwt>
</event>
<event>
 7    1  0.4251803E-004  0.1454141E+03  0.7546771E-02  0.1274239E+00
          1   -1    0    0  503    0  0.00000000000E+00  0.00000000000E+00  0.75088676190E+02  0.75088676190E+02  0.00000000000E+00 0. -1.
         -3   -1    0    0    0  501 -0.00000000000E+00 -0.00000000000E+00 -0.83577128967E+03  0.83577128967E+03  0.00000000000E+00 0.  1.
         25    2    1    2    0    0 -0.50013682782E+02  0.10793555914E+03 -0.22341206453E+03  0.28229479916E+03  0.12500379859E+03 0.  0.
          4    1    3    3  502    0 -0.43118340742E+02 -0.17579992115E+02 -0.53569797310E+02  0.70990024052E+02  0.12700000000E+01 0.  1.
         -4    1    3    3    0  502 -0.68953420401E+01  0.12551555126E+03 -0.16984226722E+03  0.21130477511E+03  0.12700000000E+01 0.  1.
          1    1    1    2  503    0 -0.72620863343E+02 -0.59922195577E+01 -0.51360242924E+01  0.73048444428E+02  0.00000000000E+00 0. -1.
         -3    1    1    2    0  501  0.12263454613E+03 -0.10194333958E+03 -0.53213452466E+03  0.55551672227E+03  0.00000000000E+00 0.  1.
<mgrwt>
<rscale>  0 0.10293682E+03</rscale>
<asrwt>0</asrwt>
<pdfrwt beam="1">  1        1 0.11552103E-01 0.72867664E+02</pdfrwt>
<pdfrwt beam="2">  1       -3 0.12858021E+00 0.14541413E+03</pdfrwt>
<totfact> 0.13258772E+02</totfact>
</mgrwt>
</event>
<event>
 7    1  0.4251803E-004  0.1867455E+03  0.7546771E-02  0.1237275E+00
          2   -1    0    0  502    0  0.00000000000E+00  0.00000000000E+00  0.83800266662E+03  0.83800266662E+03  0.00000000000E+00 0. -1.
          2   -1    0    0  503    0 -0.00000000000E+00 -0.00000000000E+00 -0.18611206289E+04  0.18611206289E+04  0.00000000000E+00 0. -1.
         25    2    1    2    0    0 -0.24142082455E+02 -0.15273696380E+03 -0.94772141657E+03  0.96835559123E+03  0.12500098959E+03 0.  0.
          4    1    3    3  501    0 -0.71807514167E+02 -0.12353131659E+03 -0.68881870647E+03  0.70348356666E+03  0.12700000000E+01 0. -1.
         -4    1    3    3    0  501  0.47665431712E+02 -0.29205647208E+02 -0.25890271009E+03  0.26487202458E+03  0.12700000000E+01 0. -1.
          2    1    1    2  502    0 -0.53136903507E+02  0.17956945272E+03  0.81519454229E+03  0.83642743896E+03  0.00000000000E+00 0. -1.
          2    1    1    2  503    0  0.77278985962E+02 -0.26832488925E+02 -0.89059108804E+03  0.89434026535E+03  0.00000000000E+00 0. -1.
<mgrwt>
<rscale>  0 0.12359887E+03</rscale>
<asrwt>0</asrwt>
<pdfrwt beam="1">  1        2 0.12892349E+00 0.18674553E+03</pdfrwt>
<pdfrwt beam="2">  1        2 0.28632624E+00 0.81804793E+02</pdfrwt>
<totfact> 0.52420060E+01</totfact>
</mgrwt>
</event>
<event>
 7    1  0.4251803E-004  0.1936063E+03  0.7546771E-02  0.1303626E+00
          1   -1    0    0  503    0  0.00000000000E+00  0.00000000000E+00  0.34078600257E+04  0.34078600257E+04  0.00000000000E+00 0. -1.
         -2   -1    0    0    0  501 -0.00000000000E+00 -0.00000000000E+00 -0.22087799737E+02  0.22087799737E+02  0.00000000000E+00 0.  1.
         25    2    1    2    0    0 -0.18284773345E+03  0.96476343726E+02  0.83077953292E+03  0.86519266279E+03  0.12499093124E+03 0.  0.
          4    1    3    3  502    0 -0.14708213665E+03  0.73758827982E+02  0.78789564282E+03  0.80489420206E+03  0.12700000000E+01 0. -1.
         -4    1    3    3    0  502 -0.35765596804E+02  0.22717515745E+02  0.42883890098E+02  0.60298460729E+02  0.12700000000E+01 0. -1.
          1    1    1    2  503    0  0.26531958697E+02 -0.31964537458E+02  0.94351221656E+03  0.94442626991E+03  0.00000000000E+00 0. -1.
         -2    1    1    2    0  501  0.15631577476E+03 -0.64511806269E+02  0.16114804765E+04  0.16203288927E+04  0.00000000000E+00 0.  1.
<mgrwt>
<rscale>  0 0.89680818E+02</rscale>
<asrwt>0</asrwt>
<pdfrwt beam="1">  1        1 0.52428574E+00 0.41541262E+02</pdfrwt>
<pdfrwt beam="2">  1       -2 0.33981257E-02 0.19360627E+03</pdfrwt>
<totfact> 0.15760751E+02</totfact>
</mgrwt>
</event>
<event>
 7    1  0.4251803E-004  0.2980906E+03  0.7546771E-02  0.1239421E+00
          2   -1    0    0  503    0  0.00000000000E+00  0.00000000000E+00  0.30651258802E+03  0.30651258802E+03  0.00000000000E+00 0. -1.
          2   -1    0    0  502    0 -0.00000000000E+00 -0.00000000000E+00 -0.57972202036E+03  0.57972202036E+03  0.00000000000E+00 0. -1.
         25    2    1    2    0    0 -0.19471160635E+03  0.18040544893E+03 -0.11267020935E+01  0.29340303115E+03  0.12500133430E+03 0.  0.
          4    1    3    3  501    0 -0.18056694182E+03  0.91401725321E+02 -0.11296042008E+02  0.20270152771E+03  0.12700000000E+01 0. -1.
         -4    1    3    3    0  501 -0.14144664528E+02  0.89003723611E+02  0.10169339915E+02  0.90701503436E+02  0.12700000000E+01 0. -1.
          2    1    1    2  502    0  0.21204535507E+03 -0.22745484138E+03 -0.36969926500E+03  0.48309055468E+03  0.00000000000E+00 0. -1.
          2    1    1    2  503    0 -0.17333748720E+02  0.47049392452E+02  0.97616534756E+02  0.10974102256E+03  0.00000000000E+00 0. -1.
<mgrwt>
<rscale>  0 0.12225594E+03</rscale>
<asrwt>0</asrwt>
<pdfrwt beam="1">  1        2 0.47155783E-01 0.50140843E+02</pdfrwt>
<pdfrwt beam="2">  1        2 0.89188002E-01 0.29809063E+03</pdfrwt>
<totfact> 0.85920949E+02</totfact>
</mgrwt>
</event>
<event>
 7    1  0.4251803E-004  0.2317137E+03  0.7546771E-02  0.1336090E+00
          2   -1    0    0  503    0  0.00000000000E+00  0.00000000000E+00  0.21359784258E+04  0.21359784258E+04  0.00000000000E+00 0.  1.
         -3   -1    0    0    0  501 -0.00000000000E+00 -0.00000000000E+00 -0.18490639606E+03  0.18490639606E+03  0.00000000000E+00 0.  1.
         25    2    1    2    0    0  0.19233705245E+03  0.94592265693E+02  0.14452232964E+03  0.28714157753E+03  0.12498937279E+03 0.  0.
          4    1    3    3  502    0  0.19480651554E+03  0.11583805704E+03  0.13355267865E+03  0.26307026596E+03  0.12700000000E+01 0. -1.
         -4    1    3    3    0  502 -0.24694630990E+01 -0.21245791347E+02  0.10969650993E+02  0.24071311574E+02  0.12700000000E+01 0. -1.
          2    1    1    2  503    0 -0.20082761566E+03 -0.11913332902E+03  0.19114585047E+04  0.19256682207E+04  0.00000000000E+00 0.  1.
         -3    1    1    2    0  501  0.84905632098E+01  0.24541063324E+02 -0.10490880456E+03  0.10807502360E+03  0.00000000000E+00 0.  1.
<mgrwt>
<rscale>  0 0.77570701E+02</rscale>
<asrwt>0</asrwt>
<pdfrwt beam="1">  1        2 0.32861205E+00 0.23171366E+03</pdfrwt>
<pdfrwt beam="2">  1       -3 0.28447139E-01 0.25968316E+02</pdfrwt>
<totfact> 0.39114926E+01</totfact>
</mgrwt>
</event>
<event>
 7    1  0.4251803E-004  0.1007150E+03  0.7546771E-02  0.1363979E+00
          1   -1    0    0  503    0 -0.00000000000E+00  0.00000000000E+00  0.11910440926E+04  0.11910440926E+04  0.00000000000E+00 0. -1.
          2   -1    0    0  502    0  0.00000000000E+00 -0.00000000000E+00 -0.78238180108E+03  0.78238180108E+03  0.00000000000E+00 0.  1.
         25    2    1    2    0    0 -0.73909882659E+02  0.18463753480E+02  0.45255988690E+02  0.15321958249E+03  0.12499821998E+03 0.  0.
          4    1    3    3  501    0 -0.19181775766E+02 -0.38127935761E+02  0.59468753517E+02  0.73210829471E+02  0.12700000000E+01 0.  1.
         -4    1    3    3    0  501 -0.54728106892E+02  0.56591689242E+02 -0.14212764828E+02  0.80008753017E+02  0.12700000000E+01 0.  1.
          2    1    1    2  502    0 -0.26086668432E+02 -0.39208703363E+02 -0.72524645834E+03  0.72677387269E+03  0.00000000000E+00 0.  1.
          1    1    1    2  503    0  0.99996551091E+02  0.20744949882E+02  0.10886527612E+04  0.10934324385E+04  0.00000000000E+00 0. -1.
<mgrwt>
<rscale>  0 0.68869893E+02</rscale>
<asrwt>0</asrwt>
<pdfrwt beam="2">  1        2 0.12036643E+00 0.47093914E+02</pdfrwt>
<pdfrwt beam="1">  1        1 0.18323755E+00 0.10071497E+03</pdfrwt>
<totfact> 0.66830441E+01</totfact>
</mgrwt>
</event>
<event>
 7    1  0.4251803E-004  0.1281336E+03  0.7546771E-02  0.1354159E+00
          2   -1    0    0  503    0  0.00000000000E+00  0.00000000000E+00  0.14421609855E+04  0.14421609855E+04  0.00000000000E+00 0. -1.
         -1   -1    0    0    0  501 -0.00000000000E+00 -0.00000000000E+00 -0.50599111287E+02  0.50599111287E+02  0.00000000000E+00 0.  1.
         25    2    1    2    0    0 -0.15751323612E+03 -0.33800337111E+02  0.37833161124E+03  0.42978044248E+03  0.12499415320E+03 0.  0.
          4    1    3    3  502    0 -0.82066675589E+02  0.31431007860E+02  0.26301683230E+03  0.27731266554E+03  0.12700000000E+01 0. -1.
         -4    1    3    3    0  502 -0.75446560528E+02 -0.65231344971E+02  0.11531477894E+03  0.15246777694E+03  0.12700000000E+01 0. -1.
          2    1    1    2  503    0  0.12267496241E+03  0.13731415426E+02  0.10152469029E+04  0.10227238005E+04  0.00000000000E+00 0. -1.
         -1    1    1    2    0  501  0.34838273702E+02  0.20068921685E+02 -0.20166399313E+01  0.40255853845E+02  0.00000000000E+00 0.  1.
<mgrwt>
<rscale>  0 0.71775016E+02</rscale>
<asrwt>0</asrwt>
<pdfrwt beam="1">  1        2 0.22187089E+00 0.12813364E+03</pdfrwt>
<pdfrwt beam="2">  1       -1 0.77844798E-02 0.40205310E+02</pdfrwt>
<totfact> 0.13701643E+03</totfact>
</mgrwt>
</event>
<event>
 7    1  0.4251803E-004  0.2563867E+03  0.7546771E-02  0.1173367E+00
         -2   -1    0    0    0  501 -0.00000000000E+00  0.00000000000E+00  0.18620304975E+04  0.18620304975E+04  0.00000000000E+00 0.  1.
          1   -1    0    0  503    0  0.00000000000E+00 -0.00000000000E+00 -0.10566192020E+03  0.10566192020E+03  0.00000000000E+00 0. -1.
         25    2    1    2    0    0  0.17155819146E+01  0.28725320144E+03  0.10632628944E+04  0.11084537318E+04  0.12499739208E+03 0.  0.
          4    1    3    3  502    0  0.31013243308E+02  0.17558645855E+03  0.82028652006E+03  0.83944268034E+03  0.12700000000E+01 0. -1.
         -4    1    3    3    0  502 -0.29297661394E+02  0.11166674289E+03  0.24297637429E+03  0.26901105144E+03  0.12700000000E+01 0. -1.
          1    1    1    2  503    0  0.96740761515E+02 -0.68589576114E+02 -0.74033353698E+01  0.11881967120E+03  0.00000000000E+00 0. -1.
         -2    1    1    2    0  501 -0.98456343429E+02 -0.21866362533E+03  0.70050901832E+03  0.74041901471E+03  0.00000000000E+00 0.  1.
<mgrwt>
<rscale>  0 0.17436911E+03</rscale>
<asrwt>0</asrwt>
<pdfrwt beam="2">  1        1 0.16255681E-01 0.11858881E+03</pdfrwt>
<pdfrwt beam="1">  1       -2 0.28646621E+00 0.25638666E+03</pdfrwt>
<totfact> 0.12649095E+01</totfact>
</mgrwt>
</event>
<event>
 7    1  0.4251803E-004  0.8087021E+02  0.7546771E-02  0.1434458E+00
          2   -1    0    0  503    0  0.00000000000E+00  0.00000000000E+00  0.36455115348E+03  0.36455115348E+03  0.00000000000E+00 0. -1.
         -2   -1    0    0    0  501 -0.00000000000E+00 -0.00000000000E+00 -0.44417915843E+03  0.44417915843E+03  0.00000000000E+00 0.  1.
         25    2    1    2    0    0  0.11026687052E+02 -0.80968681840E+02 -0.30239830974E+03  0.33726369691E+03  0.12499819298E+03 0.  0.
          4    1    3    3  502    0 -0.47927177034E+02 -0.66275459887E+02 -0.22121937426E+03  0.23585816783E+03  0.12700000000E+01 0.  1.
         -4    1    3    3    0  502  0.58953864086E+02 -0.14693221953E+02 -0.81178935479E+02  0.10140552908E+03  0.12700000000E+01 0.  1.
          2    1    1    2  503    0 -0.42350939822E+02  0.68998626571E+02  0.34001507187E+03  0.34952061695E+03  0.00000000000E+00 0. -1.
         -2    1    1    2    0  501  0.31324252769E+02  0.11970055269E+02 -0.11724476708E+03  0.12194599805E+03  0.00000000000E+00 0.  1.
<mgrwt>
<rscale>  0 0.52075480E+02</rscale>
<asrwt>0</asrwt>
<pdfrwt beam="1">  1        2 0.56084793E-01 0.80870209E+02</pdfrwt>
<pdfrwt beam="2">  1       -2 0.68335255E-01 0.33533432E+02</pdfrwt>
<totfact> 0.18354508E+02</totfact>
</mgrwt>
</event>
<event>
 7    1  0.9880114E-004  0.9777464E+02  0.7546771E-02  0.1352381E+00
          2   -1    0    0  503    0  0.00000000000E+00  0.00000000000E+00  0.17802064288E+04  0.17802064288E+04  0.00000000000E+00 0. -1.
         -1   -1    0    0    0  501 -0.00000000000E+00 -0.00000000000E+00 -0.14196650799E+02  0.14196650799E+02  0.00000000000E+00 0.  1.
         25    2    1    2    0    0 -0.11853750426E+03  0.46646487933E+01  0.85845296917E+03  0.87557824528E+03  0.12499145757E+03 0.  0.
          4    1    3    3  502    0 -0.15037848192E+02 -0.24851542633E+02  0.36772578304E+02  0.46878262175E+02  0.12700000000E+01 0.  1.
         -4    1    3    3    0  502 -0.10349965607E+03  0.29516191426E+02  0.82168039087E+03  0.82869998310E+03  0.12700000000E+01 0.  1.
          2    1    1    2  503    0  0.36441396524E+02 -0.39156755832E+02  0.39230276714E+03  0.39593268117E+03  0.00000000000E+00 0. -1.
         -1    1    1    2    0  501  0.82096107733E+02  0.34492107039E+02  0.51525404172E+03  0.52289215318E+03  0.00000000000E+00 0.  1.
<mgrwt>
<rscale>  0 0.72318795E+02</rscale>
<asrwt>0</asrwt>
<pdfrwt beam="1">  1        2 0.27387774E+00 0.53490438E+02</pdfrwt>
<pdfrwt beam="2">  1       -1 0.21841015E-02 0.97774636E+02</pdfrwt>
<totfact> 0.69008360E+03</totfact>
</mgrwt>
</event>
<event>
 7    1  0.4251803E-004  0.4428040E+02  0.7546771E-02  0.1493881E+00
         -2   -1    0    0    0  501 -0.00000000000E+00  0.00000000000E+00  0.62347151391E+01  0.62347151391E+01  0.00000000000E+00 0.  1.
          2   -1    0    0  503    0  0.00000000000E+00 -0.00000000000E+00 -0.23924598868E+04  0.23924598868E+04  0.00000000000E+00 0. -1.
         25    2    1    2    0    0  0.35333689936E+02 -0.43316981959E+02 -0.12051314882E+04  0.12128858546E+04  0.12500144840E+03 0.  0.
          4    1    3    3  502    0 -0.14927738602E+02  0.26232407469E+02 -0.68950156024E+03  0.69016301774E+03  0.12700000000E+01 0. -1.
         -4    1    3    3    0  502  0.50261428539E+02 -0.69549389428E+02 -0.51562992792E+03  0.52272283691E+03  0.12700000000E+01 0. -1.
          2    1    1    2  503    0 -0.43482331137E+02  0.42917029460E+01 -0.24494401719E+03  0.24881057733E+03  0.00000000000E+00 0.  1.
         -2    1    1    2    0  501  0.81486412003E+01  0.39025279014E+02 -0.93614966635E+03  0.93699816999E+03  0.00000000000E+00 0. -1.
<mgrwt>
<rscale>  0 0.42015756E+02</rscale>
<asrwt>0</asrwt>
<pdfrwt beam="2">  1        2 0.36807119E+00 0.44280395E+02</pdfrwt>
<pdfrwt beam="1">  1       -2 0.95918579E-03 0.39866938E+02</pdfrwt>
<totfact> 0.96533060E+03</totfact>
</mgrwt>
</event>
<event>
 7    1  0.4251803E-004  0.9799378E+02  0.7546771E-02  0.1343465E+00
         -3   -1    0    0    0  501 -0.00000000000E+00  0.00000000000E+00  0.35118430796E+03  0.35118430796E+03  0.00000000000E+00 0.  1.
          1   -1    0    0  503    0  0.00000000000E+00 -0.00000000000E+00 -0.27685863149E+03  0.27685863149E+03  0.00000000000E+00 0. -1.
         25    2    1    2    0    0 -0.80307131808E+02  0.76455652358E+02  0.55034878996E+02  0.17592051539E+03  0.12499795052E+03 0.  0.
          4    1    3    3  502    0 -0.35341460968E+02  0.10574240932E+03  0.24475892155E+02  0.11415409843E+03  0.12700000000E+01 0.  1.
         -4    1    3    3    0  502 -0.44965670840E+02 -0.29286756961E+02  0.30558986841E+02  0.61766416960E+02  0.12700000000E+01 0.  1.
          1    1    1    2  503    0  0.54637746721E+02  0.18243064782E+02 -0.20200156426E+03  0.21005409956E+03  0.00000000000E+00 0. -1.
         -3    1    1    2    0  501  0.25669385086E+02 -0.94698717140E+02  0.22129236173E+03  0.24206832449E+03  0.00000000000E+00 0.  1.
<mgrwt>
<rscale>  0 0.75131385E+02</rscale>
<asrwt>0</asrwt>
<pdfrwt beam="2">  1        1 0.42593636E-01 0.57602889E+02</pdfrwt>
<pdfrwt beam="1">  1       -3 0.54028355E-01 0.97993784E+02</pdfrwt>
<totfact> 0.17317675E+02</totfact>
</mgrwt>
</event>
<event>
 7    1  0.4251803E-004  0.2126474E+03  0.7546771E-02  0.1219249E+00
          1   -1    0    0  503    0  0.00000000000E+00  0.00000000000E+00  0.24044563033E+04  0.24044563033E+04  0.00000000000E+00 0. -1.
          1   -1    0    0  502    0 -0.00000000000E+00 -0.00000000000E+00 -0.12653408442E+04  0.12653408442E+04  0.00000000000E+00 0. -1.
         25    2    1    2    0    0 -0.12722131051E+03  0.22971962789E+03  0.81811091507E+03  0.86826606773E+03  0.12499650283E+03 0.  0.
          4    1    3    3  501    0 -0.48904396798E+02  0.17900600201E+03  0.65027367666E+03  0.67623387688E+03  0.12700000000E+01 0.  1.
         -4    1    3    3    0  501 -0.78316913717E+02  0.50713625877E+02  0.16783723841E+03  0.19203219085E+03  0.12700000000E+01 0.  1.
          1    1    1    2  502    0  0.79667238113E+02 -0.33908608989E+02 -0.12322361993E+04  0.12352743474E+04  0.00000000000E+00 0. -1.
          1    1    1    2  503    0  0.47554072402E+02 -0.19581101890E+03  0.15532407433E+04  0.15662567324E+04  0.00000000000E+00 0. -1.
<mgrwt>
<rscale>  0 0.13568975E+03</rscale>
<asrwt>0</asrwt>
<pdfrwt beam="1">  1        1 0.36991635E+00 0.21264741E+03</pdfrwt>
<pdfrwt beam="2">  1        1 0.19466782E+00 0.86583270E+02</pdfrwt>
<totfact> 0.25918954E+00</totfact>
</mgrwt>
</event>
<event>
 7    1  0.4251803E-004  0.1954464E+03  0.7546771E-02  0.1198110E+00
          1   -1    0    0  503    0 -0.00000000000E+00  0.00000000000E+00  0.66860595893E+03  0.66860595893E+03  0.00000000000E+00 0. -1.
          2   -1    0    0  502    0  0.00000000000E+00 -0.00000000000E+00 -0.24753545545E+04  0.24753545545E+04  0.00000000000E+00 0. -1.
         25    2    1    2    0    0 -0.19147586846E+03 -0.24424938397E+03 -0.33698900946E+01  0.33460001286E+03  0.12500017070E+03 0.  0.
          4    1    3    3  501    0 -0.31189336534E+02 -0.87868042108E+02 -0.50075039757E+02  0.10584276094E+03  0.12700000000E+01 0.  1.
         -4    1    3    3    0  501 -0.16028653193E+03 -0.15638134187E+03  0.46705149662E+02  0.22875725192E+03  0.12700000000E+01 0.  1.
          2    1    1    2  502    0  0.12488466173E+03  0.14669286655E+03 -0.22953438438E+04  0.23034144953E+04  0.00000000000E+00 0. -1.
          1    1    1    2  503    0  0.66591206733E+02  0.97556517424E+02  0.49196513834E+03  0.50594600527E+03  0.00000000000E+00 0. -1.
<mgrwt>
<rscale>  0 0.15193937E+03</rscale>
<asrwt>0</asrwt>
<pdfrwt beam="2">  1        2 0.38082378E+00 0.19544639E+03</pdfrwt>
<pdfrwt beam="1">  1        1 0.10286245E+00 0.11811716E+03</pdfrwt>
<totfact> 0.18447173E+01</totfact>
</mgrwt>
</event>
<event>
 7    1  0.4251803E-004  0.4573716E+02  0.7546771E-02  0.1517592E+00
         -1   -1    0    0    0  501 -0.00000000000E+00  0.00000000000E+00  0.76587018537E+03  0.76587018537E+03  0.00000000000E+00 0.  1.
          3   -1    0    0  503    0  0.00000000000E+00 -0.00000000000E+00 -0.24892542578E+03  0.24892542578E+03  0.00000000000E+00 0. -1.
         25    2    1    2    0    0 -0.17453531595E+02  0.25418709517E+02  0.23077891618E+03  0.26426407587E+03  0.12500342829E+03 0.  0.
          4    1    3    3  502    0 -0.15276857990E+02  0.74120440870E+02  0.10562071249E+03  0.12994064011E+03  0.12700000000E+01 0. -1.
         -4    1    3    3    0  502 -0.21766736048E+01 -0.48701731353E+02  0.12515820369E+03  0.13432343576E+03  0.12700000000E+01 0. -1.
          3    1    1    2  503    0 -0.28785616303E+02 -0.15798054198E+02 -0.22993824745E+03  0.23227093633E+03  0.00000000000E+00 0. -1.
         -1    1    1    2    0  501  0.46239147897E+02 -0.96206553184E+01  0.51610409087E+03  0.51826059894E+03  0.00000000000E+00 0.  1.
<mgrwt>
<rscale>  0 0.38753276E+02</rscale>
<asrwt>0</asrwt>
<pdfrwt beam="2">  1        3 0.38296220E-01 0.32835807E+02</pdfrwt>
<pdfrwt beam="1">  1       -1 0.11782618E+00 0.45737155E+02</pdfrwt>
<totfact> 0.20566147E+01</totfact>
</mgrwt>
</event>
<event>
 7    1  0.4251803E-004  0.6960706E+02  0.7546771E-02  0.1501567E+00
          2   -1    0    0  503    0  0.00000000000E+00  0.00000000000E+00  0.15297626638E+04  0.15297626638E+04  0.00000000000E+00 0. -1.
         -2   -1    0    0    0  501 -0.00000000000E+00 -0.00000000000E+00 -0.13399524581E+02  0.13399524581E+02  0.00000000000E+00 0.  1.
         25    2    1    2    0    0 -0.40637773205E+02 -0.28890330571E+02  0.12450723184E+04  0.12523240113E+04  0.12499708648E+03 0.  0.
          4    1    3    3  502    0 -0.43958089192E+02 -0.26673308070E+02  0.12467503964E+04  0.12478108602E+04  0.12700000000E+01 0.  1.
         -4    1    3    3    0  502  0.33203159869E+01 -0.22170225011E+01 -0.16780780771E+01  0.45131511227E+01  0.12700000000E+01 0.  1.
          2    1    1    2  503    0 -0.23831248519E+02 -0.32556379483E+01  0.13038524770E+03  0.13258521939E+03  0.00000000000E+00 0. -1.
         -2    1    1    2    0  501  0.64469021725E+02  0.32145968519E+02  0.14090557314E+03  0.15825295762E+03  0.00000000000E+00 0.  1.
<mgrwt>
<rscale>  0 0.40917366E+02</rscale>
<asrwt>0</asrwt>
<pdfrwt beam="1">  1        2 0.23534796E+00 0.24052600E+02</pdfrwt>
<pdfrwt beam="2">  1       -2 0.20614665E-02 0.69607060E+02</pdfrwt>
<totfact> 0.10127470E+04</totfact>
</mgrwt>
</event>
<event>
 7    1  0.4251803E-004  0.4172286E+02  0.7546771E-02  0.1544626E+00
          1   -1    0    0  503    0  0.00000000000E+00  0.00000000000E+00  0.35912637214E+03  0.35912637214E+03  0.00000000000E+00 0. -1.
         -2   -1    0    0    0  501 -0.00000000000E+00 -0.00000000000E+00 -0.31157011120E+02  0.31157011120E+02  0.00000000000E+00 0.  1.
         25    2    1    2    0    0 -0.24042923818E+02 -0.15610376835E+02  0.19178417598E+03  0.23071311961E+03  0.12500250939E+03 0.  0.
          4    1    3    3  502    0 -0.24414899338E+02 -0.47811332676E+02  0.19107476411E+03  0.19847717557E+03  0.12700000000E+01 0. -1.
         -4    1    3    3    0  502  0.37197552001E+00  0.32200955841E+02  0.70941186342E+00  0.32235944039E+02  0.12700000000E+01 0. -1.
          1    1    1    2  503    0 -0.22759832456E+02  0.19732814318E+02  0.84563449205E+02  0.89768429171E+02  0.00000000000E+00 0. -1.
         -2    1    1    2    0  501  0.46802756274E+02 -0.41224374824E+01  0.51621735836E+02  0.69801834477E+02  0.00000000000E+00 0.  1.
<mgrwt>
<rscale>  0 0.35451615E+02</rscale>
<asrwt>0</asrwt>
<pdfrwt beam="1">  1        1 0.55250208E-01 0.30122980E+02</pdfrwt>
<pdfrwt beam="2">  1       -2 0.47933866E-02 0.41722864E+02</pdfrwt>
<totfact> 0.10754442E+04</totfact>
</mgrwt>
</event>
<event>
 7    1  0.4251803E-004  0.6549121E+02  0.7546771E-02  0.1386599E+00
         -1   -1    0    0    0  501 -0.00000000000E+00  0.00000000000E+00  0.38244253833E+02  0.38244253833E+02  0.00000000000E+00 0.  1.
          2   -1    0    0  503    0  0.00000000000E+00 -0.00000000000E+00 -0.59659360043E+03  0.59659360043E+03  0.00000000000E+00 0. -1.
         25    2    1    2    0    0  0.64591016209E+02 -0.72967371100E+02 -0.41557495898E+03  0.44477145546E+03  0.12499145748E+03 0.  0.
          4    1    3    3  502    0 -0.34085224968E+02 -0.39265170956E+02 -0.10536562790E+03  0.11750355167E+03  0.12700000000E+01 0.  1.
         -4    1    3    3    0  502  0.98676241177E+02 -0.33702200143E+02 -0.31020933107E+03  0.32726790379E+03  0.12700000000E+01 0.  1.
          2    1    1    2  503    0 -0.30353616274E+01  0.60066906211E+02 -0.88444879906E+02  0.10695673622E+03  0.00000000000E+00 0. -1.
         -1    1    1    2    0  501 -0.61555654582E+02  0.12900464889E+02 -0.54329507709E+02  0.83109662574E+02  0.00000000000E+00 0.  1.
<mgrwt>
<rscale>  0 0.62760450E+02</rscale>
<asrwt>0</asrwt>
<pdfrwt beam="2">  1        2 0.91783625E-01 0.60143550E+02</pdfrwt>
<pdfrwt beam="1">  1       -1 0.58837317E-02 0.65491213E+02</pdfrwt>
<totfact> 0.72897858E+03</totfact>
</mgrwt>
</event>
<event>
 7    1  0.4251803E-004  0.7798822E+02  0.7546771E-02  0.1495589E+00
          3   -1    0    0  503    0 -0.00000000000E+00  0.00000000000E+00  0.82641578224E+02  0.82641578224E+02  0.00000000000E+00 0. -1.
          1   -1    0    0  502    0  0.00000000000E+00 -0.00000000000E+00 -0.10642575695E+04  0.10642575695E+04  0.00000000000E+00 0. -1.
         25    2    1    2    0    0 -0.16565884089E+02 -0.89546179205E+02 -0.13315189062E+03  0.20407627825E+03  0.12499901857E+03 0.  0.
          4    1    3    3  501    0  0.22487814730E+02 -0.57942384692E+02 -0.14016632133E+03  0.15333372848E+03  0.12700000000E+01 0.  1.
         -4    1    3    3    0  501 -0.39053698818E+02 -0.31603794513E+02  0.70144307074E+01  0.50742549770E+02  0.12700000000E+01 0.  1.
          1    1    1    2  502    0  0.29788994192E+02  0.71503010629E+02 -0.89121401548E+03  0.89457391315E+03  0.00000000000E+00 0. -1.
          3    1    1    2  503    0 -0.13223110103E+02  0.18043168576E+02  0.42749914801E+02  0.48248956347E+02  0.00000000000E+00 0. -1.
<mgrwt>
<rscale>  0 0.41768152E+02</rscale>
<asrwt>0</asrwt>
<pdfrwt beam="2">  1        1 0.16373192E+00 0.77988221E+02</pdfrwt>
<pdfrwt beam="1">  1        3 0.12714090E-01 0.22369769E+02</pdfrwt>
<totfact> 0.31316391E+02</totfact>
</mgrwt>
</event>
<event>
 7    1  0.4251803E-004  0.1093683E+03  0.7546771E-02  0.1272595E+00
          2   -1    0    0  502    0  0.00000000000E+00  0.00000000000E+00  0.83043687739E+03  0.83043687739E+03  0.00000000000E+00 0. -1.
          1   -1    0    0  503    0 -0.00000000000E+00 -0.00000000000E+00 -0.13866865838E+04  0.13866865838E+04  0.00000000000E+00 0. -1.
         25    2    1    2    0    0  0.10941647663E+03 -0.12559251402E+03 -0.56773211913E+01  0.20832866148E+03  0.12499261690E+03 0.  0.
          4    1    3    3  501    0  0.42030346092E+02 -0.59029519300E+02 -0.64335581614E+02  0.96910856476E+02  0.12700000000E+01 0.  1.
         -4    1    3    3    0  501  0.67386130538E+02 -0.66562994724E+02  0.58658260423E+02  0.11141780500E+03  0.12700000000E+01 0.  1.
          2    1    1    2  502    0 -0.41814308878E+01  0.98338129987E+02  0.72346417113E+03  0.73012894688E+03  0.00000000000E+00 0. -1.
          1    1    1    2  503    0 -0.10523504574E+03  0.27254384037E+02 -0.12740365563E+04  0.12786658528E+04  0.00000000000E+00 0. -1.
<mgrwt>
<rscale>  0 0.10375350E+03</rscale>
<asrwt>0</asrwt>
<pdfrwt beam="1">  1        2 0.12775952E+00 0.98426989E+02</pdfrwt>
<pdfrwt beam="2">  1        1 0.21333640E+00 0.10936826E+03</pdfrwt>
<totfact> 0.44529869E+01</totfact>
</mgrwt>
</event>
<event>
 7    1  0.4251803E-004  0.4700374E+02  0.7546771E-02  0.1554627E+00
         -1   -1    0    0    0  501 -0.00000000000E+00  0.00000000000E+00  0.83632984178E+01  0.83632984178E+01  0.00000000000E+00 0.  1.
          2   -1    0    0  503    0  0.00000000000E+00 -0.00000000000E+00 -0.31570832881E+04  0.31570832881E+04  0.00000000000E+00 0. -1.
         25    2    1    2    0    0 -0.28299118701E+02  0.64537919414E+01 -0.29000833226E+04  0.29029209250E+04  0.12499650869E+03 0.  0.
          4    1    3    3  502    0 -0.34922357731E+02  0.62616373742E+02 -0.16607393864E+04  0.16622867694E+04  0.12700000000E+01 0. -1.
         -4    1    3    3    0  502  0.66232390299E+01 -0.56162581800E+02 -0.12393439363E+04  0.12406341557E+04  0.12700000000E+01 0. -1.
          2    1    1    2  503    0 -0.88373044528E+01  0.23465310819E+02 -0.15926087126E+03  0.16122265311E+03  0.00000000000E+00 0. -1.
         -1    1    1    2    0  501  0.37136423154E+02 -0.29919102761E+02 -0.89375795812E+02  0.10130300840E+03  0.00000000000E+00 0.  1.
<mgrwt>
<rscale>  0 0.34330516E+02</rscale>
<asrwt>0</asrwt>
<pdfrwt beam="2">  1        2 0.48570568E+00 0.25074265E+02</pdfrwt>
<pdfrwt beam="1">  1       -1 0.12866598E-02 0.47003743E+02</pdfrwt>
<totfact> 0.29322572E+03</totfact>
</mgrwt>
</event>
<event>
 7    1  0.4251803E-004  0.6577792E+02  0.7546771E-02  0.1416638E+00
          2   -1    0    0  503    0  0.00000000000E+00  0.00000000000E+00  0.77418671156E+03  0.77418671156E+03  0.00000000000E+00 0. -1.
          2   -1    0    0  502    0 -0.00000000000E+00 -0.00000000000E+00 -0.23859521111E+04  0.23859521111E+04  0.00000000000E+00 0. -1.
         25    2    1    2    0    0  0.10253799352E+03 -0.21796108492E+02 -0.87681462370E+03  0.89186231224E+03  0.12500155679E+03 0.  0.
          4    1    3    3  501    0  0.54578817481E+01 -0.28191594589E+02 -0.55297617435E+03  0.55372268942E+03  0.12700000000E+01 0. -1.
         -4    1    3    3    0  501  0.97080111773E+02  0.63954860975E+01 -0.32383844935E+03  0.33813962282E+03  0.12700000000E+01 0. -1.
          2    1    1    2  502    0 -0.45828648617E+02 -0.11426125195E+02 -0.14998326129E+04  0.15005761187E+04  0.00000000000E+00 0. -1.
          2    1    1    2  503    0 -0.56709344905E+02  0.33222233687E+02  0.76488183711E+03  0.76770039166E+03  0.00000000000E+00 0. -1.
<mgrwt>
<rscale>  0 0.55738626E+02</rscale>
<asrwt>0</asrwt>
<pdfrwt beam="1">  1        2 0.11910565E+00 0.65777917E+02</pdfrwt>
<pdfrwt beam="2">  1        2 0.36706956E+00 0.47231572E+02</pdfrwt>
<totfact> 0.35232378E+01</totfact>
</mgrwt>
</event>
<event>
 7    1  0.4251803E-004  0.1043839E+03  0.7546771E-02  0.1432709E+00
          1   -1    0    0  503    0 -0.00000000000E+00  0.00000000000E+00  0.12520272322E+04  0.12520272322E+04  0.00000000000E+00 0. -1.
          2   -1    0    0  502    0  0.00000000000E+00 -0.00000000000E+00 -0.35462045815E+03  0.35462045815E+03  0.00000000000E+00 0. -1.
         25    2    1    2    0    0 -0.15373063969E+01  0.11763235925E+03  0.39250713447E+03  0.42839917187E+03  0.12499705834E+03 0.  0.
          4    1    3    3  501    0 -0.74373725523E+01  0.13750116267E+03  0.25944402322E+03  0.29372554933E+03  0.12700000000E+01 0.  1.
         -4    1    3    3    0  501  0.59000661554E+01 -0.19868803426E+02  0.13306311125E+03  0.13467362253E+03  0.12700000000E+01 0.  1.
          2    1    1    2  502    0 -0.19836073582E+02 -0.10226462640E+03 -0.32840373343E+03  0.34452944106E+03  0.00000000000E+00 0. -1.
          1    1    1    2  503    0  0.21373379979E+02 -0.15367732850E+02  0.83330337303E+03  0.83371907744E+03  0.00000000000E+00 0. -1.
<mgrwt>
<rscale>  0 0.52420153E+02</rscale>
<asrwt>0</asrwt>
<pdfrwt beam="2">  1        2 0.54556994E-01 0.10438390E+03</pdfrwt>
<pdfrwt beam="1">  1        1 0.19261957E+00 0.26324676E+02</pdfrwt>
<totfact> 0.15959364E+02</totfact>
</mgrwt>
</event>
<event>
 7    1  0.4251803E-004  0.3584715E+02  0.7546771E-02  0.1545820E+00
         -1   -1    0    0    0  501 -0.00000000000E+00  0.00000000000E+00  0.10932120744E+02  0.10932120744E+02  0.00000000000E+00 0.  1.
          2   -1    0    0  503    0  0.00000000000E+00 -0.00000000000E+00 -0.10345538582E+04  0.10345538582E+04  0.00000000000E+00 0. -1.
         25    2    1    2    0    0 -0.12883858729E+02  0.13783275820E+02 -0.69263090522E+03  0.70407217831E+03  0.12499635555E+03 0.  0.
          4    1    3    3  502    0  0.31794347743E+02  0.32465217900E+02 -0.10462338401E+03  0.11407250459E+03  0.12700000000E+01 0. -1.
         -4    1    3    3    0  502 -0.44678206472E+02 -0.18681942080E+02 -0.58800752121E+03  0.58999967372E+03  0.12700000000E+01 0. -1.
          2    1    1    2  503    0 -0.52917744382E+01 -0.43448949814E+02 -0.24079298676E+03  0.24473879257E+03  0.00000000000E+00 0. -1.
         -1    1    1    2    0  501  0.18175633168E+02  0.29665673994E+02 -0.90197845438E+02  0.96675008023E+02  0.00000000000E+00 0.  1.
<mgrwt>
<rscale>  0 0.35315068E+02</rscale>
<asrwt>0</asrwt>
<pdfrwt beam="2">  1        2 0.15916213E+00 0.35847146E+02</pdfrwt>
<pdfrwt beam="1">  1       -1 0.16818648E-02 0.34790888E+02</pdfrwt>
<totfact> 0.20917914E+04</totfact>
</mgrwt>
</event>
<event>
 7    1  0.4251803E-004  0.4557401E+02  0.7546771E-02  0.1533446E+00
          2   -1    0    0  503    0  0.00000000000E+00  0.00000000000E+00  0.87327482048E+03  0.87327482048E+03  0.00000000000E+00 0. -1.
         -1   -1    0    0    0  501 -0.00000000000E+00 -0.00000000000E+00 -0.17583660347E+02  0.17583660347E+02  0.00000000000E+00 0.  1.
         25    2    1    2    0    0 -0.38615795195E+01  0.24886319159E+02  0.26343961698E+03  0.29267518718E+03  0.12499637082E+03 0.  0.
          4    1    3    3  502    0  0.49859330276E+02  0.18287116519E+02  0.51713804705E+02  0.74137048385E+02  0.12700000000E+01 0.  1.
         -4    1    3    3    0  502 -0.53720909796E+02  0.65992026401E+01  0.21172581227E+03  0.21853813879E+03  0.12700000000E+01 0.  1.
          2    1    1    2  503    0 -0.16613902479E+02 -0.46347715669E+02  0.26077432983E+03  0.26538158113E+03  0.00000000000E+00 0. -1.
         -1    1    1    2    0  501  0.20475481998E+02  0.21461396510E+02  0.33147721332E+03  0.33280171252E+03  0.00000000000E+00 0.  1.
<mgrwt>
<rscale>  0 0.36767083E+02</rscale>
<asrwt>0</asrwt>
<pdfrwt beam="1">  1        2 0.13434994E+00 0.45574012E+02</pdfrwt>
<pdfrwt beam="2">  1       -1 0.27051792E-02 0.29662045E+02</pdfrwt>
<totfact> 0.12915402E+04</totfact>
</mgrwt>
</event>
<event>
 7    1  0.4251803E-004  0.7794620E+02  0.7546771E-02  0.1388218E+00
         -1   -1    0    0    0  501 -0.00000000000E+00  0.00000000000E+00  0.56566083017E+02  0.56566083017E+02  0.00000000000E+00 0.  1.
          3   -1    0    0  503    0  0.00000000000E+00 -0.00000000000E+00 -0.39646530995E+03  0.39646530995E+03  0.00000000000E+00 0. -1.
         25    2    1    2    0    0  0.19904149506E+01  0.64732540803E+02 -0.83455189686E+02  0.16368739372E+03  0.12503811654E+03 0.  0.
          4    1    3    3  502    0 -0.55864430382E+02  0.34444182352E+02 -0.71899569911E+02  0.97357061034E+02  0.12700000000E+01 0.  1.
         -4    1    3    3    0  502  0.57854845333E+02  0.30288358451E+02 -0.11555619776E+02  0.66330332689E+02  0.12700000000E+01 0.  1.
          3    1    1    2  503    0 -0.51845357094E+02 -0.66240676282E+02 -0.15964028321E+03  0.18044608134E+03  0.00000000000E+00 0. -1.
         -1    1    1    2    0  501  0.49854942144E+02  0.15081354792E+01 -0.96803754031E+02  0.10889791790E+03  0.00000000000E+00 0.  1.
<mgrwt>
<rscale>  0 0.62352074E+02</rscale>
<asrwt>0</asrwt>
<pdfrwt beam="2">  1        3 0.60994663E-01 0.77946204E+02</pdfrwt>
<pdfrwt beam="1">  1       -1 0.87024743E-02 0.49877748E+02</pdfrwt>
<totfact> 0.77777371E+02</totfact>
</mgrwt>
</event>
<event>
 7    1  0.4251803E-004  0.8253991E+02  0.7546771E-02  0.1492293E+00
          2   -1    0    0  502    0  0.00000000000E+00  0.00000000000E+00  0.15737526299E+04  0.15737526299E+04  0.00000000000E+00 0. -1.
          1   -1    0    0  503    0 -0.00000000000E+00 -0.00000000000E+00 -0.25593893068E+02  0.25593893068E+02  0.00000000000E+00 0. -1.
         25    2    1    2    0    0  0.78853770647E+02  0.31016438859E+02  0.51583199153E+03  0.53748322167E+03  0.12500253382E+03 0.  0.
          4    1    3    3  501    0  0.53845272977E+02 -0.26049877660E+02  0.96472157101E+02  0.11351827846E+03  0.12700000000E+01 0. -1.
         -4    1    3    3    0  501  0.25008497670E+02  0.57066316519E+02  0.41935983443E+03  0.42396494321E+03  0.12700000000E+01 0. -1.
          2    1    1    2  502    0 -0.12273538031E+02  0.17803843844E+02  0.93059127829E+03  0.93084249141E+03  0.00000000000E+00 0. -1.
          1    1    1    2  503    0 -0.66580232615E+02 -0.48820282702E+02  0.10173546705E+03  0.13102080993E+03  0.00000000000E+00 0. -1.
<mgrwt>
<rscale>  0 0.42247837E+02</rscale>
<asrwt>0</asrwt>
<pdfrwt beam="1">  1        2 0.24211571E+00 0.21624444E+02</pdfrwt>
<pdfrwt beam="2">  1        1 0.39375232E-02 0.82539911E+02</pdfrwt>
<totfact> 0.43950200E+03</totfact>
</mgrwt>
</event>
<event>
 7    1  0.4251803E-004  0.6437716E+02  0.7546771E-02  0.1534444E+00
          2   -1    0    0  503    0  0.00000000000E+00  0.00000000000E+00  0.50696838390E+03  0.50696838390E+03  0.00000000000E+00 0. -1.
         -1   -1    0    0    0  501 -0.00000000000E+00 -0.00000000000E+00 -0.37499077306E+02  0.37499077306E+02  0.00000000000E+00 0.  1.
         25    2    1    2    0    0 -0.51540873731E+02  0.24078794314E+02  0.12345061442E+03  0.18466552324E+03  0.12500020509E+03 0.  0.
          4    1    3    3  502    0  0.33151866470E+02 -0.23047838684E+02  0.35287544409E+02  0.53638352033E+02  0.12700000000E+01 0. -1.
         -4    1    3    3    0  502 -0.84692740201E+02  0.47126632997E+02  0.88163070014E+02  0.13102717121E+03  0.12700000000E+01 0. -1.
          2    1    1    2  503    0 -0.19007624486E+02  0.85968636366E+01  0.76461940884E+02  0.79256698498E+02  0.00000000000E+00 0. -1.
         -1    1    1    2    0  501  0.70548498217E+02 -0.32675657951E+02  0.26955675128E+03  0.28054523946E+03  0.00000000000E+00 0.  1.
<mgrwt>
<rscale>  0 0.36646886E+02</rscale>
<asrwt>0</asrwt>
<pdfrwt beam="1">  1        2 0.77995131E-01 0.20861348E+02</pdfrwt>
<pdfrwt beam="2">  1       -1 0.57690892E-02 0.64377157E+02</pdfrwt>
<totfact> 0.90284071E+03</totfact>
</mgrwt>
</event>
<event>
 7    1  0.4251803E-004  0.8351845E+02  0.7546771E-02  0.1365681E+00
          2   -1    0    0  503    0  0.00000000000E+00  0.00000000000E+00  0.18348412114E+03  0.18348412114E+03  0.00000000000E+00 0. -1.
          2   -1    0    0  502    0 -0.00000000000E+00 -0.00000000000E+00 -0.90023098720E+03  0.90023098720E+03  0.00000000000E+00 0. -1.
         25    2    1    2    0    0  0.74101706297E+02 -0.92564621414E+02 -0.61720462868E+03  0.64080141595E+03  0.12500251598E+03 0.  0.
          4    1    3    3  501    0  0.73692776972E+02 -0.39672567404E+02 -0.16024395969E+03  0.18078793516E+03  0.12700000000E+01 0. -1.
         -4    1    3    3    0  501  0.40892932574E+00 -0.52892054010E+02 -0.45696066900E+03  0.46001348079E+03  0.12700000000E+01 0. -1.
          2    1    1    2  502    0 -0.24496420408E+02  0.66599898132E+02 -0.26181077510E+03  0.27125726350E+03  0.00000000000E+00 0. -1.
          2    1    1    2  503    0 -0.49605285889E+02  0.25964723282E+02  0.16226853772E+03  0.17165642889E+03  0.00000000000E+00 0. -1.
<mgrwt>
<rscale>  0 0.68382576E+02</rscale>
<asrwt>0</asrwt>
<pdfrwt beam="1">  1        2 0.28228326E-01 0.55989742E+02</pdfrwt>
<pdfrwt beam="2">  1        2 0.13849708E+00 0.83518454E+02</pdfrwt>
<totfact> 0.89537876E+02</totfact>
</mgrwt>
</event>
<event>
 7    1  0.4251803E-004  0.8323677E+02  0.7546771E-02  0.1379799E+00
          2   -1    0    0  502    0  0.00000000000E+00  0.00000000000E+00  0.88453055023E+03  0.88453055023E+03  0.00000000000E+00 0. -1.
          3   -1    0    0  503    0 -0.00000000000E+00 -0.00000000000E+00 -0.35927895440E+02  0.35927895440E+02  0.00000000000E+00 0. -1.
         25    2    1    2    0    0  0.27158527647E+02  0.57291098171E+02  0.18925784317E+03  0.23552386072E+03  0.12503240464E+03 0.  0.
          4    1    3    3  501    0  0.66813826091E+02  0.70132562338E+02  0.14782345414E+03  0.17673723476E+03  0.12700000000E+01 0. -1.
         -4    1    3    3    0  501 -0.39655298444E+02 -0.12841464167E+02  0.41434389035E+02  0.58786625956E+02  0.12700000000E+01 0. -1.
          2    1    1    2  502    0  0.41665751217E+02  0.27652318365E+02  0.40518246865E+03  0.40825668205E+03  0.00000000000E+00 0. -1.
          3    1    1    2  503    0 -0.68824278865E+02 -0.84943416536E+02  0.25416234296E+03  0.27667790290E+03  0.00000000000E+00 0. -1.
<mgrwt>
<rscale>  0 0.64516737E+02</rscale>
<asrwt>0</asrwt>
<pdfrwt beam="1">  1        2 0.13608161E+00 0.50006855E+02</pdfrwt>
<pdfrwt beam="2">  1        3 0.55273692E-02 0.83236775E+02</pdfrwt>
<totfact> 0.35759239E+03</totfact>
</mgrwt>
</event>
<event>
 7    1  0.4251803E-004  0.1153318E+03  0.7546771E-02  0.1389170E+00
          3   -1    0    0  503    0  0.00000000000E+00  0.00000000000E+00  0.57232955332E+03  0.57232955332E+03  0.00000000000E+00 0. -1.
         -1   -1    0    0    0  501 -0.00000000000E+00 -0.00000000000E+00 -0.60069359708E+03  0.60069359708E+03  0.00000000000E+00 0.  1.
         25    2    1    2    0    0 -0.21045810199E+02  0.11013191370E+03 -0.83343759570E+02  0.18747132569E+03  0.12500940427E+03 0.  0.
          4    1    3    3  502    0 -0.30848458049E+02  0.64886513528E+02 -0.11195650041E+03  0.13303292031E+03  0.12700000000E+01 0.  1.
         -4    1    3    3    0  502  0.98026478502E+01  0.45245400170E+02  0.28612740844E+02  0.54438405377E+02  0.12700000000E+01 0.  1.
          3    1    1    2  503    0 -0.12039341718E+02 -0.11507385125E+03  0.51321577387E+03  0.52609634816E+03  0.00000000000E+00 0. -1.
         -1    1    1    2    0  501  0.33085151918E+02  0.49419375506E+01 -0.45823605807E+03  0.45945547655E+03  0.00000000000E+00 0.  1.
<mgrwt>
<rscale>  0 0.62113641E+02</rscale>
<asrwt>0</asrwt>
<pdfrwt beam="1">  1        3 0.88050700E-01 0.11533184E+03</pdfrwt>
<pdfrwt beam="2">  1       -1 0.92414400E-01 0.33452205E+02</pdfrwt>
<totfact> 0.71033119E+00</totfact>
</mgrwt>
</event>
<event>
 7    1  0.4251803E-004  0.5913918E+02  0.7546771E-02  0.1505077E+00
         -3   -1    0    0    0  501 -0.00000000000E+00  0.00000000000E+00  0.45751175370E+02  0.45751175370E+02  0.00000000000E+00 0.  1.
          1   -1    0    0  503    0  0.00000000000E+00 -0.00000000000E+00 -0.80820471489E+03  0.80820471489E+03  0.00000000000E+00 0. -1.
         25    2    1    2    0    0  0.26020309074E+02 -0.60019301010E+02 -0.49407896291E+03  0.51382471200E+03  0.12498975995E+03 0.  0.
          4    1    3    3  502    0 -0.26095761581E+02 -0.80784730923E+02 -0.29046222956E+03  0.30261705375E+03  0.12700000000E+01 0. -1.
         -4    1    3    3    0  502  0.52116070655E+02  0.20765429914E+02 -0.20361673336E+03  0.21120765825E+03  0.12700000000E+01 0. -1.
          1    1    1    2  503    0  0.15838846498E+01  0.58645134822E+02 -0.29558222165E+03  0.30134798869E+03  0.00000000000E+00 0. -1.
         -3    1    1    2    0  501 -0.27604193724E+02  0.13741661873E+01  0.27207645051E+02  0.38783189568E+02  0.00000000000E+00 0.  1.
<mgrwt>
<rscale>  0 0.40429085E+02</rscale>
<asrwt>0</asrwt>
<pdfrwt beam="2">  1        1 0.12433919E+00 0.59139181E+02</pdfrwt>
<pdfrwt beam="1">  1       -3 0.70386424E-02 0.27638376E+02</pdfrwt>
<totfact> 0.12987257E+03</totfact>
</mgrwt>
</event>
<event>
 7    1  0.4251803E-004  0.3415448E+02  0.7546771E-02  0.1582214E+00
          2   -1    0    0  503    0  0.00000000000E+00  0.00000000000E+00  0.17910552253E+04  0.17910552253E+04  0.00000000000E+00 0. -1.
          2   -1    0    0  502    0 -0.00000000000E+00 -0.00000000000E+00 -0.17871474652E+03  0.17871474652E+03  0.00000000000E+00 0. -1.
         25    2    1    2    0    0 -0.35150480614E+02 -0.24165940794E+02  0.44918807084E+03  0.46820241921E+03  0.12499613350E+03 0.  0.
          4    1    3    3  501    0  0.31877947404E+00  0.34408552869E+02  0.32121258877E+03  0.32305292170E+03  0.12700000000E+01 0. -1.
         -4    1    3    3    0  501 -0.35469260088E+02 -0.58574493662E+02  0.12797548207E+03  0.14514949752E+03  0.12700000000E+01 0. -1.
          2    1    1    2  502    0  0.33821481384E+02 -0.48308450257E+01 -0.16732310023E+03  0.17077543599E+03  0.00000000000E+00 0. -1.
          2    1    1    2  503    0  0.13289992300E+01  0.28996785819E+02  0.13304755082E+04  0.13307921166E+04  0.00000000000E+00 0. -1.
<mgrwt>
<rscale>  0 0.31486659E+02</rscale>
<asrwt>0</asrwt>
<pdfrwt beam="1">  1        2 0.27554694E+00 0.29027226E+02</pdfrwt>
<pdfrwt beam="2">  1        2 0.27494578E-01 0.34154476E+02</pdfrwt>
<totfact> 0.33905554E+02</totfact>
</mgrwt>
</event>
<event>
 7    1  0.4251803E-004  0.6744652E+02  0.7546771E-02  0.1382447E+00
          1   -1    0    0  502    0  0.00000000000E+00  0.00000000000E+00  0.97629047240E+03  0.97629047240E+03  0.00000000000E+00 0. -1.
          3   -1    0    0  503    0 -0.00000000000E+00 -0.00000000000E+00 -0.10490163159E+03  0.10490163159E+03  0.00000000000E+00 0. -1.
         25    2    1    2    0    0  0.13810436931E+02 -0.10475826277E+02  0.73918548421E+02  0.14625653338E+03  0.12500620245E+03 0.  0.
          4    1    3    3  501    0 -0.50969660182E+02 -0.19806152667E+02  0.11679776400E+02  0.55930492750E+02  0.12700000000E+01 0. -1.
         -4    1    3    3    0  501  0.64780097113E+02  0.93303263903E+01  0.62238772021E+02  0.90326040626E+02  0.12700000000E+01 0. -1.
          1    1    1    2  502    0  0.42449604354E+02 -0.42964351268E+02  0.84287228124E+03  0.84503348269E+03  0.00000000000E+00 0. -1.
          3    1    1    2  503    0 -0.56260041286E+02  0.53440177545E+02 -0.45401988853E+02  0.89902087925E+02  0.00000000000E+00 0. -1.
<mgrwt>
<rscale>  0 0.63824970E+02</rscale>
<asrwt>0</asrwt>
<pdfrwt beam="1">  1        1 0.15019853E+00 0.60397884E+02</pdfrwt>
<pdfrwt beam="2">  1        3 0.16138713E-01 0.67446515E+02</pdfrwt>
<totfact> 0.29317269E+02</totfact>
</mgrwt>
</event>
<event>
 7    1  0.4251803E-004  0.3688411E+02  0.7546771E-02  0.1543278E+00
         -2   -1    0    0    0  501 -0.00000000000E+00  0.00000000000E+00  0.41286980548E+02  0.41286980548E+02  0.00000000000E+00 0.  1.
          1   -1    0    0  503    0  0.00000000000E+00 -0.00000000000E+00 -0.28049796551E+03  0.28049796551E+03  0.00000000000E+00 0. -1.
         25    2    1    2    0    0  0.20911985744E+02 -0.44856437898E+01 -0.11051410037E+03  0.16821126126E+03  0.12499691951E+03 0.  0.
          4    1    3    3  502    0 -0.11603823870E+02 -0.46883551087E+02 -0.33160459207E+01  0.48428557190E+02  0.12700000000E+01 0. -1.
         -4    1    3    3    0  502  0.32515809614E+02  0.42397907297E+02 -0.10719805445E+03  0.11978270407E+03  0.12700000000E+01 0. -1.
          1    1    1    2  503    0 -0.13158476457E+02  0.37973328953E+02 -0.10328024088E+03  0.11082385741E+03  0.00000000000E+00 0. -1.
         -2    1    1    2    0  501 -0.77535092868E+01 -0.33487685164E+02 -0.25416643713E+02  0.42749827386E+02  0.00000000000E+00 0.  1.
<mgrwt>
<rscale>  0 0.35606716E+02</rscale>
<asrwt>0</asrwt>
<pdfrwt beam="2">  1        1 0.43153532E-01 0.36884106E+02</pdfrwt>
<pdfrwt beam="1">  1       -2 0.63518434E-02 0.34373565E+02</pdfrwt>
<totfact> 0.93418489E+03</totfact>
</mgrwt>
</event>
<event>
 7    1  0.4251803E-004  0.6947140E+02  0.7546771E-02  0.1466611E+00
          2   -1    0    0  502    0  0.00000000000E+00  0.00000000000E+00  0.19096453261E+03  0.19096453261E+03  0.00000000000E+00 0. -1.
          2   -1    0    0  503    0 -0.00000000000E+00 -0.00000000000E+00 -0.96992864433E+03  0.96992864433E+03  0.00000000000E+00 0. -1.
         25    2    1    2    0    0 -0.55040209268E+02 -0.57001949187E+02 -0.49811491495E+03  0.51963615234E+03  0.12499846190E+03 0.  0.
          4    1    3    3  501    0 -0.32983386773E+02  0.24075312717E+02 -0.32108565149E+03  0.32367442435E+03  0.12700000000E+01 0.  1.
         -4    1    3    3    0  501 -0.22056822495E+02 -0.81077261905E+02 -0.17702926346E+03  0.19596172799E+03  0.12700000000E+01 0.  1.
          2    1    1    2  502    0  0.63762656974E+02  0.27455498492E+02  0.17297611469E+03  0.18638727713E+03  0.00000000000E+00 0. -1.
          2    1    1    2  503    0 -0.87224477063E+01  0.29546450695E+02 -0.45382531146E+03  0.45486974747E+03  0.00000000000E+00 0. -1.
<mgrwt>
<rscale>  0 0.46262386E+02</rscale>
<asrwt>0</asrwt>
<pdfrwt beam="1">  1        2 0.29379159E-01 0.69471401E+02</pdfrwt>
<pdfrwt beam="2">  1        2 0.14921979E+00 0.30807042E+02</pdfrwt>
<totfact> 0.82451798E+02</totfact>
</mgrwt>
</event>
<event>
 7    1  0.4251803E-004  0.5726811E+02  0.7546771E-02  0.1466500E+00
         -3   -1    0    0    0  501 -0.00000000000E+00  0.00000000000E+00  0.88854082404E+02  0.88854082404E+02  0.00000000000E+00 0.  1.
          2   -1    0    0  503    0  0.00000000000E+00 -0.00000000000E+00 -0.64772954559E+03  0.64772954559E+03  0.00000000000E+00 0. -1.
         25    2    1    2    0    0  0.56564618377E+02  0.21109406608E+02 -0.42916600085E+03  0.45105871700E+03  0.12500138716E+03 0.  0.
          4    1    3    3  502    0  0.29472215057E+02  0.12480462299E+01 -0.41246773853E+03  0.41352317626E+03  0.12700000000E+01 0.  1.
         -4    1    3    3    0  502  0.27092403321E+02  0.19861360378E+02 -0.16698262326E+02  0.37535540738E+02  0.12700000000E+01 0.  1.
          2    1    1    2  503    0 -0.57157752398E+02  0.16287567185E+02 -0.19850954759E+03  0.20721567023E+03  0.00000000000E+00 0. -1.
         -3    1    1    2    0  501  0.59313402119E+00 -0.37396973792E+02  0.68800085261E+02  0.78309240762E+02  0.00000000000E+00 0.  1.
<mgrwt>
<rscale>  0 0.46280917E+02</rscale>
<asrwt>0</asrwt>
<pdfrwt beam="2">  1        2 0.99650701E-01 0.57268107E+02</pdfrwt>
<pdfrwt beam="1">  1       -3 0.13669859E-01 0.37401677E+02</pdfrwt>
<totfact> 0.10643254E+03</totfact>
</mgrwt>
</event>
<event>
 7    1  0.4251803E-004  0.9809249E+02  0.7546771E-02  0.1334117E+00
          2   -1    0    0  502    0  0.00000000000E+00  0.00000000000E+00  0.27049828872E+04  0.27049828872E+04  0.00000000000E+00 0. -1.
          2   -1    0    0  503    0 -0.00000000000E+00 -0.00000000000E+00 -0.13479417477E+04  0.13479417477E+04  0.00000000000E+00 0.  1.
         25    2    1    2    0    0 -0.36353010281E+02  0.56630482116E+02 -0.23168671625E+03  0.27172076473E+03  0.12499954655E+03 0.  0.
          4    1    3    3  501    0  0.27552309046E+02  0.65539752363E+02 -0.16100952810E+03  0.17601213001E+03  0.12700000000E+01 0.  1.
         -4    1    3    3    0  501 -0.63905319326E+02 -0.89092702466E+01 -0.70677188158E+02  0.95708634723E+02  0.12700000000E+01 0.  1.
          2    1    1    2  502    0  0.41625746899E+02  0.46497353197E+02  0.26821703282E+04  0.26828962663E+04  0.00000000000E+00 0. -1.
          2    1    1    2  503    0 -0.52727366186E+01 -0.10312783531E+03 -0.10934424724E+04  0.10983076038E+04  0.00000000000E+00 0.  1.
<mgrwt>
<rscale>  0 0.78241393E+02</rscale>
<asrwt>0</asrwt>
<pdfrwt beam="1">  1        2 0.41615121E+00 0.62407585E+02</pdfrwt>
<pdfrwt beam="2">  1        2 0.20737565E+00 0.98092493E+02</pdfrwt>
<totfact> 0.10568572E+01</totfact>
</mgrwt>
</event>
<event>
 7    1  0.4251803E-004  0.8496581E+02  0.7546771E-02  0.1402154E+00
         -2   -1    0    0    0  501 -0.00000000000E+00  0.00000000000E+00  0.28557110614E+03  0.28557110614E+03  0.00000000000E+00 0.  1.
          2   -1    0    0  503    0  0.00000000000E+00 -0.00000000000E+00 -0.18718403747E+03  0.18718403747E+03  0.00000000000E+00 0. -1.
         25    2    1    2    0    0  0.97442895351E+02 -0.26667058853E+01 -0.11868700585E+03  0.19800037107E+03  0.12496124363E+03 0.  0.
          4    1    3    3  502    0  0.14485523976E+02  0.19669934816E+02 -0.10879564956E+03  0.11151162722E+03  0.12700000000E+01 0.  1.
         -4    1    3    3    0  502  0.82957371375E+02 -0.22336640701E+02 -0.98913562893E+01  0.86488743849E+02  0.12700000000E+01 0.  1.
          2    1    1    2  503    0 -0.68038892361E+02 -0.25826309066E+02  0.22874541962E+02  0.76285868833E+02  0.00000000000E+00 0. -1.
         -2    1    1    2    0  501 -0.29404002991E+02  0.28493014951E+02  0.19419953256E+03  0.19846890371E+03  0.00000000000E+00 0.  1.
<mgrwt>
<rscale>  0 0.58982012E+02</rscale>
<asrwt>0</asrwt>
<pdfrwt beam="2">  1        2 0.28797544E-01 0.84965813E+02</pdfrwt>
<pdfrwt beam="1">  1       -2 0.43934016E-01 0.40944442E+02</pdfrwt>
<totfact> 0.88074413E+02</totfact>
</mgrwt>
</event>
<event>
 7    1  0.4251803E-004  0.1640453E+03  0.7546771E-02  0.1279471E+00
         -2   -1    0    0    0  501 -0.00000000000E+00  0.00000000000E+00  0.72804751919E+03  0.72804751919E+03  0.00000000000E+00 0.  1.
          1   -1    0    0  503    0  0.00000000000E+00 -0.00000000000E+00 -0.15236006099E+03  0.15236006099E+03  0.00000000000E+00 0. -1.
         25    2    1    2    0    0 -0.18760836084E+03  0.31360893679E+02  0.30695350597E+03  0.38213140068E+03  0.12499419927E+03 0.  0.
          4    1    3    3  502    0 -0.91052823246E+01 -0.35086824236E+02  0.62092371712E+02  0.71910130900E+02  0.12700000000E+01 0.  1.
         -4    1    3    3    0  502 -0.17850307851E+03  0.66447717915E+02  0.24486113426E+03  0.31022126978E+03  0.12700000000E+01 0.  1.
          1    1    1    2  503    0  0.15925188589E+03  0.23143024165E+02 -0.54002259753E+02  0.16974394477E+03  0.00000000000E+00 0. -1.
         -2    1    1    2    0  501  0.28356474943E+02 -0.54503917844E+02  0.32273621198E+03  0.32853223473E+03  0.00000000000E+00 0.  1.
<mgrwt>
<rscale>  0 0.10039324E+03</rscale>
<asrwt>0</asrwt>
<pdfrwt beam="2">  1        1 0.23440010E-01 0.16404532E+03</pdfrwt>
<pdfrwt beam="1">  1       -2 0.11200731E+00 0.61439130E+02</pdfrwt>
<totfact> 0.12512688E+02</totfact>
</mgrwt>
</event>
<event>
 7    1  0.4251803E-004  0.1030997E+03  0.7546771E-02  0.1375670E+00
         -2   -1    0    0    0  501 -0.00000000000E+00  0.00000000000E+00  0.30101953198E+03  0.30101953198E+03  0.00000000000E+00 0.  1.
          2   -1    0    0  503    0  0.00000000000E+00 -0.00000000000E+00 -0.33545128484E+03  0.33545128484E+03  0.00000000000E+00 0.  1.
         25    2    1    2    0    0  0.91723068543E+02 -0.63919275441E+01  0.53161593884E+02  0.16402249518E+03  0.12499298308E+03 0.  0.
          4    1    3    3  502    0  0.15479470749E+02 -0.59984935764E+02  0.20849783639E+02  0.65376853022E+02  0.12700000000E+01 0.  1.
         -4    1    3    3    0  502  0.76243597794E+02  0.53593008220E+02  0.32311810245E+02  0.98645642153E+02  0.12700000000E+01 0.  1.
          2    1    1    2  503    0  0.10469164688E+02  0.40426165780E+02 -0.26317180299E+03  0.26646439946E+03  0.00000000000E+00 0.  1.
         -2    1    1    2    0  501 -0.10219223323E+03 -0.34034238236E+02  0.17557845624E+03  0.20598392219E+03  0.00000000000E+00 0.  1.
<mgrwt>
<rscale>  0 0.65615701E+02</rscale>
<asrwt>0</asrwt>
<pdfrwt beam="2">  1        2 0.51607890E-01 0.41759769E+02</pdfrwt>
<pdfrwt beam="1">  1       -2 0.46310697E-01 0.10309971E+03</pdfrwt>
<totfact> 0.43355184E+02</totfact>
</mgrwt>
</event>
<event>
 7    1  0.4251803E-004  0.3909554E+02  0.7546771E-02  0.1567973E+00
          2   -1    0    0  502    0  0.00000000000E+00  0.00000000000E+00  0.33385859174E+03  0.33385859174E+03  0.00000000000E+00 0. -1.
          1   -1    0    0  503    0 -0.00000000000E+00 -0.00000000000E+00 -0.11935499571E+04  0.11935499571E+04  0.00000000000E+00 0. -1.
         25    2    1    2    0    0 -0.57536710345E+02  0.29518590166E+02  0.11920398968E+03  0.18443626408E+03  0.12500129659E+03 0.  0.
          4    1    3    3  501    0  0.32578817398E+02  0.35982784402E+02  0.56265186846E+02  0.74320416220E+02  0.12700000000E+01 0. -1.
         -4    1    3    3    0  501 -0.90115527743E+02 -0.64641942358E+01  0.62938802831E+02  0.11011584786E+03  0.12700000000E+01 0. -1.
          2    1    1    2  502    0  0.19845863099E+02 -0.19331513800E+02  0.18065386907E+03  0.18276593259E+03  0.00000000000E+00 0. -1.
          1    1    1    2  503    0  0.37690847246E+02 -0.10187076366E+02 -0.11595492241E+04  0.11602063522E+04  0.00000000000E+00 0. -1.
<mgrwt>
<rscale>  0 0.32911108E+02</rscale>
<asrwt>0</asrwt>
<pdfrwt beam="1">  1        2 0.51362860E-01 0.27704976E+02</pdfrwt>
<pdfrwt beam="2">  1        1 0.18362307E+00 0.39095540E+02</pdfrwt>
<totfact> 0.17726935E+02</totfact>
</mgrwt>
</event>
<event>
 7    1  0.4251803E-004  0.5034509E+02  0.7546771E-02  0.1523860E+00
          1   -1    0    0  503    0  0.00000000000E+00  0.00000000000E+00  0.24563099138E+04  0.24563099138E+04  0.00000000000E+00 0. -1.
         -2   -1    0    0    0  501 -0.00000000000E+00 -0.00000000000E+00 -0.48095508617E+01  0.48095508617E+01  0.00000000000E+00 0.  1.
         25    2    1    2    0    0  0.52259385216E+01  0.29612474045E+02  0.14526392422E+04  0.14583175663E+04  0.12500058850E+03 0.  0.
          4    1    3    3  502    0 -0.11804438955E+02  0.17697679392E+02  0.38338152030E+02  0.43863189988E+02  0.12700000000E+01 0.  1.
         -4    1    3    3    0  502  0.17030377477E+02  0.11914794653E+02  0.14143010902E+04  0.14144543763E+04  0.12700000000E+01 0.  1.
          1    1    1    2  503    0 -0.47537342877E+01 -0.58215759808E+02  0.75819107199E+03  0.76043762027E+03  0.00000000000E+00 0. -1.
         -2    1    1    2    0  501 -0.47220423398E+00  0.28603285764E+02  0.24067004881E+03  0.24236427816E+03  0.00000000000E+00 0.  1.
<mgrwt>
<rscale>  0 0.37950379E+02</rscale>
<asrwt>0</asrwt>
<pdfrwt beam="1">  1        1 0.37789283E+00 0.50345091E+02</pdfrwt>
<pdfrwt beam="2">  1       -2 0.73993286E-03 0.28607183E+02</pdfrwt>
<totfact> 0.41962447E+03</totfact>
</mgrwt>
</event>
<event>
 7    1  0.4251803E-004  0.1066640E+03  0.7546771E-02  0.1340930E+00
          2   -1    0    0  503    0  0.00000000000E+00  0.00000000000E+00  0.31114045420E+03  0.31114045420E+03  0.00000000000E+00 0. -1.
         -2   -1    0    0    0  501 -0.00000000000E+00 -0.00000000000E+00 -0.16431614565E+04  0.16431614565E+04  0.00000000000E+00 0. -1.
         25    2    1    2    0    0 -0.25096763549E+02  0.85644661933E+02 -0.57421847984E+02  0.16397427105E+03  0.12500174912E+03 0.  0.
          4    1    3    3  502    0  0.32438852004E+02  0.79458821591E+02 -0.62041431462E+02  0.10590909104E+03  0.12700000000E+01 0. -1.
         -4    1    3    3    0  502 -0.57535615554E+02  0.61858403421E+01  0.46195834776E+01  0.58065180008E+02  0.12700000000E+01 0. -1.
          2    1    1    2  503    0  0.50652511622E+02  0.18978801532E+02  0.25311081698E+03  0.25882611443E+03  0.00000000000E+00 0. -1.
         -2    1    1    2    0  501 -0.25555748072E+02 -0.10462346347E+03 -0.15277099712E+04  0.15315015252E+04  0.00000000000E+00 0. -1.
<mgrwt>
<rscale>  0 0.75957858E+02</rscale>
<asrwt>0</asrwt>
<pdfrwt beam="1">  1        2 0.47867762E-01 0.54091329E+02</pdfrwt>
<pdfrwt beam="2">  1       -2 0.25279407E+00 0.10666398E+03</pdfrwt>
<totfact> 0.79039289E+00</totfact>
</mgrwt>
</event>
<event>
 7    1  0.4251803E-004  0.4635640E+02  0.7546771E-02  0.1590142E+00
          1   -1    0    0  503    0 -0.00000000000E+00  0.00000000000E+00  0.27033432744E+03  0.27033432744E+03  0.00000000000E+00 0. -1.
          2   -1    0    0  502    0  0.00000000000E+00 -0.00000000000E+00 -0.33338364684E+03  0.33338364684E+03  0.00000000000E+00 0. -1.
         25    2    1    2    0    0 -0.63044896347E+01 -0.53619475846E+02 -0.56153326140E+02  0.14728261665E+03  0.12499671336E+03 0.  0.
          4    1    3    3  501    0  0.37711719674E+01 -0.18143477128E+02  0.40102809807E+02  0.44195653120E+02  0.12700000000E+01 0. -1.
         -4    1    3    3    0  501 -0.10075661602E+02 -0.35475998718E+02 -0.96256135947E+02  0.10308696353E+03  0.12700000000E+01 0. -1.
          2    1    1    2  502    0  0.21966992156E+02  0.40590917577E+02 -0.22889585480E+03  0.23350264169E+03  0.00000000000E+00 0. -1.
          1    1    1    2  503    0 -0.15662502522E+02  0.13028558269E+02  0.22199986154E+03  0.22293271595E+03  0.00000000000E+00 0. -1.
<mgrwt>
<rscale>  0 0.30731366E+02</rscale>
<asrwt>0</asrwt>
<pdfrwt beam="2">  1        2 0.51289791E-01 0.46356400E+02</pdfrwt>
<pdfrwt beam="1">  1        1 0.41589897E-01 0.20372955E+02</pdfrwt>
<totfact> 0.12905861E+03</totfact>
</mgrwt>
</event>
<event>
 7    1  0.4251803E-004  0.4237105E+02  0.7546771E-02  0.1540802E+00
          3   -1    0    0  502    0  0.00000000000E+00  0.00000000000E+00  0.16178879756E+04  0.16178879756E+04  0.00000000000E+00 0. -1.
          3   -1    0    0  503    0 -0.00000000000E+00 -0.00000000000E+00 -0.66958043284E+03  0.66958043284E+03  0.00000000000E+00 0. -1.
         25    2    1    2    0    0  0.33736681061E+02 -0.21768549938E+02  0.27224855705E+03  0.30225104432E+03  0.12499753424E+03 0.  0.
          4    1    3    3  501    0 -0.16647611475E+02  0.34781055222E+02  0.31315002128E+02  0.49690109966E+02  0.12700000000E+01 0.  1.
         -4    1    3    3    0  501  0.50384292536E+02 -0.56549605160E+02  0.24093355492E+03  0.25256093436E+03  0.12700000000E+01 0.  1.
          3    1    1    2  502    0 -0.23442931993E+02 -0.19365236136E+02  0.13297775108E+04  0.13301251113E+04  0.00000000000E+00 0. -1.
          3    1    1    2  503    0 -0.10293749068E+02  0.41133786073E+02 -0.65371852511E+03  0.65509225282E+03  0.00000000000E+00 0. -1.
<mgrwt>
<rscale>  0 0.35893940E+02</rscale>
<asrwt>0</asrwt>
<pdfrwt beam="1">  1        3 0.24890584E+00 0.30406964E+02</pdfrwt>
<pdfrwt beam="2">  1        3 0.10301237E+00 0.42371049E+02</pdfrwt>
<totfact> 0.18917807E-01</totfact>
</mgrwt>
</event>
<event>
 7    1  0.4251803E-004  0.1805274E+03  0.7546771E-02  0.1198917E+00
          1   -1    0    0  503    0 -0.00000000000E+00  0.00000000000E+00  0.57007039278E+03  0.57007039278E+03  0.00000000000E+00 0. -1.
          2   -1    0    0  502    0  0.00000000000E+00 -0.00000000000E+00 -0.17414504374E+04  0.17414504374E+04  0.00000000000E+00 0. -1.
         25    2    1    2    0    0  0.43913242235E+02  0.38197611513E+02 -0.50771819343E+03  0.52610672696E+03  0.12499237512E+03 0.  0.
          4    1    3    3  501    0  0.76114619528E+02  0.49648024099E+02 -0.44941803550E+03  0.45851558876E+03  0.12700000000E+01 0. -1.
         -4    1    3    3    0  501 -0.32201377293E+02 -0.11450412586E+02 -0.58300157937E+02  0.67591138202E+02  0.12700000000E+01 0. -1.
          2    1    1    2  502    0  0.76915002003E+02  0.10075819655E+03 -0.12060123091E+04  0.12126556895E+04  0.00000000000E+00 0. -1.
          1    1    1    2  503    0 -0.12082824424E+03 -0.13895580807E+03  0.54235045792E+03  0.57275841365E+03  0.00000000000E+00 0. -1.
<mgrwt>
<rscale>  0 0.15127351E+03</rscale>
<asrwt>0</asrwt>
<pdfrwt beam="2">  1        2 0.26791545E+00 0.12676013E+03</pdfrwt>
<pdfrwt beam="1">  1        1 0.87703139E-01 0.18052737E+03</pdfrwt>
<totfact> 0.57162255E+01</totfact>
</mgrwt>
</event>
<event>
 7    1  0.4251803E-004  0.1523410E+03  0.7546771E-02  0.1308057E+00
          2   -1    0    0  503    0  0.00000000000E+00  0.00000000000E+00  0.79429530524E+03  0.79429530524E+03  0.00000000000E+00 0. -1.
         -1   -1    0    0    0  501 -0.00000000000E+00 -0.00000000000E+00 -0.13492846117E+03  0.13492846117E+03  0.00000000000E+00 0.  1.
         25    2    1    2    0    0 -0.43107028608E+02  0.18937772633E+03  0.15937554269E+03  0.28061316757E+03  0.12498418724E+03 0.  0.
          4    1    3    3  502    0 -0.31447190299E+02  0.18112284321E+03  0.80921577558E+02  0.20085896725E+03  0.12700000000E+01 0.  1.
         -4    1    3    3    0  502 -0.11659838309E+02  0.82548831285E+01  0.78453965131E+02  0.79754200326E+02  0.12700000000E+01 0.  1.
          2    1    1    2  503    0  0.45286129685E+02 -0.13872461586E+03  0.55496288523E+03  0.57382850798E+03  0.00000000000E+00 0. -1.
         -1    1    1    2    0  501 -0.21791010772E+01 -0.50653110477E+02 -0.54971583846E+02  0.74782090857E+02  0.00000000000E+00 0.  1.
<mgrwt>
<rscale>  0 0.87884488E+02</rscale>
<asrwt>0</asrwt>
<pdfrwt beam="1">  1        2 0.12219927E+00 0.15234101E+03</pdfrwt>
<pdfrwt beam="2">  1       -1 0.20758225E-01 0.50699961E+02</pdfrwt>
<totfact> 0.75005147E+02</totfact>
</mgrwt>
</event>
<event>
 7    1  0.4251803E-004  0.1392239E+03  0.7546771E-02  0.1328646E+00
          1   -1    0    0  503    0 -0.00000000000E+00  0.00000000000E+00  0.29197649731E+03  0.29197649731E+03  0.00000000000E+00 0. -1.
          2   -1    0    0  502    0  0.00000000000E+00 -0.00000000000E+00 -0.30932840359E+03  0.30932840359E+03  0.00000000000E+00 0. -1.
         25    2    1    2    0    0 -0.31897065877E+01 -0.15093570796E+03  0.12471693058E+03  0.23231810583E+03  0.12500250940E+03 0.  0.
          4    1    3    3  501    0  0.41599665233E+02 -0.14491163446E+03  0.97445733910E+02  0.17951935246E+03  0.12700000000E+01 0. -1.
         -4    1    3    3    0  501 -0.44789371821E+02 -0.60240734973E+01  0.27271196671E+02  0.52798753371E+02  0.12700000000E+01 0. -1.
          2    1    1    2  502    0  0.40058664690E+02  0.22882613117E+02 -0.21306258879E+03  0.21799994803E+03  0.00000000000E+00 0. -1.
          1    1    1    2  503    0 -0.36868958103E+02  0.12805309484E+03  0.70993751919E+02  0.15098684705E+03  0.00000000000E+00 0. -1.
<mgrwt>
<rscale>  0 0.80143014E+02</rscale>
<asrwt>0</asrwt>
<pdfrwt beam="2">  1        2 0.47588985E-01 0.46133617E+02</pdfrwt>
<pdfrwt beam="1">  1        1 0.44919461E-01 0.13922391E+03</pdfrwt>
<totfact> 0.12900115E+03</totfact>
</mgrwt>
</event>
<event>
 7    1  0.4251803E-004  0.3763404E+02  0.7546771E-02  0.1528195E+00
          1   -1    0    0  503    0  0.00000000000E+00  0.00000000000E+00  0.94608384107E+02  0.94608384107E+02  0.00000000000E+00 0. -1.
         -1   -1    0    0    0  501 -0.00000000000E+00 -0.00000000000E+00 -0.14236738126E+03  0.14236738126E+03  0.00000000000E+00 0.  1.
         25    2    1    2    0    0  0.15956579632E+02 -0.21962794887E+02  0.50340698398E+01  0.12801039785E+03  0.12499737319E+03 0.  0.
          4    1    3    3  502    0 -0.44253550365E+02 -0.39670393026E+02  0.21331114337E+02  0.63156520974E+02  0.12700000000E+01 0.  1.
         -4    1    3    3    0  502  0.60210129997E+02  0.17707598139E+02 -0.16297044497E+02  0.64853876873E+02  0.12700000000E+01 0.  1.
          1    1    1    2  503    0  0.56000950731E+01  0.52261664744E+02 -0.48526699642E+02  0.71536586757E+02  0.00000000000E+00 0. -1.
         -1    1    1    2    0  501 -0.21556674705E+02 -0.30298869857E+02 -0.42663673498E+01  0.37428780762E+02  0.00000000000E+00 0.  1.
<mgrwt>
<rscale>  0 0.37408763E+02</rscale>
<asrwt>0</asrwt>
<pdfrwt beam="1">  1        1 0.14555136E-01 0.37634042E+02</pdfrwt>
<pdfrwt beam="2">  1       -1 0.21902674E-01 0.37184832E+02</pdfrwt>
<totfact> 0.56959583E+03</totfact>
</mgrwt>
</event>
<event>
 7    1  0.4251803E-004  0.1078098E+03  0.7546771E-02  0.1284935E+00
         -2   -1    0    0    0  501 -0.00000000000E+00  0.00000000000E+00  0.12602452779E+03  0.12602452779E+03  0.00000000000E+00 0. -1.
          1   -1    0    0  503    0  0.00000000000E+00 -0.00000000000E+00 -0.10547106071E+04  0.10547106071E+04  0.00000000000E+00 0. -1.
         25    2    1    2    0    0  0.10247600137E+03  0.10699932196E+03 -0.63331353153E+03  0.66231495755E+03  0.12499955208E+03 0.  0.
          4    1    3    3  502    0  0.55209468063E+02 -0.18401222433E+02 -0.15458716926E+03  0.16518321994E+03  0.12700000000E+01 0.  1.
         -4    1    3    3    0  502  0.47266533310E+02  0.12540054440E+03 -0.47872636227E+03  0.49713173761E+03  0.12700000000E+01 0.  1.
          1    1    1    2  503    0 -0.14292965759E+02 -0.96832087427E+02 -0.38202836268E+03  0.39436837084E+03  0.00000000000E+00 0. -1.
         -2    1    1    2    0  501 -0.88183035614E+02 -0.10167234537E+02  0.86655814922E+02  0.12405180647E+03  0.00000000000E+00 0. -1.
<mgrwt>
<rscale>  0 0.97826263E+02</rscale>
<asrwt>0</asrwt>
<pdfrwt beam="2">  1        1 0.16226316E+00 0.10780981E+03</pdfrwt>
<pdfrwt beam="1">  1       -2 0.19388390E-01 0.88767226E+02</pdfrwt>
<totfact> 0.29188972E+02</totfact>
</mgrwt>
</event>
<event>
 7    1  0.4251803E-004  0.1181878E+03  0.7546771E-02  0.1364192E+00
          2   -1    0    0  503    0  0.00000000000E+00  0.00000000000E+00  0.11591289420E+04  0.11591289420E+04  0.00000000000E+00 0. -1.
         -1   -1    0    0    0  501 -0.00000000000E+00 -0.00000000000E+00 -0.32894877958E+02  0.32894877958E+02  0.00000000000E+00 0.  1.
         25    2    1    2    0    0 -0.11768066901E+03  0.80017843259E+02  0.34050538326E+03  0.38964059083E+03  0.12499711554E+03 0.  0.
          4    1    3    3  502    0 -0.64491915139E+02  0.73543842145E+02  0.88230161732E+02  0.13173487835E+03  0.12700000000E+01 0. -1.
         -4    1    3    3    0  502 -0.53188753868E+02  0.64740011135E+01  0.25227522153E+03  0.25790571247E+03  0.12700000000E+01 0. -1.
          2    1    1    2  503    0  0.77766134681E+02 -0.83431466322E+02  0.67635108075E+03  0.68590025930E+03  0.00000000000E+00 0. -1.
         -1    1    1    2    0  501  0.39914534326E+02  0.34136230635E+01  0.10937760007E+03  0.11648296987E+03  0.00000000000E+00 0.  1.
<mgrwt>
<rscale>  0 0.68808663E+02</rscale>
<asrwt>0</asrwt>
<pdfrwt beam="1">  1        2 0.17832750E+00 0.11818781E+03</pdfrwt>
<pdfrwt beam="2">  1       -1 0.50607513E-02 0.40060241E+02</pdfrwt>
<totfact> 0.36342375E+03</totfact>
</mgrwt>
</event>
<event>
 7    1  0.4251803E-004  0.1073065E+03  0.7546771E-02  0.1300121E+00
          2   -1    0    0  502    0  0.00000000000E+00  0.00000000000E+00  0.28043426706E+04  0.28043426706E+04  0.00000000000E+00 0. -1.
          2   -1    0    0  503    0 -0.00000000000E+00 -0.00000000000E+00 -0.20162269351E+04  0.20162269351E+04  0.00000000000E+00 0. -1.
         25    2    1    2    0    0 -0.36889930194E+02  0.14297105535E+03  0.34973376300E+03  0.39967450241E+03  0.12499765308E+03 0.  0.
          4    1    3    3  501    0  0.33205466868E+02  0.19463650721E+02  0.14824467155E+03  0.15316504912E+03  0.12700000000E+01 0. -1.
         -4    1    3    3    0  501 -0.70095397062E+02  0.12350740463E+03  0.20148909146E+03  0.24650945330E+03  0.12700000000E+01 0. -1.
          2    1    1    2  502    0 -0.38775009635E+02 -0.66991744780E+02  0.24275776678E+04  0.24288113818E+04  0.00000000000E+00 0. -1.
          2    1    1    2  503    0  0.75664939828E+02 -0.75979310575E+02 -0.19891956954E+04  0.19920837215E+04  0.00000000000E+00 0. -1.
<mgrwt>
<rscale>  0 0.91137051E+02</rscale>
<asrwt>0</asrwt>
<pdfrwt beam="1">  1        2 0.43143734E+00 0.77404104E+02</pdfrwt>
<pdfrwt beam="2">  1        2 0.31018876E+00 0.10730648E+03</pdfrwt>
<totfact> 0.40923973E+00</totfact>
</mgrwt>
</event>
<event>
 7    1  0.4251803E-004  0.8138741E+02  0.7546771E-02  0.1444771E+00
          2   -1    0    0  503    0  0.00000000000E+00  0.00000000000E+00  0.48741171745E+03  0.48741171745E+03  0.00000000000E+00 0. -1.
         -1   -1    0    0    0  501 -0.00000000000E+00 -0.00000000000E+00 -0.35961089776E+02  0.35961089776E+02  0.00000000000E+00 0.  1.
         25    2    1    2    0    0  0.32099395702E+02 -0.74968958861E+02  0.23898674194E+03  0.28176148862E+03  0.12499663055E+03 0.  0.
          4    1    3    3  502    0 -0.11064081121E+01  0.10705991823E+02  0.16063336586E+03  0.16099855132E+03  0.12700000000E+01 0.  1.
         -4    1    3    3    0  502  0.33205803814E+02 -0.85674950685E+02  0.78353376085E+02  0.12076293730E+03  0.12700000000E+01 0.  1.
          2    1    1    2  503    0 -0.29673894203E+02 -0.84281326098E+01  0.70360596015E+02  0.76825691589E+02  0.00000000000E+00 0. -1.
         -1    1    1    2    0  501 -0.24255014992E+01  0.83397091471E+02  0.14210328971E+03  0.16478562701E+03  0.00000000000E+00 0.  1.
<mgrwt>
<rscale>  0 0.50105937E+02</rscale>
<asrwt>0</asrwt>
<pdfrwt beam="1">  1        2 0.74986413E-01 0.30847584E+02</pdfrwt>
<pdfrwt beam="2">  1       -1 0.55324757E-02 0.81387409E+02</pdfrwt>
<totfact> 0.10187199E+04</totfact>
</mgrwt>
</event>
<event>
 7    1  0.4251803E-004  0.5810461E+02  0.7546771E-02  0.1526606E+00
         -1   -1    0    0    0  501 -0.00000000000E+00  0.00000000000E+00  0.65177518455E+02  0.65177518455E+02  0.00000000000E+00 0.  1.
          2   -1    0    0  503    0  0.00000000000E+00 -0.00000000000E+00 -0.20588664914E+03  0.20588664914E+03  0.00000000000E+00 0. -1.
         25    2    1    2    0    0 -0.11327460577E+01 -0.38573578502E+02 -0.12342581167E+03  0.17985465180E+03  0.12499824284E+03 0.  0.
          4    1    3    3  502    0 -0.30977380608E+02  0.37053790968E+02 -0.34562285951E+02  0.59403249444E+02  0.12700000000E+01 0.  1.
         -4    1    3    3    0  502  0.29844634551E+02 -0.75627369470E+02 -0.88863525722E+02  0.12045140235E+03  0.12700000000E+01 0.  1.
          2    1    1    2  503    0 -0.78298606635E+01 -0.23045264996E+02 -0.15619807122E+02  0.28920050679E+02  0.00000000000E+00 0. -1.
         -1    1    1    2    0  501  0.89626067211E+01  0.61618843498E+02 -0.16635118894E+01  0.62289465121E+02  0.00000000000E+00 0.  1.
<mgrwt>
<rscale>  0 0.37606022E+02</rscale>
<asrwt>0</asrwt>
<pdfrwt beam="2">  1        2 0.31674869E-01 0.24339083E+02</pdfrwt>
<pdfrwt beam="1">  1       -1 0.10027310E-01 0.58104610E+02</pdfrwt>
<totfact> 0.97117413E+03</totfact>
</mgrwt>
</event>
<event>
 7    1  0.4251803E-004  0.6438187E+02  0.7546771E-02  0.1455184E+00
          1   -1    0    0  503    0  0.00000000000E+00  0.00000000000E+00  0.30180349058E+03  0.30180349058E+03  0.00000000000E+00 0. -1.
         -2   -1    0    0    0  501 -0.00000000000E+00 -0.00000000000E+00 -0.70450718226E+02  0.70450718226E+02  0.00000000000E+00 0.  1.
         25    2    1    2    0    0 -0.51864473116E+02 -0.78257215423E+02  0.18199530789E+03  0.23991935223E+03  0.12499955256E+03 0.  0.
          4    1    3    3  502    0  0.38663524734E+02 -0.19372363468E+02  0.26968443515E+02  0.50981040170E+02  0.12700000000E+01 0. -1.
         -4    1    3    3    0  502 -0.90527997850E+02 -0.58884851955E+02  0.15502686438E+03  0.18893831206E+03  0.12700000000E+01 0. -1.
          1    1    1    2  503    0  0.88298263892E+01  0.35019612120E+02  0.60366827191E+02  0.70345525033E+02  0.00000000000E+00 0. -1.
         -2    1    1    2    0  501  0.43034646727E+02  0.43237603303E+02 -0.11009362726E+02  0.61989331549E+02  0.00000000000E+00 0.  1.
<mgrwt>
<rscale>  0 0.48220244E+02</rscale>
<asrwt>0</asrwt>
<pdfrwt beam="1">  1        1 0.46431306E-01 0.36115635E+02</pdfrwt>
<pdfrwt beam="2">  1       -2 0.10838572E-01 0.64381865E+02</pdfrwt>
<totfact> 0.40657831E+03</totfact>
</mgrwt>
</event>
<event>
 7    1  0.4251803E-004  0.1877393E+03  0.7546771E-02  0.1200734E+00
          1   -1    0    0  503    0  0.00000000000E+00  0.00000000000E+00  0.29892017705E+04  0.29892017705E+04  0.00000000000E+00 0.  1.
         -2   -1    0    0    0  501 -0.00000000000E+00 -0.00000000000E+00 -0.10038245251E+04  0.10038245251E+04  0.00000000000E+00 0.  1.
         25    2    1    2    0    0 -0.26158237741E+02 -0.18267827225E+03  0.49772106919E+03  0.54534392644E+03  0.12497252030E+03 0.  0.
          4    1    3    3  502    0 -0.65688529283E+02 -0.49924312999E+02  0.15301060434E+03  0.17384268132E+03  0.12700000000E+01 0.  1.
         -4    1    3    3    0  502  0.39530291541E+02 -0.13275395925E+03  0.34471046485E+03  0.37150124511E+03  0.12700000000E+01 0.  1.
          1    1    1    2  503    0  0.11811537230E+03  0.18194736502E+02  0.24571447538E+04  0.24600493147E+04  0.00000000000E+00 0.  1.
         -2    1    1    2    0  501 -0.91957134561E+02  0.16448353575E+03 -0.96948857760E+03  0.98763305444E+03  0.00000000000E+00 0.  1.
<mgrwt>
<rscale>  0 0.14978801E+03</rscale>
<asrwt>0</asrwt>
<pdfrwt beam="1">  1        1 0.45987719E+00 0.11950853E+03</pdfrwt>
<pdfrwt beam="2">  1       -2 0.15443454E+00 0.18773929E+03</pdfrwt>
<totfact> 0.22514264E-01</totfact>
</mgrwt>
</event>
<event>
 7    1  0.4251803E-004  0.4130880E+02  0.7546771E-02  0.1500313E+00
         -1   -1    0    0    0  501 -0.00000000000E+00  0.00000000000E+00  0.70544688115E+01  0.70544688115E+01  0.00000000000E+00 0.  1.
          2   -1    0    0  503    0  0.00000000000E+00 -0.00000000000E+00 -0.18239725740E+04  0.18239725740E+04  0.00000000000E+00 0. -1.
         25    2    1    2    0    0  0.31961135363E+02  0.39392933803E+01 -0.79063563234E+03  0.80110365470E+03  0.12500132100E+03 0.  0.
          4    1    3    3  502    0  0.11323949633E+02  0.62356618882E+02 -0.49507028945E+03  0.49911199560E+03  0.12700000000E+01 0. -1.
         -4    1    3    3    0  502  0.20637185730E+02 -0.58417325501E+02 -0.29556534289E+03  0.30199165911E+03  0.12700000000E+01 0. -1.
          2    1    1    2  503    0 -0.26047009294E+02  0.36943957284E+02 -0.54504263735E+03  0.54691386818E+03  0.00000000000E+00 0. -1.
         -1    1    1    2    0  501 -0.59141260696E+01 -0.40883250664E+02 -0.48123983552E+03  0.48300951995E+03  0.00000000000E+00 0.  1.
<mgrwt>
<rscale>  0 0.41093816E+02</rscale>
<asrwt>0</asrwt>
<pdfrwt beam="2">  1        2 0.28061102E+00 0.40879950E+02</pdfrwt>
<pdfrwt beam="1">  1       -1 0.10853035E-02 0.41308801E+02</pdfrwt>
<totfact> 0.15761606E+04</totfact>
</mgrwt>
</event>
<event>
 7    1  0.4251803E-004  0.9431524E+02  0.7546771E-02  0.1344332E+00
          2   -1    0    0  502    0  0.00000000000E+00  0.00000000000E+00  0.77291251567E+03  0.77291251567E+03  0.00000000000E+00 0. -1.
          1   -1    0    0  503    0 -0.00000000000E+00 -0.00000000000E+00 -0.42151785854E+03  0.42151785854E+03  0.00000000000E+00 0. -1.
         25    2    1    2    0    0 -0.31814112590E+02  0.21812058260E+02  0.31879329919E+03  0.34459772589E+03  0.12502208378E+03 0.  0.
          4    1    3    3  501    0 -0.36693326124E+02  0.64747792242E+02  0.12040947633E+03  0.14155822714E+03  0.12700000000E+01 0. -1.
         -4    1    3    3    0  501  0.48792135345E+01 -0.42935733983E+02  0.19838382287E+03  0.20303949875E+03  0.12700000000E+01 0. -1.
          2    1    1    2  502    0 -0.27863886804E+02  0.52464204992E+02  0.43360981648E+03  0.43766009863E+03  0.00000000000E+00 0. -1.
          1    1    1    2  503    0  0.59677999394E+02 -0.74276263251E+02 -0.40100845853E+03  0.41217254968E+03  0.00000000000E+00 0. -1.
<mgrwt>
<rscale>  0 0.74851486E+02</rscale>
<asrwt>0</asrwt>
<pdfrwt beam="1">  1        2 0.11890962E+00 0.59404453E+02</pdfrwt>
<pdfrwt beam="2">  1        1 0.64848901E-01 0.94315237E+02</pdfrwt>
<totfact> 0.30782472E+02</totfact>
</mgrwt>
</event>
<event>
 7    1  0.4251803E-004  0.1087339E+03  0.7546771E-02  0.1287297E+00
          2   -1    0    0  502    0  0.00000000000E+00  0.00000000000E+00  0.32067225884E+04  0.32067225884E+04  0.00000000000E+00 0.  1.
          2   -1    0    0  503    0 -0.00000000000E+00 -0.00000000000E+00 -0.81138836645E+03  0.81138836645E+03  0.00000000000E+00 0. -1.
         25    2    1    2    0    0  0.68165378965E+02  0.10767365487E+02 -0.87160336723E+00  0.14276116474E+03  0.12497013810E+03 0.  0.
          4    1    3    3  501    0  0.63444190177E+02 -0.30483244339E+02  0.42880893993E+02  0.82430439901E+02  0.12700000000E+01 0.  1.
         -4    1    3    3    0  501  0.47211887880E+01  0.41250609826E+02 -0.43752497360E+02  0.60330724841E+02  0.12700000000E+01 0.  1.
          2    1    1    2  502    0 -0.53616507896E+02 -0.95604283824E+02  0.31323114216E+04  0.31342287330E+04  0.00000000000E+00 0.  1.
          2    1    1    2  503    0 -0.14548871068E+02  0.84836918337E+02 -0.73610559629E+03  0.74112105708E+03  0.00000000000E+00 0. -1.
<mgrwt>
<rscale>  0 0.96743542E+02</rscale>
<asrwt>0</asrwt>
<pdfrwt beam="1">  1        2 0.49334193E+00 0.10873390E+03</pdfrwt>
<pdfrwt beam="2">  1        2 0.12482898E+00 0.86075388E+02</pdfrwt>
<totfact> 0.10314110E+01</totfact>
</mgrwt>
</event>
<event>
 7    1  0.4251803E-004  0.1651389E+03  0.7546771E-02  0.1404448E+00
          1   -1    0    0  503    0 -0.00000000000E+00  0.00000000000E+00  0.52610652259E+03  0.52610652259E+03  0.00000000000E+00 0. -1.
          2   -1    0    0  502    0  0.00000000000E+00 -0.00000000000E+00 -0.16134237599E+04  0.16134237599E+04  0.00000000000E+00 0. -1.
         25    2    1    2    0    0  0.28673846574E+01 -0.15356149854E+03  0.16659175862E+03  0.25878051536E+03  0.12500074145E+03 0.  0.
          4    1    3    3  501    0  0.56168751029E+02 -0.80352428011E+02  0.46899948902E+02  0.10868605884E+03  0.12700000000E+01 0.  1.
         -4    1    3    3    0  501 -0.53301366372E+02 -0.73209070527E+02  0.11969180972E+03  0.15009445652E+03  0.12700000000E+01 0.  1.
          2    1    1    2  502    0 -0.20673384292E+02  0.16409641391E+03 -0.15626188538E+04  0.15713474167E+04  0.00000000000E+00 0. -1.
          1    1    1    2  503    0  0.17805999635E+02 -0.10534915376E+02  0.30870985787E+03  0.30940235037E+03  0.00000000000E+00 0. -1.
<mgrwt>
<rscale>  0 0.58451458E+02</rscale>
<asrwt>0</asrwt>
<pdfrwt beam="2">  1        2 0.24821904E+00 0.16513895E+03</pdfrwt>
<pdfrwt beam="1">  1        1 0.80939464E-01 0.20689081E+02</pdfrwt>
<totfact> 0.76411010E+01</totfact>
</mgrwt>
</event>
<event>
 7    1  0.4251803E-004  0.6445326E+02  0.7546771E-02  0.1407205E+00
          2   -1    0    0  503    0  0.00000000000E+00  0.00000000000E+00  0.21040290451E+04  0.21040290451E+04  0.00000000000E+00 0.  1.
         -1   -1    0    0    0  501 -0.00000000000E+00 -0.00000000000E+00 -0.10277939178E+02  0.10277939178E+02  0.00000000000E+00 0.  1.
         25    2    1    2    0    0  0.29509836915E+02  0.18956636818E+02  0.62889179976E+03  0.64215352344E+03  0.12500426916E+03 0.  0.
          4    1    3    3  502    0  0.75172083249E+02 -0.34264659546E+01  0.29706917746E+03  0.30645438791E+03  0.12700000000E+01 0. -1.
         -4    1    3    3    0  502 -0.45662246334E+02  0.22383102773E+02  0.33182262229E+03  0.33569913553E+03  0.12700000000E+01 0. -1.
          2    1    1    2  503    0 -0.68898441621E+02  0.14797976019E+02  0.12109927926E+04  0.12130414333E+04  0.00000000000E+00 0.  1.
         -1    1    1    2    0  501  0.39388604706E+02 -0.33754612837E+02  0.25386651361E+03  0.25911202751E+03  0.00000000000E+00 0.  1.
<mgrwt>
<rscale>  0 0.57822152E+02</rscale>
<asrwt>0</asrwt>
<pdfrwt beam="1">  1        2 0.32369643E+00 0.64453260E+02</pdfrwt>
<pdfrwt beam="2">  1       -1 0.15812231E-02 0.51873269E+02</pdfrwt>
<totfact> 0.67457840E+03</totfact>
</mgrwt>
</event>
<event>
 7    1  0.4251803E-004  0.5245098E+02  0.7546771E-02  0.1497176E+00
          1   -1    0    0  503    0 -0.00000000000E+00  0.00000000000E+00  0.15474405736E+04  0.15474405736E+04  0.00000000000E+00 0. -1.
          2   -1    0    0  502    0  0.00000000000E+00 -0.00000000000E+00 -0.17112481841E+04  0.17112481841E+04  0.00000000000E+00 0. -1.
         25    2    1    2    0    0 -0.71457644164E+02 -0.26440275458E+02  0.49637862268E+03  0.51751960754E+03  0.12501809491E+03 0.  0.
          4    1    3    3  501    0 -0.46666399420E+02 -0.75774851501E+02  0.34785183152E+03  0.35905722461E+03  0.12700000000E+01 0.  1.
         -4    1    3    3    0  501 -0.24791244744E+02  0.49334576043E+02  0.14852679117E+03  0.15846238293E+03  0.12700000000E+01 0.  1.
          2    1    1    2  502    0  0.52434451946E+02 -0.40058352922E+00 -0.17000132983E+04  0.17008217857E+04  0.00000000000E+00 0. -1.
          1    1    1    2  503    0  0.19023192217E+02  0.26840858987E+02  0.10398270651E+04  0.10403473645E+04  0.00000000000E+00 0. -1.
<mgrwt>
<rscale>  0 0.41539865E+02</rscale>
<asrwt>0</asrwt>
<pdfrwt beam="2">  1        2 0.26326895E+00 0.52450980E+02</pdfrwt>
<pdfrwt beam="1">  1        1 0.23806778E+00 0.32898534E+02</pdfrwt>
<totfact> 0.13897669E+01</totfact>
</mgrwt>
</event>
<event>
 7    1  0.4251803E-004  0.2389436E+03  0.7546771E-02  0.1223525E+00
          2   -1    0    0  503    0  0.00000000000E+00  0.00000000000E+00  0.20949417666E+04  0.20949417666E+04  0.00000000000E+00 0. -1.
         -1   -1    0    0    0  501 -0.00000000000E+00 -0.00000000000E+00 -0.11637725920E+04  0.11637725920E+04  0.00000000000E+00 0.  1.
         25    2    1    2    0    0 -0.26223034713E+03  0.11088166873E+03  0.37544574165E+03  0.48748934244E+03  0.12500741838E+03 0.  0.
          4    1    3    3  502    0 -0.17593117205E+03  0.10199241841E+03  0.17211293464E+03  0.26641829120E+03  0.12700000000E+01 0. -1.
         -4    1    3    3    0  502 -0.86299175076E+02  0.88892503205E+01  0.20333280701E+03  0.22107105124E+03  0.12700000000E+01 0. -1.
          2    1    1    2  503    0  0.68536811661E+02  0.27044467377E+02  0.16498822961E+04  0.16515266539E+04  0.00000000000E+00 0. -1.
         -1    1    1    2    0  501  0.19369353547E+03 -0.13792613611E+03 -0.10941588632E+04  0.11196983623E+04  0.00000000000E+00 0.  1.
<mgrwt>
<rscale>  0 0.13268493E+03</rscale>
<asrwt>0</asrwt>
<pdfrwt beam="1">  1        2 0.32229873E+00 0.73679697E+02</pdfrwt>
<pdfrwt beam="2">  1       -1 0.17904194E+00 0.23894359E+03</pdfrwt>
<totfact> 0.20795780E+00</totfact>
</mgrwt>
</event>
<event>
 7    1  0.4251803E-004  0.7142661E+02  0.7546771E-02  0.1446366E+00
          2   -1    0    0  503    0  0.00000000000E+00  0.00000000000E+00  0.80972523181E+03  0.80972523181E+03  0.00000000000E+00 0. -1.
          2   -1    0    0  502    0 -0.00000000000E+00 -0.00000000000E+00 -0.32063089402E+02  0.32063089402E+02  0.00000000000E+00 0.  1.
         25    2    1    2    0    0 -0.82482574971E+02 -0.46255178060E+02  0.24877348837E+03  0.29403228757E+03  0.12499528370E+03 0.  0.
          4    1    3    3  501    0  0.24204598661E+02 -0.22784441554E+02  0.16033269984E+02  0.36927930075E+02  0.12700000000E+01 0. -1.
         -4    1    3    3    0  501 -0.10668717363E+03 -0.23470736505E+02  0.23274021839E+03  0.25710435750E+03  0.12700000000E+01 0. -1.
          2    1    1    2  502    0  0.34526088088E+02 -0.38141042378E+01  0.36040011666E+02  0.50054775903E+02  0.00000000000E+00 0.  1.
          2    1    1    2  503    0  0.47956486883E+02  0.50069282298E+02  0.49284864237E+03  0.49770125774E+03  0.00000000000E+00 0. -1.
<mgrwt>
<rscale>  0 0.49810475E+02</rscale>
<asrwt>0</asrwt>
<pdfrwt beam="1">  1        2 0.12457310E+00 0.71426611E+02</pdfrwt>
<pdfrwt beam="2">  1        2 0.49327836E-02 0.34736122E+02</pdfrwt>
<totfact> 0.74752066E+03</totfact>
</mgrwt>
</event>
<event>
 7    1  0.4251803E-004  0.7049704E+02  0.7546771E-02  0.1370347E+00
         -1   -1    0    0    0  501 -0.00000000000E+00  0.00000000000E+00  0.44894190130E+02  0.44894190130E+02  0.00000000000E+00 0.  1.
          2   -1    0    0  503    0  0.00000000000E+00 -0.00000000000E+00 -0.47539754617E+03  0.47539754617E+03  0.00000000000E+00 0. -1.
         25    2    1    2    0    0 -0.51270297093E+02  0.86289246322E+02 -0.26845105228E+03  0.31267664690E+03  0.12500496252E+03 0.  0.
          4    1    3    3  502    0 -0.75499752757E+02  0.83200327817E+02 -0.12888566860E+03  0.17098431415E+03  0.12700000000E+01 0.  1.
         -4    1    3    3    0  502  0.24229455664E+02  0.30889185048E+01 -0.13956538368E+03  0.14169233276E+03  0.12700000000E+01 0.  1.
          2    1    1    2  503    0 -0.92775338325E+01 -0.63133308424E+02 -0.66641453439E+02  0.92265760622E+02  0.00000000000E+00 0. -1.
         -1    1    1    2    0  501  0.60547830926E+02 -0.23155937898E+02 -0.95410850323E+02  0.11534932878E+03  0.00000000000E+00 0.  1.
<mgrwt>
<rscale>  0 0.67070938E+02</rscale>
<asrwt>0</asrwt>
<pdfrwt beam="2">  1        2 0.73138087E-01 0.63811341E+02</pdfrwt>
<pdfrwt beam="1">  1       -1 0.69067982E-02 0.70497041E+02</pdfrwt>
<totfact> 0.74011053E+03</totfact>
</mgrwt>
</event>
<event>
 7    1  0.4251803E-004  0.7774950E+02  0.7546771E-02  0.1345546E+00
          2   -1    0    0  503    0  0.00000000000E+00  0.00000000000E+00  0.11057509684E+04  0.11057509684E+04  0.00000000000E+00 0. -1.
          2   -1    0    0  502    0 -0.00000000000E+00 -0.00000000000E+00 -0.14817054975E+04  0.14817054975E+04  0.00000000000E+00 0. -1.
         25    2    1    2    0    0  0.44426292067E+02 -0.17657248311E+02  0.41659755222E+03  0.43756753012E+03  0.12500539607E+03 0.  0.
          4    1    3    3  501    0 -0.34419566077E+02  0.15449272882E+02  0.21938652015E+03  0.22261052241E+03  0.12700000000E+01 0.  1.
         -4    1    3    3    0  501  0.78845858144E+02 -0.33106521194E+02  0.19721103207E+03  0.21495700771E+03  0.12700000000E+01 0.  1.
          2    1    1    2  502    0 -0.58926069855E+01  0.77663434605E+02 -0.14683121360E+04  0.14703764350E+04  0.00000000000E+00 0. -1.
          2    1    1    2  503    0 -0.38533685082E+02 -0.60006186293E+02  0.67576005464E+03  0.67951250079E+03  0.00000000000E+00 0. -1.
<mgrwt>
<rscale>  0 0.74461896E+02</rscale>
<asrwt>0</asrwt>
<pdfrwt beam="1">  1        2 0.17011553E+00 0.71313304E+02</pdfrwt>
<pdfrwt beam="2">  1        2 0.22795469E+00 0.77749503E+02</pdfrwt>
<totfact> 0.58930958E+01</totfact>
</mgrwt>
</event>
<event>
 7    1  0.4251803E-004  0.3702378E+02  0.7546771E-02  0.1595595E+00
          2   -1    0    0  502    0  0.00000000000E+00  0.00000000000E+00  0.39278689986E+03  0.39278689986E+03  0.00000000000E+00 0. -1.
          3   -1    0    0  503    0 -0.00000000000E+00 -0.00000000000E+00 -0.10526952098E+03  0.10526952098E+03  0.00000000000E+00 0. -1.
         25    2    1    2    0    0 -0.29032084207E+02 -0.13014438250E+02  0.71021180686E+02  0.14725635885E+03  0.12501275775E+03 0.  0.
          4    1    3    3  501    0 -0.61373045460E+02  0.27068397762E+02  0.68189749955E+02  0.95659833605E+02  0.12700000000E+01 0.  1.
         -4    1    3    3    0  501  0.32340961253E+02 -0.40082836011E+02  0.28314307310E+01  0.51596525246E+02  0.12700000000E+01 0.  1.
          2    1    1    2  502    0 -0.70728023507E+01  0.23642370942E+02  0.27778427487E+03  0.27887827023E+03  0.00000000000E+00 0. -1.
          3    1    1    2  503    0  0.36104886558E+02 -0.10627932692E+02 -0.61288076679E+02  0.71921791758E+02  0.00000000000E+00 0. -1.
<mgrwt>
<rscale>  0 0.30226805E+02</rscale>
<asrwt>0</asrwt>
<pdfrwt beam="1">  1        2 0.60428753E-01 0.24677647E+02</pdfrwt>
<pdfrwt beam="2">  1        3 0.16195311E-01 0.37023780E+02</pdfrwt>
<totfact> 0.13657322E+03</totfact>
</mgrwt>
</event>
<event>
 7    1  0.4251803E-004  0.9347048E+02  0.7546771E-02  0.1434097E+00
         -3   -1    0    0    0  501 -0.00000000000E+00  0.00000000000E+00  0.30227435446E+03  0.30227435446E+03  0.00000000000E+00 0.  1.
          2   -1    0    0  503    0  0.00000000000E+00 -0.00000000000E+00 -0.21450340804E+04  0.21450340804E+04  0.00000000000E+00 0. -1.
         25    2    1    2    0    0 -0.54970678149E+02  0.57301971825E+02 -0.18681625323E+03  0.23840706816E+03  0.12502930154E+03 0.  0.
          4    1    3    3  502    0 -0.33378274493E+01  0.81009537636E+02 -0.15052867813E+03  0.17098006351E+03  0.12700000000E+01 0.  1.
         -4    1    3    3    0  502 -0.51632850700E+02 -0.23707565810E+02 -0.36287575104E+02  0.67427004642E+02  0.12700000000E+01 0.  1.
          2    1    1    2  503    0  0.81977139346E+02 -0.46485757934E+02 -0.19305045146E+04  0.19328033676E+04  0.00000000000E+00 0. -1.
         -3    1    1    2    0  501 -0.27006461197E+02 -0.10816213892E+02  0.27456104183E+03  0.27609799913E+03  0.00000000000E+00 0.  1.
<mgrwt>
<rscale>  0 0.52146285E+02</rscale>
<asrwt>0</asrwt>
<pdfrwt beam="2">  1        2 0.33000523E+00 0.93470477E+02</pdfrwt>
<pdfrwt beam="1">  1       -3 0.46503748E-01 0.29091913E+02</pdfrwt>
<totfact> 0.17720964E+01</totfact>
</mgrwt>
</event>
<event>
 7    1  0.4251803E-004  0.2005961E+03  0.7546771E-02  0.1254219E+00
          1   -1    0    0  503    0 -0.00000000000E+00  0.00000000000E+00  0.59507912022E+03  0.59507912022E+03  0.00000000000E+00 0. -1.
          2   -1    0    0  502    0  0.00000000000E+00 -0.00000000000E+00 -0.15631889652E+04  0.15631889652E+04  0.00000000000E+00 0. -1.
         25    2    1    2    0    0  0.37685076336E+02 -0.22174811089E+03  0.12091987003E+03  0.28432255544E+03  0.12500124359E+03 0.  0.
          4    1    3    3  501    0  0.72770639928E+01 -0.36941791789E+01  0.53398976651E+02  0.54033935887E+02  0.12700000000E+01 0. -1.
         -4    1    3    3    0  501  0.30408012343E+02 -0.21805393171E+03  0.67520893382E+02  0.23028861955E+03  0.12700000000E+01 0. -1.
          2    1    1    2  502    0  0.22304217585E+02  0.19881864123E+03 -0.14720475656E+04  0.14855808176E+04  0.00000000000E+00 0. -1.
          1    1    1    2  503    0 -0.59989293921E+02  0.22929469661E+02  0.38301785059E+03  0.38836471239E+03  0.00000000000E+00 0. -1.
<mgrwt>
<rscale>  0 0.11350199E+03</rscale>
<asrwt>0</asrwt>
<pdfrwt beam="2">  1        2 0.24049061E+00 0.20059612E+03</pdfrwt>
<pdfrwt beam="1">  1        1 0.91550633E-01 0.64222083E+02</pdfrwt>
<totfact> 0.66276173E+01</totfact>
</mgrwt>
</event>
<event>
 7    1  0.4251803E-004  0.2313023E+03  0.7546771E-02  0.1249827E+00
          2   -1    0    0  503    0  0.00000000000E+00  0.00000000000E+00  0.14239689426E+04  0.14239689426E+04  0.00000000000E+00 0. -1.
          2   -1    0    0  502    0 -0.00000000000E+00 -0.00000000000E+00 -0.45482884173E+03  0.45482884173E+03  0.00000000000E+00 0. -1.
         25    2    1    2    0    0 -0.13062753608E+02  0.20257212765E+03  0.58936453739E+03  0.63575316817E+03  0.12500172189E+03 0.  0.
          4    1    3    3  501    0  0.16544810844E+02  0.95886810836E+02  0.12523192506E+03  0.15859589911E+03  0.12700000000E+01 0. -1.
         -4    1    3    3    0  501 -0.29607564452E+02  0.10668531681E+03  0.46413261233E+03  0.47715726906E+03  0.12700000000E+01 0. -1.
          2    1    1    2  502    0 -0.28603405617E+02  0.50669653714E+02 -0.40923088650E+03  0.41334669115E+03  0.00000000000E+00 0. -1.
          2    1    1    2  503    0  0.41666159225E+02 -0.25324178136E+03  0.78900645000E+03  0.82969792502E+03  0.00000000000E+00 0. -1.
<mgrwt>
<rscale>  0 0.11601065E+03</rscale>
<asrwt>0</asrwt>
<pdfrwt beam="1">  1        2 0.21907214E+00 0.23130228E+03</pdfrwt>
<pdfrwt beam="2">  1        2 0.69973669E-01 0.58185639E+02</pdfrwt>
<totfact> 0.16653294E+02</totfact>
</mgrwt>
</event>
<event>
 7    1  0.4251803E-004  0.6689226E+02  0.7546771E-02  0.1534934E+00
          1   -1    0    0  503    0  0.00000000000E+00  0.00000000000E+00  0.34516073020E+03  0.34516073020E+03  0.00000000000E+00 0. -1.
         -2   -1    0    0    0  501 -0.00000000000E+00 -0.00000000000E+00 -0.40405514939E+02  0.40405514939E+02  0.00000000000E+00 0.  1.
         25    2    1    2    0    0  0.44598328281E+02 -0.25789945571E+02  0.21790292353E+03  0.25643963082E+03  0.12500187197E+03 0.  0.
          4    1    3    3  502    0  0.36204243310E+02 -0.23879115221E+02  0.53597682523E+01  0.43718410230E+02  0.12700000000E+01 0. -1.
         -4    1    3    3    0  502  0.83940849717E+01 -0.19108303503E+01  0.21254315527E+03  0.21272122059E+03  0.12700000000E+01 0. -1.
          1    1    1    2  503    0  0.18729681095E+02 -0.70498782515E+01  0.37102860569E+02  0.42155948568E+02  0.00000000000E+00 0. -1.
         -2    1    1    2    0  501 -0.63328009376E+02  0.32839823822E+02  0.49749431169E+02  0.86970665755E+02  0.00000000000E+00 0.  1.
<mgrwt>
<rscale>  0 0.36588031E+02</rscale>
<asrwt>0</asrwt>
<pdfrwt beam="1">  1        1 0.53101649E-01 0.20012540E+02</pdfrwt>
<pdfrwt beam="2">  1       -2 0.62162333E-02 0.66892261E+02</pdfrwt>
<totfact> 0.80848324E+03</totfact>
</mgrwt>
</event>
<event>
 7    1  0.4251803E-004  0.8655417E+02  0.7546771E-02  0.1351045E+00
          2   -1    0    0  502    0  0.00000000000E+00  0.00000000000E+00  0.37187642740E+03  0.37187642740E+03  0.00000000000E+00 0. -1.
          1   -1    0    0  503    0 -0.00000000000E+00 -0.00000000000E+00 -0.15179782272E+04  0.15179782272E+04  0.00000000000E+00 0. -1.
         25    2    1    2    0    0  0.29659945340E+02  0.15133688343E+02 -0.17373469756E+02  0.13051248618E+03  0.12499172259E+03 0.  0.
          4    1    3    3  501    0  0.10785876086E+02 -0.34507956162E+02  0.38901916260E+02  0.53123499038E+02  0.12700000000E+01 0. -1.
         -4    1    3    3    0  501  0.18874069254E+02  0.49641644505E+02 -0.56275386016E+02  0.77388987140E+02  0.12700000000E+01 0. -1.
          2    1    1    2  502    0  0.58184811500E+02 -0.18698875110E+02  0.31099185159E+03  0.31694013942E+03  0.00000000000E+00 0. -1.
          1    1    1    2  503    0 -0.87844756840E+02  0.35651867665E+01 -0.14397201817E+04  0.14424020290E+04  0.00000000000E+00 0. -1.
<mgrwt>
<rscale>  0 0.72731099E+02</rscale>
<asrwt>0</asrwt>
<pdfrwt beam="1">  1        2 0.57211758E-01 0.61115630E+02</pdfrwt>
<pdfrwt beam="2">  1        1 0.23353511E+00 0.86554172E+02</pdfrwt>
<totfact> 0.92046806E+01</totfact>
</mgrwt>
</event>
<event>
 7    1  0.4251803E-004  0.7361981E+02  0.7546771E-02  0.1427718E+00
          2   -1    0    0  502    0  0.00000000000E+00  0.00000000000E+00  0.12538472609E+04  0.12538472609E+04  0.00000000000E+00 0. -1.
          2   -1    0    0  503    0 -0.00000000000E+00 -0.00000000000E+00 -0.47961234965E+03  0.47961234965E+03  0.00000000000E+00 0. -1.
         25    2    1    2    0    0  0.44158026612E+02 -0.96243817633E+02 -0.22318174829E+03  0.27685503818E+03  0.12500326255E+03 0.  0.
          4    1    3    3  501    0  0.61300678583E+02 -0.15651030444E+02 -0.37125643760E+02  0.73366574633E+02  0.12700000000E+01 0.  1.
         -4    1    3    3    0  501 -0.17142651971E+02 -0.80592787189E+02 -0.18605610453E+03  0.20348846355E+03  0.12700000000E+01 0.  1.
          2    1    1    2  502    0 -0.45751638032E+02  0.57512839935E+02  0.12242646426E+04  0.12264684481E+04  0.00000000000E+00 0. -1.
          2    1    1    2  503    0  0.15936114200E+01  0.38730977698E+02 -0.22684798309E+03  0.23013612420E+03  0.00000000000E+00 0. -1.
<mgrwt>
<rscale>  0 0.53420782E+02</rscale>
<asrwt>0</asrwt>
<pdfrwt beam="1">  1        2 0.19289958E+00 0.73619812E+02</pdfrwt>
<pdfrwt beam="2">  1        2 0.73786516E-01 0.38763749E+02</pdfrwt>
<totfact> 0.21108861E+02</totfact>
</mgrwt>
</event>
<event>
 7    1  0.4251803E-004  0.8237503E+02  0.7546771E-02  0.1453340E+00
          1   -1    0    0  502    0  0.00000000000E+00  0.00000000000E+00  0.13059857679E+04  0.13059857679E+04  0.00000000000E+00 0. -1.
          1   -1    0    0  503    0 -0.00000000000E+00 -0.00000000000E+00 -0.33926979261E+02  0.33926979261E+02  0.00000000000E+00 0. -1.
         25    2    1    2    0    0 -0.96845785636E+01  0.62059582478E+02  0.67950138496E+03  0.69375071347E+03  0.12499094946E+03 0.  0.
          4    1    3    3  501    0  0.31176759567E+02  0.57881640930E+02  0.60587205167E+03  0.60942992262E+03  0.12700000000E+01 0. -1.
         -4    1    3    3    0  501 -0.40861338130E+02  0.41779415479E+01  0.73629333287E+02  0.84320790850E+02  0.12700000000E+01 0. -1.
          1    1    1    2  502    0  0.18306328217E+02  0.21987431942E+02  0.55147247158E+03  0.55221413938E+03  0.00000000000E+00 0. -1.
          1    1    1    2  503    0 -0.86217496532E+01 -0.84047014420E+02  0.41084932105E+02  0.93947894314E+02  0.00000000000E+00 0. -1.
<mgrwt>
<rscale>  0 0.48546911E+02</rscale>
<asrwt>0</asrwt>
<pdfrwt beam="1">  1        1 0.20092085E+00 0.28610642E+02</pdfrwt>
<pdfrwt beam="2">  1        1 0.52195363E-02 0.82375034E+02</pdfrwt>
<totfact> 0.19863480E+03</totfact>
</mgrwt>
</event>
<event>
 7    1  0.4251803E-004  0.1083470E+03  0.7546771E-02  0.1301106E+00
         -1   -1    0    0    0  501 -0.00000000000E+00  0.00000000000E+00  0.11258426925E+04  0.11258426925E+04  0.00000000000E+00 0.  1.
          1   -1    0    0  503    0  0.00000000000E+00 -0.00000000000E+00 -0.47964074919E+03  0.47964074919E+03  0.00000000000E+00 0. -1.
         25    2    1    2    0    0  0.75799038014E+02  0.11719408837E+01  0.44564538307E+02  0.15277703334E+03  0.12493180633E+03 0.  0.
          4    1    3    3  502    0  0.96938172937E+02 -0.35700846071E+02  0.35983778625E+02  0.10939837753E+03  0.12700000000E+01 0. -1.
         -4    1    3    3    0  502 -0.21139134923E+02  0.36872786955E+02  0.85807596818E+01  0.43378655810E+02  0.12700000000E+01 0. -1.
          1    1    1    2  503    0 -0.84061931261E+02  0.74345826752E+02 -0.41669619883E+03  0.43154308285E+03  0.00000000000E+00 0. -1.
         -1    1    1    2    0  501  0.82628932476E+01 -0.75517767636E+02  0.10183336038E+04  0.10211633255E+04  0.00000000000E+00 0.  1.
<mgrwt>
<rscale>  0 0.90724624E+02</rscale>
<asrwt>0</asrwt>
<pdfrwt beam="2">  1        1 0.73790885E-01 0.10834702E+03</pdfrwt>
<pdfrwt beam="1">  1       -1 0.17320657E+00 0.75968471E+02</pdfrwt>
<totfact> 0.13876015E+01</totfact>
</mgrwt>
</event>
<event>
 7    1  0.4251803E-004  0.4695239E+03  0.7546771E-02  0.1162858E+00
          2   -1    0    0  503    0  0.00000000000E+00  0.00000000000E+00  0.19683549247E+04  0.19683549247E+04  0.00000000000E+00 0. -1.
         -3   -1    0    0    0  501 -0.00000000000E+00 -0.00000000000E+00 -0.96389179376E+03  0.96389179376E+03  0.00000000000E+00 0.  1.
         25    2    1    2    0    0  0.27483975415E+03 -0.32025668086E+03  0.72510225338E+02  0.44607678030E+03  0.12500211619E+03 0.  0.
          4    1    3    3  502    0  0.14064185929E+03 -0.90140965412E+02 -0.95683747718E+01  0.16732809963E+03  0.12700000000E+01 0. -1.
         -4    1    3    3    0  502  0.13419789485E+03 -0.23011571545E+03  0.82078600110E+02  0.27874868067E+03  0.12700000000E+01 0. -1.
          2    1    1    2  503    0  0.70764435816E+02 -0.18149377919E+02  0.16328990520E+04  0.16345324467E+04  0.00000000000E+00 0. -1.
         -3    1    1    2    0  501 -0.34560418996E+03  0.33840605878E+03 -0.70094614639E+03  0.85163749147E+03  0.00000000000E+00 0.  1.
<mgrwt>
<rscale>  0 0.18520525E+03</rscale>
<asrwt>0</asrwt>
<pdfrwt beam="1">  1        2 0.30282383E+00 0.73054810E+02</pdfrwt>
<pdfrwt beam="2">  1       -3 0.14829105E+00 0.46952395E+03</pdfrwt>
<totfact> 0.18948485E+00</totfact>
</mgrwt>
</event>
<event>
 7    1  0.4251803E-004  0.1145251E+03  0.7546771E-02  0.1400802E+00
          1   -1    0    0  503    0 -0.00000000000E+00  0.00000000000E+00  0.10823073426E+03  0.10823073426E+03  0.00000000000E+00 0. -1.
          2   -1    0    0  502    0  0.00000000000E+00 -0.00000000000E+00 -0.23338129772E+04  0.23338129772E+04  0.00000000000E+00 0. -1.
         25    2    1    2    0    0 -0.56108278223E+02  0.12411884134E+03 -0.86167972060E+02  0.20397067520E+03  0.12500196508E+03 0.  0.
          4    1    3    3  501    0 -0.83243701851E+02  0.11994814428E+03 -0.96044805298E+02  0.17476638332E+03  0.12700000000E+01 0.  1.
         -4    1    3    3    0  501  0.27135423628E+02  0.41706970520E+01  0.98768332383E+01  0.29204291880E+02  0.12700000000E+01 0.  1.
          2    1    1    2  502    0  0.16999431871E+02 -0.25567298974E+02 -0.21315314287E+04  0.21317525417E+04  0.00000000000E+00 0. -1.
          1    1    1    2  503    0  0.39108846352E+02 -0.98551542361E+02 -0.78828421815E+01  0.10632049457E+03  0.00000000000E+00 0. -1.
<mgrwt>
<rscale>  0 0.59297989E+02</rscale>
<asrwt>0</asrwt>
<pdfrwt beam="2">  1        2 0.35904815E+00 0.30702890E+02</pdfrwt>
<pdfrwt beam="1">  1        1 0.16650882E-01 0.11452510E+03</pdfrwt>
<totfact> 0.27990939E+02</totfact>
</mgrwt>
</event>
<event>
 7    1  0.4251803E-004  0.4183904E+02  0.7546771E-02  0.1558626E+00
          2   -1    0    0  503    0  0.00000000000E+00  0.00000000000E+00  0.40238050013E+02  0.40238050013E+02  0.00000000000E+00 0. -1.
         -1   -1    0    0    0  501 -0.00000000000E+00 -0.00000000000E+00 -0.32413530040E+03  0.32413530040E+03  0.00000000000E+00 0.  1.
         25    2    1    2    0    0 -0.15140921858E+02 -0.22874406406E+02 -0.22843363434E+03  0.26184504957E+03  0.12501367406E+03 0.  0.
          4    1    3    3  502    0 -0.10666090378E+02 -0.36439915246E+02 -0.24026728755E+03  0.24325216396E+03  0.12700000000E+01 0. -1.
         -4    1    3    3    0  502 -0.44748314798E+01  0.13565508840E+02  0.11833653206E+02  0.18592885604E+02  0.12700000000E+01 0. -1.
          2    1    1    2  503    0  0.35312923257E+01 -0.27233393289E+02 -0.80374781870E+00  0.27473145908E+02  0.00000000000E+00 0. -1.
         -1    1    1    2    0  501  0.11609629532E+02  0.50107799695E+02 -0.54659868226E+02  0.75055154937E+02  0.00000000000E+00 0.  1.
<mgrwt>
<rscale>  0 0.33896284E+02</rscale>
<asrwt>0</asrwt>
<pdfrwt beam="1">  1        2 0.61904694E-02 0.27461386E+02</pdfrwt>
<pdfrwt beam="2">  1       -1 0.49866968E-01 0.41839041E+02</pdfrwt>
<totfact> 0.46101660E+03</totfact>
</mgrwt>
</event>
<event>
 7    1  0.4251803E-004  0.7847383E+02  0.7546771E-02  0.1424527E+00
          2   -1    0    0  503    0  0.00000000000E+00  0.00000000000E+00  0.31332352560E+02  0.31332352560E+02  0.00000000000E+00 0. -1.
         -1   -1    0    0    0  501 -0.00000000000E+00 -0.00000000000E+00 -0.79271191275E+03  0.79271191275E+03  0.00000000000E+00 0.  1.
         25    2    1    2    0    0 -0.32322894411E+01  0.85585380945E+02 -0.20281617721E+03  0.25317008264E+03  0.12500153552E+03 0.  0.
          4    1    3    3  502    0 -0.28104291366E+02  0.10526703089E+03 -0.18981916696E+03  0.21886965991E+03  0.12700000000E+01 0.  1.
         -4    1    3    3    0  502  0.24872001925E+02 -0.19681649942E+02 -0.12997010245E+02  0.34300422731E+02  0.12700000000E+01 0.  1.
          2    1    1    2  503    0 -0.26399038819E+02 -0.62993511319E+02 -0.46780085304E+03  0.47276075326E+03  0.00000000000E+00 0. -1.
         -1    1    1    2    0  501  0.29631328260E+02 -0.22591869626E+02 -0.90762529948E+02  0.98113429408E+02  0.00000000000E+00 0.  1.
<mgrwt>
<rscale>  0 0.54074402E+02</rscale>
<asrwt>0</asrwt>
<pdfrwt beam="1">  1        2 0.48203629E-02 0.78473833E+02</pdfrwt>
<pdfrwt beam="2">  1       -1 0.12195566E+00 0.37261350E+02</pdfrwt>
<totfact> 0.11975768E+03</totfact>
</mgrwt>
</event>
<event>
 7    1  0.4251803E-004  0.1106418E+03  0.7546771E-02  0.1354290E+00
         -2   -1    0    0    0  501 -0.00000000000E+00  0.00000000000E+00  0.52371176914E+03  0.52371176914E+03  0.00000000000E+00 0.  1.
          2   -1    0    0  503    0  0.00000000000E+00 -0.00000000000E+00 -0.50062796175E+03  0.50062796175E+03  0.00000000000E+00 0.  1.
         25    2    1    2    0    0 -0.30243942484E+02 -0.12825807791E+03  0.92471399492E+02  0.20381490986E+03  0.12499890859E+03 0.  0.
          4    1    3    3  502    0 -0.61992553366E+02 -0.17328113014E+02  0.19429167661E+02  0.67249131068E+02  0.12700000000E+01 0. -1.
         -4    1    3    3    0  502  0.31748610882E+02 -0.11092996490E+03  0.73042231831E+02  0.13656577879E+03  0.12700000000E+01 0. -1.
          2    1    1    2  503    0 -0.12236264631E+02  0.10932158475E+03 -0.43666821664E+03  0.45031107746E+03  0.00000000000E+00 0.  1.
         -2    1    1    2    0  501  0.42480207114E+02  0.18936493160E+02  0.36728062454E+03  0.37021374357E+03  0.00000000000E+00 0.  1.
<mgrwt>
<rscale>  0 0.71735117E+02</rscale>
<asrwt>0</asrwt>
<pdfrwt beam="2">  1        2 0.77019686E-01 0.11064185E+03</pdfrwt>
<pdfrwt beam="1">  1       -2 0.80571041E-01 0.46509771E+02</pdfrwt>
<totfact> 0.92287549E+01</totfact>
</mgrwt>
</event>
<event>
 7    1  0.4251803E-004  0.5175899E+02  0.7546771E-02  0.1519408E+00
          2   -1    0    0  502    0  0.00000000000E+00  0.00000000000E+00  0.17438144697E+04  0.17438144697E+04  0.00000000000E+00 0. -1.
          3   -1    0    0  503    0 -0.00000000000E+00 -0.00000000000E+00 -0.36639414310E+02  0.36639414310E+02  0.00000000000E+00 0. -1.
         25    2    1    2    0    0  0.25630924302E+01 -0.43260538357E+02  0.19946381387E+03  0.23935110835E+03  0.12500038561E+03 0.  0.
          4    1    3    3  501    0  0.31713939217E+02 -0.23713760407E+02  0.29564588889E+01  0.39729962528E+02  0.12700000000E+01 0. -1.
         -4    1    3    3    0  501 -0.29150846787E+02 -0.19546777951E+02  0.19650735498E+03  0.19962114582E+03  0.12700000000E+01 0. -1.
          2    1    1    2  502    0 -0.31187546995E+02  0.41742701612E+02  0.15113145236E+04  0.15122125200E+04  0.00000000000E+00 0. -1.
          3    1    1    2  503    0  0.28624454565E+02  0.15178367453E+01 -0.36032821777E+01  0.28890255623E+02  0.00000000000E+00 0. -1.
<mgrwt>
<rscale>  0 0.38518233E+02</rscale>
<asrwt>0</asrwt>
<pdfrwt beam="1">  1        2 0.26827908E+00 0.51758990E+02</pdfrwt>
<pdfrwt beam="2">  1        3 0.56368343E-02 0.28664669E+02</pdfrwt>
<totfact> 0.10146698E+03</totfact>
</mgrwt>
</event>
<event>
 7    1  0.4251803E-004  0.1772131E+03  0.7546771E-02  0.1197885E+00
          2   -1    0    0  503    0  0.00000000000E+00  0.00000000000E+00  0.15422716739E+04  0.15422716739E+04  0.00000000000E+00 0. -1.
          2   -1    0    0  502    0 -0.00000000000E+00 -0.00000000000E+00 -0.34653759115E+03  0.34653759115E+03  0.00000000000E+00 0. -1.
         25    2    1    2    0    0  0.25389183027E+02  0.28642117287E+03  0.30982070375E+02  0.31506438236E+03  0.12499590980E+03 0.  0.
          4    1    3    3  501    0 -0.22547084488E+02  0.25078751110E+03  0.10906489684E+02  0.25203831288E+03  0.12700000000E+01 0. -1.
         -4    1    3    3    0  501  0.47936267514E+02  0.35633661770E+02  0.20075580691E+02  0.63026069483E+02  0.12700000000E+01 0. -1.
          2    1    1    2  502    0 -0.23554909313E+02 -0.15584409855E+03 -0.17046040735E+03  0.23216151120E+03  0.00000000000E+00 0. -1.
          2    1    1    2  503    0 -0.18342737136E+01 -0.13057707431E+03  0.13352124197E+04  0.13415833715E+04  0.00000000000E+00 0. -1.
<mgrwt>
<rscale>  0 0.15212578E+03</rscale>
<asrwt>0</asrwt>
<pdfrwt beam="1">  1        2 0.23727256E+00 0.13058996E+03</pdfrwt>
<pdfrwt beam="2">  1        2 0.53313477E-01 0.17721312E+03</pdfrwt>
<totfact> 0.19981536E+02</totfact>
</mgrwt>
</event>
<event>
 7    1  0.4251803E-004  0.1578549E+03  0.7546771E-02  0.1240324E+00
          2   -1    0    0  503    0  0.00000000000E+00  0.00000000000E+00  0.18090029413E+04  0.18090029413E+04  0.00000000000E+00 0. -1.
          2   -1    0    0  502    0 -0.00000000000E+00 -0.00000000000E+00 -0.64093442382E+03  0.64093442382E+03  0.00000000000E+00 0. -1.
         25    2    1    2    0    0  0.22932623783E+03  0.19569330436E+02  0.48902225128E+02  0.26643877635E+03  0.12499884749E+03 0.  0.
          4    1    3    3  501    0  0.22051098981E+03 -0.14437202532E+02  0.61017931818E+02  0.22925603667E+03  0.12700000000E+01 0. -1.
         -4    1    3    3    0  501  0.88152480135E+01  0.34006532968E+02 -0.12115706690E+02  0.37182739687E+02  0.12700000000E+01 0. -1.
          2    1    1    2  502    0 -0.77260961328E+02 -0.53227625451E+02 -0.52432056956E+03  0.53264856699E+03  0.00000000000E+00 0. -1.
          2    1    1    2  503    0 -0.15206527650E+03  0.33658295015E+02  0.16434868620E+04  0.16508500218E+04  0.00000000000E+00 0. -1.
<mgrwt>
<rscale>  0 0.12169695E+03</rscale>
<asrwt>0</asrwt>
<pdfrwt beam="1">  1        2 0.27830814E+00 0.15785485E+03</pdfrwt>
<pdfrwt beam="2">  1        2 0.98605297E-01 0.93821300E+02</pdfrwt>
<totfact> 0.73778015E+01</totfact>
</mgrwt>
</event>
<event>
 7    1  0.4251803E-004  0.4617436E+02  0.7546771E-02  0.1529048E+00
          1   -1    0    0  502    0  0.00000000000E+00  0.00000000000E+00  0.39609789930E+03  0.39609789930E+03  0.00000000000E+00 0. -1.
          1   -1    0    0  503    0 -0.00000000000E+00 -0.00000000000E+00 -0.39981896463E+02  0.39981896463E+02  0.00000000000E+00 0. -1.
         25    2    1    2    0    0  0.25027013713E+02  0.14229307624E+02  0.28237574423E+03  0.31014960555E+03  0.12501156860E+03 0.  0.
          4    1    3    3  501    0  0.10472813177E+02  0.45962279342E+02  0.31173266130E+02  0.56529606043E+02  0.12700000000E+01 0. -1.
         -4    1    3    3    0  501  0.14554200537E+02 -0.31732971718E+02  0.25120247810E+03  0.25361999951E+03  0.12700000000E+01 0. -1.
          1    1    1    2  502    0 -0.52563823462E+02 -0.26474650759E+02  0.75515018373E+02  0.95741217193E+02  0.00000000000E+00 0. -1.
          1    1    1    2  503    0  0.27536809748E+02  0.12245343135E+02 -0.17747597668E+01  0.30188973017E+02  0.00000000000E+00 0. -1.
<mgrwt>
<rscale>  0 0.37303428E+02</rscale>
<asrwt>0</asrwt>
<pdfrwt beam="1">  1        1 0.60938136E-01 0.46174364E+02</pdfrwt>
<pdfrwt beam="2">  1        1 0.61510613E-02 0.30136760E+02</pdfrwt>
<totfact> 0.76650640E+03</totfact>
</mgrwt>
</event>
<event>
 7    1  0.4251803E-004  0.5533481E+02  0.7546771E-02  0.1446713E+00
         -1   -1    0    0    0  501 -0.00000000000E+00  0.00000000000E+00  0.61572437164E+03  0.61572437164E+03  0.00000000000E+00 0.  1.
          2   -1    0    0  503    0  0.00000000000E+00 -0.00000000000E+00 -0.28598716972E+02  0.28598716972E+02  0.00000000000E+00 0. -1.
         25    2    1    2    0    0  0.20642551307E+02 -0.58395444380E+02  0.19922838896E+03  0.24319481918E+03  0.12496249943E+03 0.  0.
          4    1    3    3  502    0  0.31649474209E+02 -0.10216460599E+02 -0.44723586755E+01  0.33580949614E+02  0.12700000000E+01 0.  1.
         -4    1    3    3    0  502 -0.11006922902E+02 -0.48178983781E+02  0.20370074763E+03  0.20961386957E+03  0.12700000000E+01 0.  1.
          2    1    1    2  503    0 -0.51099446836E+02  0.25646251263E+02  0.23217801602E+03  0.23911402049E+03  0.00000000000E+00 0. -1.
         -1    1    1    2    0  501  0.30456895529E+02  0.32749193116E+02  0.15571924970E+03  0.16201424894E+03  0.00000000000E+00 0.  1.
<mgrwt>
<rscale>  0 0.49746653E+02</rscale>
<asrwt>0</asrwt>
<pdfrwt beam="2">  1        2 0.43998030E-02 0.55334805E+02</pdfrwt>
<pdfrwt beam="1">  1       -1 0.94726817E-01 0.44722837E+02</pdfrwt>
<totfact> 0.22376045E+03</totfact>
</mgrwt>
</event>
<event>
 7    1  0.4251803E-004  0.8038836E+02  0.7546771E-02  0.1482049E+00
          2   -1    0    0  503    0  0.00000000000E+00  0.00000000000E+00  0.44809395133E+03  0.44809395133E+03  0.00000000000E+00 0. -1.
         -1   -1    0    0    0  501 -0.00000000000E+00 -0.00000000000E+00 -0.36717537841E+02  0.36717537841E+02  0.00000000000E+00 0.  1.
         25    2    1    2    0    0  0.61658506806E+02 -0.43820128518E+02  0.21083765866E+03  0.25651277541E+03  0.12499724203E+03 0.  0.
          4    1    3    3  502    0 -0.18623434683E+02 -0.31725288046E+02  0.75047377086E+01  0.37566743392E+02  0.12700000000E+01 0. -1.
         -4    1    3    3    0  502  0.80281941489E+02 -0.12094840472E+02  0.20333292095E+03  0.21894603202E+03  0.12700000000E+01 0. -1.
          2    1    1    2  503    0 -0.79171716174E+02  0.27627100761E+02  0.13946671069E+03  0.16273407980E+03  0.00000000000E+00 0. -1.
         -1    1    1    2    0  501  0.17513209368E+02  0.16193027757E+02  0.61072044149E+02  0.65564633964E+02  0.00000000000E+00 0.  1.
<mgrwt>
<rscale>  0 0.43788558E+02</rscale>
<asrwt>0</asrwt>
<pdfrwt beam="1">  1        2 0.68937527E-01 0.80388356E+02</pdfrwt>
<pdfrwt beam="2">  1       -1 0.56488523E-02 0.23852183E+02</pdfrwt>
<totfact> 0.93241467E+03</totfact>
</mgrwt>
</event>
<event>
 7    1  0.4251803E-004  0.9111021E+02  0.7546771E-02  0.1380144E+00
          2   -1    0    0  503    0  0.00000000000E+00  0.00000000000E+00  0.11703047656E+03  0.11703047656E+03  0.00000000000E+00 0. -1.
          2   -1    0    0  502    0 -0.00000000000E+00 -0.00000000000E+00 -0.20429644708E+04  0.20429644708E+04  0.00000000000E+00 0. -1.
         25    2    1    2    0    0 -0.11163543999E+03  0.46954669477E+01 -0.46673611642E+02  0.17403388538E+03  0.12499939345E+03 0.  0.
          4    1    3    3  501    0 -0.17330308083E+02 -0.52523418996E+02 -0.28502235289E+02  0.62233748383E+02  0.12700000000E+01 0.  1.
         -4    1    3    3    0  501 -0.94305131910E+02  0.57218885944E+02 -0.18171376353E+02  0.11180013699E+03  0.12700000000E+01 0.  1.
          2    1    1    2  502    0  0.84995276008E+02  0.32260163345E+02 -0.19216107184E+04  0.19237600339E+04  0.00000000000E+00 0. -1.
          2    1    1    2  503    0  0.26640163985E+02 -0.36955630293E+02  0.42350335801E+02  0.62201028046E+02  0.00000000000E+00 0. -1.
<mgrwt>
<rscale>  0 0.64425808E+02</rscale>
<asrwt>0</asrwt>
<pdfrwt beam="1">  1        2 0.18004690E-01 0.45556744E+02</pdfrwt>
<pdfrwt beam="2">  1        2 0.31430220E+00 0.91110215E+02</pdfrwt>
<totfact> 0.35818608E+02</totfact>
</mgrwt>
</event>
<event>
 7    1  0.4251803E-004  0.1632780E+03  0.7546771E-02  0.1187834E+00
          1   -1    0    0  502    0  0.00000000000E+00  0.00000000000E+00  0.32426521620E+03  0.32426521620E+03  0.00000000000E+00 0. -1.
          1   -1    0    0  503    0 -0.00000000000E+00 -0.00000000000E+00 -0.43277189866E+03  0.43277189866E+03  0.00000000000E+00 0. -1.
         25    2    1    2    0    0  0.50871206216E+02  0.13852041629E+03  0.34867798930E+02  0.19651361661E+03  0.12500421098E+03 0.  0.
          4    1    3    3  501    0 -0.36599382882E+02  0.10824992481E+02  0.12117467850E+02  0.40064213666E+02  0.12700000000E+01 0.  1.
         -4    1    3    3    0  501  0.87470589098E+02  0.12769542380E+03  0.22750331080E+02  0.15644940294E+03  0.12700000000E+01 0.  1.
          1    1    1    2  502    0  0.10424776348E+03 -0.17006382207E+03  0.13460031455E+03  0.24063778681E+03  0.00000000000E+00 0. -1.
          1    1    1    2  503    0 -0.15511896970E+03  0.31543405780E+02 -0.27797479594E+03  0.31988571144E+03  0.00000000000E+00 0. -1.
<mgrwt>
<rscale>  0 0.16076653E+03</rscale>
<asrwt>0</asrwt>
<pdfrwt beam="1">  1        1 0.49886957E-01 0.16327803E+03</pdfrwt>
<pdfrwt beam="2">  1        1 0.66580292E-01 0.15829365E+03</pdfrwt>
<totfact> 0.52571865E+02</totfact>
</mgrwt>
</event>
<event>
 7    1  0.4251803E-004  0.1370594E+03  0.7546771E-02  0.1422376E+00
          2   -1    0    0  503    0  0.00000000000E+00  0.00000000000E+00  0.29969513479E+04  0.29969513479E+04  0.00000000000E+00 0. -1.
         -2   -1    0    0    0  501 -0.00000000000E+00 -0.00000000000E+00 -0.23268975543E+02  0.23268975543E+02  0.00000000000E+00 0.  1.
         25    2    1    2    0    0 -0.55427128575E+02 -0.10498321698E+03  0.25705784462E+04  0.25763522799E+04  0.12499551906E+03 0.  0.
          4    1    3    3  502    0  0.35421104686E+02 -0.27336550318E+01  0.50460932905E+03  0.50585997607E+03  0.12700000000E+01 0. -1.
         -4    1    3    3    0  502 -0.90848233261E+02 -0.10224956194E+03  0.20659691171E+04  0.20704923038E+04  0.12700000000E+01 0. -1.
          2    1    1    2  503    0 -0.14802651269E+01 -0.21637682773E+02  0.17859277351E+03  0.17990486167E+03  0.00000000000E+00 0. -1.
         -2    1    1    2    0  501  0.56907393701E+02  0.12662089975E+03  0.22451115266E+03  0.26396318186E+03  0.00000000000E+00 0.  1.
<mgrwt>
<rscale>  0 0.54521360E+02</rscale>
<asrwt>0</asrwt>
<pdfrwt beam="1">  1        2 0.46106913E+00 0.21688257E+02</pdfrwt>
<pdfrwt beam="2">  1       -2 0.35798448E-02 0.13705936E+03</pdfrwt>
<totfact> 0.97790147E+02</totfact>
</mgrwt>
</event>
<event>
 7    1  0.4251803E-004  0.6049214E+02  0.7546771E-02  0.1451534E+00
          2   -1    0    0  502    0  0.00000000000E+00  0.00000000000E+00  0.10511370870E+04  0.10511370870E+04  0.00000000000E+00 0.  1.
          1   -1    0    0  503    0 -0.00000000000E+00 -0.00000000000E+00 -0.41537749318E+03  0.41537749318E+03  0.00000000000E+00 0. -1.
         25    2    1    2    0    0 -0.18118251155E+02  0.88000209386E+02 -0.64162978546E+02  0.16677501494E+03  0.12499883965E+03 0.  0.
          4    1    3    3  501    0 -0.61796117084E+02  0.35745177290E+02 -0.67931746912E+02  0.98553604321E+02  0.12700000000E+01 0.  1.
         -4    1    3    3    0  501  0.43677865929E+02  0.52255032096E+02  0.37687683666E+01  0.68221410616E+02  0.12700000000E+01 0.  1.
          2    1    1    2  502    0 -0.12494978249E+02 -0.37451228592E+02  0.99652518865E+03  0.99730695907E+03  0.00000000000E+00 0.  1.
          1    1    1    2  503    0  0.30613229404E+02 -0.50548980794E+02 -0.29660261630E+03  0.30243260616E+03  0.00000000000E+00 0. -1.
<mgrwt>
<rscale>  0 0.48869899E+02</rscale>
<asrwt>0</asrwt>
<pdfrwt beam="1">  1        2 0.16171340E+00 0.39480616E+02</pdfrwt>
<pdfrwt beam="2">  1        1 0.63904230E-01 0.60492142E+02</pdfrwt>
<totfact> 0.21909652E+02</totfact>
</mgrwt>
</event>
<event>
 7    1  0.4251803E-004  0.4745929E+02  0.7546771E-02  0.1541404E+00
          2   -1    0    0  503    0  0.00000000000E+00  0.00000000000E+00  0.32820917636E+03  0.32820917636E+03  0.00000000000E+00 0. -1.
         -2   -1    0    0    0  501 -0.00000000000E+00 -0.00000000000E+00 -0.49271319560E+02  0.49271319560E+02  0.00000000000E+00 0.  1.
         25    2    1    2    0    0 -0.39716400900E+02 -0.61277412472E+01  0.23957015045E+03  0.27319194076E+03  0.12500015120E+03 0.  0.
          4    1    3    3  502    0 -0.31173571296E+01  0.97582031666E+01  0.23240695914E+03  0.23263608490E+03  0.12700000000E+01 0.  1.
         -4    1    3    3    0  502 -0.36599043770E+02 -0.15885944414E+02  0.71631913100E+01  0.40555855860E+02  0.12700000000E+01 0.  1.
          2    1    1    2  503    0  0.43951916814E+02  0.32835075312E+02  0.50949417511E+02  0.74871598801E+02  0.00000000000E+00 0. -1.
         -2    1    1    2    0  501 -0.42355159142E+01 -0.26707334064E+02 -0.11581711157E+02  0.29416956355E+02  0.00000000000E+00 0.  1.
<mgrwt>
<rscale>  0 0.35823897E+02</rscale>
<asrwt>0</asrwt>
<pdfrwt beam="1">  1        2 0.50493718E-01 0.47459290E+02</pdfrwt>
<pdfrwt beam="2">  1       -2 0.75802032E-02 0.27041104E+02</pdfrwt>
<totfact> 0.83100771E+03</totfact>
</mgrwt>
</event>
<event>
 7    1  0.4251803E-004  0.9815076E+02  0.7546771E-02  0.1298991E+00
          1   -1    0    0  503    0 -0.00000000000E+00  0.00000000000E+00  0.21939258322E+03  0.21939258322E+03  0.00000000000E+00 0. -1.
          2   -1    0    0  502    0  0.00000000000E+00 -0.00000000000E+00 -0.62905119152E+03  0.62905119152E+03  0.00000000000E+00 0. -1.
         25    2    1    2    0    0  0.22401477068E+02 -0.88370603734E+02  0.84777828784E+02  0.17642004985E+03  0.12500225581E+03 0.  0.
          4    1    3    3  501    0 -0.17116018073E+02 -0.10334924346E+03  0.83752990746E+02  0.13412755332E+03  0.12700000000E+01 0.  1.
         -4    1    3    3    0  501  0.39517495141E+02  0.14978639730E+02  0.10248380375E+01  0.42292496538E+02  0.12700000000E+01 0.  1.
          2    1    1    2  502    0 -0.96587922317E+02  0.17445478191E+02 -0.54767617221E+03  0.55640161849E+03  0.00000000000E+00 0. -1.
          1    1    1    2  503    0  0.74186445249E+02  0.70925125544E+02  0.53239735125E+02  0.11562210640E+03  0.00000000000E+00 0. -1.
<mgrwt>
<rscale>  0 0.91613523E+02</rscale>
<asrwt>0</asrwt>
<pdfrwt beam="2">  1        2 0.96777106E-01 0.98150759E+02</pdfrwt>
<pdfrwt beam="1">  1        1 0.33752705E-01 0.85511694E+02</pdfrwt>
<totfact> 0.85705712E+02</totfact>
</mgrwt>
</event>
<event>
 7    1  0.4251803E-004  0.7292360E+02  0.7546771E-02  0.1441461E+00
         -1   -1    0    0    0  501 -0.00000000000E+00  0.00000000000E+00  0.21769740546E+03  0.21769740546E+03  0.00000000000E+00 0.  1.
          1   -1    0    0  503    0  0.00000000000E+00 -0.00000000000E+00 -0.59962201004E+03  0.59962201004E+03  0.00000000000E+00 0. -1.
         25    2    1    2    0    0  0.47097596329E+01  0.92424805241E+02  0.54029335402E+02  0.16464676755E+03  0.12499945009E+03 0.  0.
          4    1    3    3  502    0  0.30577195728E+02  0.59038143471E+02  0.88091549662E+02  0.11037300986E+03  0.12700000000E+01 0.  1.
         -4    1    3    3    0  502 -0.25867436095E+02  0.33386661769E+02 -0.34062214260E+02  0.54273757696E+02  0.12700000000E+01 0.  1.
          1    1    1    2  503    0  0.21887028394E+02 -0.69236060045E+02 -0.53893977303E+03  0.54380948225E+03  0.00000000000E+00 0. -1.
         -1    1    1    2    0  501 -0.26596788027E+02 -0.23188745196E+02  0.10298583305E+03  0.10886316570E+03  0.00000000000E+00 0.  1.
<mgrwt>
<rscale>  0 0.50726595E+02</rscale>
<asrwt>0</asrwt>
<pdfrwt beam="2">  1        1 0.92249540E-01 0.72923597E+02</pdfrwt>
<pdfrwt beam="1">  1       -1 0.33491908E-01 0.35286074E+02</pdfrwt>
<totfact> 0.30420924E+02</totfact>
</mgrwt>
</event>
<event>
 7    1  0.4251803E-004  0.5155083E+02  0.7546771E-02  0.1551140E+00
          1   -1    0    0  503    0 -0.00000000000E+00  0.00000000000E+00  0.15730642056E+03  0.15730642056E+03  0.00000000000E+00 0. -1.
          2   -1    0    0  502    0  0.00000000000E+00 -0.00000000000E+00 -0.63266399763E+03  0.63266399763E+03  0.00000000000E+00 0. -1.
         25    2    1    2    0    0  0.30219045592E+02  0.71272776851E+01 -0.11128674164E+03  0.17021710501E+03  0.12500054068E+03 0.  0.
          4    1    3    3  501    0  0.88276342629E+01 -0.36376766426E+02 -0.11561356341E+03  0.12152903030E+03  0.12700000000E+01 0.  1.
         -4    1    3    3    0  501  0.21391411329E+02  0.43504044111E+02  0.43268217614E+01  0.48688074713E+02  0.12700000000E+01 0.  1.
          2    1    1    2  502    0 -0.47143074782E+02 -0.23255705209E+02 -0.48942391478E+03  0.49223882992E+03  0.00000000000E+00 0. -1.
          1    1    1    2  503    0  0.16924029189E+02  0.16128427524E+02  0.12535307935E+03  0.12751448326E+03  0.00000000000E+00 0. -1.
<mgrwt>
<rscale>  0 0.34715632E+02</rscale>
<asrwt>0</asrwt>
<pdfrwt beam="2">  1        2 0.97332925E-01 0.51550825E+02</pdfrwt>
<pdfrwt beam="1">  1        1 0.24200987E-01 0.23378386E+02</pdfrwt>
<totfact> 0.12412375E+03</totfact>
</mgrwt>
</event>
<event>
 7    1  0.4251803E-004  0.1626634E+03  0.7546771E-02  0.1309123E+00
          2   -1    0    0  503    0  0.00000000000E+00  0.00000000000E+00  0.23507492055E+04  0.23507492055E+04  0.00000000000E+00 0. -1.
          2   -1    0    0  502    0 -0.00000000000E+00 -0.00000000000E+00 -0.10552971779E+03  0.10552971779E+03  0.00000000000E+00 0. -1.
         25    2    1    2    0    0  0.50412806429E+02 -0.13867946121E+03  0.32201937865E+03  0.37562531613E+03  0.12499781549E+03 0.  0.
          4    1    3    3  501    0  0.47160209544E+01 -0.10896666684E+03  0.10335428245E+03  0.15026541830E+03  0.12700000000E+01 0. -1.
         -4    1    3    3    0  501  0.45696785474E+02 -0.29712794365E+02  0.21866509620E+03  0.22535989783E+03  0.12700000000E+01 0. -1.
          2    1    1    2  502    0 -0.39061769083E+02 -0.26182101490E+02 -0.67962632286E+02  0.82645288006E+02  0.00000000000E+00 0. -1.
          2    1    1    2  503    0 -0.11351037345E+02  0.16486156270E+03  0.19911627414E+04  0.19980083192E+04  0.00000000000E+00 0. -1.
<mgrwt>
<rscale>  0 0.87459698E+02</rscale>
<asrwt>0</asrwt>
<pdfrwt beam="1">  1        2 0.36165369E+00 0.16266336E+03</pdfrwt>
<pdfrwt beam="2">  1        2 0.16235343E-01 0.47024719E+02</pdfrwt>
<totfact> 0.26113563E+02</totfact>
</mgrwt>
</event>
<event>
 7    1  0.8463769E-004  0.1204908E+03  0.7546771E-02  0.1278628E+00
          1   -1    0    0  503    0  0.00000000000E+00  0.00000000000E+00  0.61312553605E+03  0.61312553605E+03  0.00000000000E+00 0. -1.
         -1   -1    0    0    0  501 -0.00000000000E+00 -0.00000000000E+00 -0.71442086698E+02  0.71442086698E+02  0.00000000000E+00 0.  1.
         25    2    1    2    0    0 -0.55301546235E+02  0.15395458176E+03  0.39851446269E+03  0.44855504615E+03  0.12501031235E+03 0.  0.
          4    1    3    3  502    0 -0.75184469529E+02  0.95658053987E+02  0.15329114081E+03  0.19571140616E+03  0.12700000000E+01 0.  1.
         -4    1    3    3    0  502  0.19882923294E+02  0.58296527773E+02  0.24522332188E+03  0.25284363999E+03  0.12700000000E+01 0.  1.
          1    1    1    2  503    0 -0.43751488965E+01 -0.94380809101E+02  0.11098856682E+03  0.14575781632E+03  0.00000000000E+00 0. -1.
         -1    1    1    2    0  501  0.59676695132E+02 -0.59573772659E+02  0.32180419839E+02  0.90254760272E+02  0.00000000000E+00 0.  1.
<mgrwt>
<rscale>  0 0.10079746E+03</rscale>
<asrwt>0</asrwt>
<pdfrwt beam="1">  1        1 0.94327002E-01 0.12049081E+03</pdfrwt>
<pdfrwt beam="2">  1       -1 0.10991091E-01 0.84322846E+02</pdfrwt>
<totfact> 0.17281613E+03</totfact>
</mgrwt>
</event>
<event>
 7    1  0.4251803E-004  0.3170961E+02  0.7546771E-02  0.1595136E+00
          1   -1    0    0  503    0  0.00000000000E+00  0.00000000000E+00  0.81520198063E+03  0.81520198063E+03  0.00000000000E+00 0. -1.
         -2   -1    0    0    0  501 -0.00000000000E+00 -0.00000000000E+00 -0.14979606200E+02  0.14979606200E+02  0.00000000000E+00 0.  1.
         25    2    1    2    0    0 -0.47963440689E+01  0.28279154204E+02  0.37585964125E+03  0.39713742796E+03  0.12499980513E+03 0.  0.
          4    1    3    3  502    0 -0.39748671558E+02  0.64888702074E+02  0.19503225853E+03  0.20935542819E+03  0.12700000000E+01 0.  1.
         -4    1    3    3    0  502  0.34952327490E+02 -0.36609547870E+02  0.18082738272E+03  0.18778199976E+03  0.12700000000E+01 0.  1.
          1    1    1    2  503    0  0.29729203263E+02 -0.13678324575E+02  0.37031398981E+03  0.37175714268E+03  0.00000000000E+00 0. -1.
         -2    1    1    2    0  501 -0.24932859194E+02 -0.14600829628E+02  0.54048743366E+02  0.61287016185E+02  0.00000000000E+00 0.  1.
<mgrwt>
<rscale>  0 0.30268798E+02</rscale>
<asrwt>0</asrwt>
<pdfrwt beam="1">  1        1 0.12541565E+00 0.31709610E+02</pdfrwt>
<pdfrwt beam="2">  1       -2 0.23045554E-02 0.28893454E+02</pdfrwt>
<totfact> 0.10209978E+04</totfact>
</mgrwt>
</event>
<event>
 7    1  0.4251803E-004  0.1028740E+03  0.7546771E-02  0.1436342E+00
          2   -1    0    0  503    0  0.00000000000E+00  0.00000000000E+00  0.95979358154E+02  0.95979358154E+02  0.00000000000E+00 0. -1.
         -1   -1    0    0    0  501 -0.00000000000E+00 -0.00000000000E+00 -0.24015949164E+03  0.24015949164E+03  0.00000000000E+00 0.  1.
         25    2    1    2    0    0 -0.78485821442E+02 -0.72337434799E+02 -0.11565194278E+03  0.20097426640E+03  0.12499022060E+03 0.  0.
          4    1    3    3  502    0 -0.14993038082E+02  0.13779911365E+02  0.19750603395E+02  0.28396767116E+02  0.12700000000E+01 0. -1.
         -4    1    3    3    0  502 -0.63492783360E+02 -0.86117346164E+02 -0.13540254618E+03  0.17257749929E+03  0.12700000000E+01 0. -1.
          2    1    1    2  503    0  0.56121555442E+02  0.85578401407E+02 -0.91536294060E+01  0.10274765547E+03  0.00000000000E+00 0. -1.
         -1    1    1    2    0  501  0.22364266000E+02 -0.13240966609E+02 -0.19374561299E+02  0.32416927923E+02  0.00000000000E+00 0.  1.
<mgrwt>
<rscale>  0 0.51707849E+02</rscale>
<asrwt>0</asrwt>
<pdfrwt beam="1">  1        2 0.14766055E-01 0.10287398E+03</pdfrwt>
<pdfrwt beam="2">  1       -1 0.36947613E-01 0.25990067E+02</pdfrwt>
<totfact> 0.29983058E+03</totfact>
</mgrwt>
</event>
<event>
 7    1  0.4251803E-004  0.1028421E+03  0.7546771E-02  0.1345032E+00
          1   -1    0    0  503    0 -0.00000000000E+00  0.00000000000E+00  0.83324368855E+03  0.83324368855E+03  0.00000000000E+00 0. -1.
          2   -1    0    0  502    0  0.00000000000E+00 -0.00000000000E+00 -0.90915604566E+03  0.90915604566E+03  0.00000000000E+00 0. -1.
         25    2    1    2    0    0 -0.25004693830E+02 -0.53451300692E+02  0.12316850628E+03  0.18514915780E+03  0.12500981335E+03 0.  0.
          4    1    3    3  501    0 -0.34817670892E+02 -0.70949299495E+02  0.22061728659E+02  0.82063427157E+02  0.12700000000E+01 0.  1.
         -4    1    3    3    0  501  0.98129770618E+01  0.17497998803E+02  0.10110677762E+03  0.10308573064E+03  0.12700000000E+01 0.  1.
          2    1    1    2  502    0  0.46509355916E+01 -0.53951871747E+02 -0.87292205239E+03  0.87460010589E+03  0.00000000000E+00 0. -1.
          1    1    1    2  503    0  0.20353758239E+02  0.10740317244E+03  0.67384118899E+03  0.68265047053E+03  0.00000000000E+00 0. -1.
<mgrwt>
<rscale>  0 0.74626419E+02</rscale>
<asrwt>0</asrwt>
<pdfrwt beam="2">  1        2 0.13987016E+00 0.54151968E+02</pdfrwt>
<pdfrwt beam="1">  1        1 0.12819134E+00 0.10284210E+03</pdfrwt>
<totfact> 0.10047062E+02</totfact>
</mgrwt>
</event>
<event>
 7    1  0.4251803E-004  0.1349795E+03  0.7546771E-02  0.1229562E+00
         -3   -1    0    0    0  501 -0.00000000000E+00  0.00000000000E+00  0.29159118152E+03  0.29159118152E+03  0.00000000000E+00 0.  1.
          2   -1    0    0  503    0  0.00000000000E+00 -0.00000000000E+00 -0.19359486591E+04  0.19359486591E+04  0.00000000000E+00 0. -1.
         25    2    1    2    0    0 -0.11708478616E+03 -0.20929984969E+02 -0.74927694827E+03  0.76888794071E+03  0.12500323489E+03 0.  0.
          4    1    3    3  502    0 -0.12648595551E+03 -0.46749779764E+02 -0.69583519999E+03  0.70878239064E+03  0.12700000000E+01 0.  1.
         -4    1    3    3    0  502  0.94011693497E+01  0.25819794795E+02 -0.53441748285E+02  0.60105550061E+02  0.12700000000E+01 0.  1.
          2    1    1    2  503    0  0.23437370578E+02  0.12024176955E+03 -0.11569094541E+04  0.11633773585E+04  0.00000000000E+00 0. -1.
         -3    1    1    2    0  501  0.93647415582E+02 -0.99311784577E+02  0.26182892470E+03  0.29527454142E+03  0.00000000000E+00 0.  1.
<mgrwt>
<rscale>  0 0.12859089E+03</rscale>
<asrwt>0</asrwt>
<pdfrwt beam="2">  1        2 0.29783825E+00 0.12250467E+03</pdfrwt>
<pdfrwt beam="1">  1       -3 0.44860183E-01 0.13497948E+03</pdfrwt>
<totfact> 0.26239333E+01</totfact>
</mgrwt>
</event>
<event>
 7    1  0.4251803E-004  0.1111000E+03  0.7546771E-02  0.1309719E+00
          2   -1    0    0  502    0  0.00000000000E+00  0.00000000000E+00  0.16221638424E+04  0.16221638424E+04  0.00000000000E+00 0. -1.
          3   -1    0    0  503    0 -0.00000000000E+00 -0.00000000000E+00 -0.31422827586E+03  0.31422827586E+03  0.00000000000E+00 0. -1.
         25    2    1    2    0    0  0.86951665685E+02 -0.11024315001E+03  0.43594458775E+03  0.47475589656E+03  0.12502533120E+03 0.  0.
          4    1    3    3  501    0  0.64617917297E+01 -0.21532849814E+00  0.21523104967E+03  0.21533188050E+03  0.12700000000E+01 0.  1.
         -4    1    3    3    0  501  0.80489873956E+02 -0.11002782151E+03  0.22071353808E+03  0.25942401606E+03  0.12700000000E+01 0.  1.
          2    1    1    2  502    0 -0.68470584851E+02  0.98328880764E+00  0.11553514753E+04  0.11573790301E+04  0.00000000000E+00 0. -1.
          3    1    1    2  503    0 -0.18481080835E+02  0.10925986120E+03 -0.28336049655E+03  0.30425719157E+03  0.00000000000E+00 0. -1.
<mgrwt>
<rscale>  0 0.87223094E+02</rscale>
<asrwt>0</asrwt>
<pdfrwt beam="1">  1        2 0.24956366E+00 0.68477645E+02</pdfrwt>
<pdfrwt beam="2">  1        3 0.48342812E-01 0.11110003E+03</pdfrwt>
<totfact> 0.34144129E+01</totfact>
</mgrwt>
</event>
<event>
 7    1  0.4251803E-004  0.3096038E+02  0.7546771E-02  0.1589497E+00
          1   -1    0    0  503    0  0.00000000000E+00  0.00000000000E+00  0.23271472731E+03  0.23271472731E+03  0.00000000000E+00 0. -1.
          1   -1    0    0  502    0 -0.00000000000E+00 -0.00000000000E+00 -0.68068092114E+03  0.68068092114E+03  0.00000000000E+00 0. -1.
         25    2    1    2    0    0  0.29301971982E+02 -0.25288817806E+02 -0.44032977819E+03  0.45936272459E+03  0.12500267724E+03 0.  0.
          4    1    3    3  501    0 -0.22369270769E+02  0.41046429572E+02 -0.15712820946E+03  0.16393925938E+03  0.12700000000E+01 0.  1.
         -4    1    3    3    0  501  0.51671242751E+02 -0.66335247378E+02 -0.28320156873E+03  0.29542346522E+03  0.12700000000E+01 0.  1.
          1    1    1    2  502    0  0.68512071274E+00  0.31502883255E+02 -0.22869882641E+03  0.23085938198E+03  0.00000000000E+00 0. -1.
          1    1    1    2  503    0 -0.29987092695E+02 -0.62140654484E+01  0.22106241077E+03  0.22317354188E+03  0.00000000000E+00 0. -1.
<mgrwt>
<rscale>  0 0.30791823E+02</rscale>
<asrwt>0</asrwt>
<pdfrwt beam="1">  1        1 0.35802266E-01 0.30624179E+02</pdfrwt>
<pdfrwt beam="2">  1        1 0.10472014E+00 0.30960385E+02</pdfrwt>
<totfact> 0.45168810E+02</totfact>
</mgrwt>
</event>
<event>
 7    1  0.4251803E-004  0.1549963E+03  0.7546771E-02  0.1197925E+00
          2   -1    0    0  502    0  0.00000000000E+00  0.00000000000E+00  0.22560073040E+04  0.22560073040E+04  0.00000000000E+00 0. -1.
          1   -1    0    0  503    0 -0.00000000000E+00 -0.00000000000E+00 -0.27353072704E+03  0.27353072704E+03  0.00000000000E+00 0. -1.
         25    2    1    2    0    0 -0.32954411721E+02 -0.86441668557E+02  0.51767040592E+03  0.54052520316E+03  0.12500676289E+03 0.  0.
          4    1    3    3  501    0  0.31797740836E+02 -0.27872257999E+02  0.53456949968E+02  0.68170503065E+02  0.12700000000E+01 0. -1.
         -4    1    3    3    0  501 -0.64752152557E+02 -0.58569410558E+02  0.46421345595E+03  0.47235470009E+03  0.12700000000E+01 0. -1.
          2    1    1    2  502    0 -0.12728986152E+03  0.77915784132E+02  0.16987656356E+04  0.17053088468E+04  0.00000000000E+00 0. -1.
          1    1    1    2  503    0  0.16024427324E+03  0.85258844252E+01 -0.23395946458E+03  0.28370398107E+03  0.00000000000E+00 0. -1.
<mgrwt>
<rscale>  0 0.15209262E+03</rscale>
<asrwt>0</asrwt>
<pdfrwt beam="1">  1        2 0.34707803E+00 0.14924335E+03</pdfrwt>
<pdfrwt beam="2">  1        1 0.42081652E-01 0.15499629E+03</pdfrwt>
<totfact> 0.78370181E+01</totfact>
</mgrwt>
</event>
<event>
 7    1  0.4251803E-004  0.7261538E+02  0.7546771E-02  0.1452499E+00
          1   -1    0    0  503    0 -0.00000000000E+00  0.00000000000E+00  0.80090136530E+03  0.80090136530E+03  0.00000000000E+00 0. -1.
          2   -1    0    0  502    0  0.00000000000E+00 -0.00000000000E+00 -0.84016204309E+03  0.84016204309E+03  0.00000000000E+00 0. -1.
         25    2    1    2    0    0 -0.78651556479E+02  0.68707880203E+02 -0.51070713046E+03  0.53605563744E+03  0.12500813249E+03 0.  0.
          4    1    3    3  501    0 -0.10672530502E+03  0.23424707669E+02 -0.32705289996E+03  0.34482491200E+03  0.12700000000E+01 0.  1.
         -4    1    3    3    0  501  0.28073748545E+02  0.45283172533E+02 -0.18365423050E+03  0.19123072544E+03  0.12700000000E+01 0.  1.
          2    1    1    2  502    0  0.20434756991E+02 -0.25473443875E+02 -0.31426495873E+03  0.31595718052E+03  0.00000000000E+00 0. -1.
          1    1    1    2  503    0  0.58216799489E+02 -0.43234436328E+02  0.78571141141E+03  0.78905059043E+03  0.00000000000E+00 0. -1.
<mgrwt>
<rscale>  0 0.48696980E+02</rscale>
<asrwt>0</asrwt>
<pdfrwt beam="2">  1        2 0.12925570E+00 0.32656939E+02</pdfrwt>
<pdfrwt beam="1">  1        1 0.12321559E+00 0.72615377E+02</pdfrwt>
<totfact> 0.12212110E+02</totfact>
</mgrwt>
</event>
<event>
 7    1  0.4251803E-004  0.1018243E+03  0.7546771E-02  0.1304644E+00
         -1   -1    0    0    0  501 -0.00000000000E+00  0.00000000000E+00  0.75772677524E+03  0.75772677524E+03  0.00000000000E+00 0.  1.
          2   -1    0    0  503    0  0.00000000000E+00 -0.00000000000E+00 -0.17507294150E+04  0.17507294150E+04  0.00000000000E+00 0. -1.
         25    2    1    2    0    0 -0.99839038005E+01 -0.60620775915E+02 -0.21983038517E+02  0.14097391317E+03  0.12496332824E+03 0.  0.
          4    1    3    3  502    0  0.29738283883E+02 -0.85857183324E+02 -0.52911760845E+01  0.91024342355E+02  0.12700000000E+01 0. -1.
         -4    1    3    3    0  502 -0.39722187684E+02  0.25236407409E+02 -0.16691862433E+02  0.49949570817E+02  0.12700000000E+01 0. -1.
          2    1    1    2  503    0  0.87992944403E+02  0.54445377814E+02 -0.16654476790E+04  0.16686590512E+04  0.00000000000E+00 0. -1.
         -1    1    1    2    0  501 -0.78009040602E+02  0.61753981009E+01  0.69442807775E+03  0.69882322595E+03  0.00000000000E+00 0.  1.
<mgrwt>
<rscale>  0 0.89264016E+02</rscale>
<asrwt>0</asrwt>
<pdfrwt beam="2">  1        2 0.26934298E+00 0.10182428E+03</pdfrwt>
<pdfrwt beam="1">  1       -1 0.11657335E+00 0.78253089E+02</pdfrwt>
<totfact> 0.96024555E+00</totfact>
</mgrwt>
</event>
<event>
 7    1  0.4251803E-004  0.1672144E+03  0.7546771E-02  0.1229309E+00
          1   -1    0    0  502    0  0.00000000000E+00  0.00000000000E+00  0.51743529910E+03  0.51743529910E+03  0.00000000000E+00 0. -1.
          3   -1    0    0  503    0 -0.00000000000E+00 -0.00000000000E+00 -0.32809661891E+03  0.32809661891E+03  0.00000000000E+00 0. -1.
         25    2    1    2    0    0 -0.70349303798E+02 -0.15820921831E+03  0.22082049848E+03  0.30718968441E+03  0.12499851342E+03 0.  0.
          4    1    3    3  501    0 -0.54429199483E+02 -0.19337647834E+01  0.76163715099E+02  0.93641879522E+02  0.12700000000E+01 0. -1.
         -4    1    3    3    0  501 -0.15920104315E+02 -0.15627545353E+03  0.14465678338E+03  0.21354780489E+03  0.12700000000E+01 0. -1.
          1    1    1    2  502    0  0.14687948387E+03  0.95175720366E+02  0.21231626270E+03  0.27515485810E+03  0.00000000000E+00 0. -1.
          3    1    1    2  503    0 -0.76530180071E+02  0.63033497944E+02 -0.24379808099E+03  0.26318737549E+03  0.00000000000E+00 0. -1.
<mgrwt>
<rscale>  0 0.12875860E+03</rscale>
<asrwt>0</asrwt>
<pdfrwt beam="1">  1        1 0.79605431E-01 0.16721442E+03</pdfrwt>
<pdfrwt beam="2">  1        3 0.50476403E-01 0.99146812E+02</pdfrwt>
<totfact> 0.90083531E+01</totfact>
</mgrwt>
</event>
<event>
 7    1  0.4251803E-004  0.4062701E+03  0.7546771E-02  0.1041630E+00
          2   -1    0    0  503    0  0.00000000000E+00  0.00000000000E+00  0.83773775023E+02  0.83773775023E+02  0.00000000000E+00 0. -1.
         -1   -1    0    0    0  501 -0.00000000000E+00 -0.00000000000E+00 -0.49256277766E+03  0.49256277766E+03  0.00000000000E+00 0.  1.
         25    2    1    2    0    0  0.13584219750E+03  0.87581062912E+02 -0.31654356928E+03  0.37675829411E+03  0.12499374276E+03 0.  0.
          4    1    3    3  502    0  0.15268670362E+03  0.97901702300E+02 -0.26137229297E+03  0.31814314579E+03  0.12700000000E+01 0. -1.
         -4    1    3    3    0  502 -0.16844506125E+02 -0.10320639388E+02 -0.55171276310E+02  0.58615148329E+02  0.12700000000E+01 0. -1.
          2    1    1    2  503    0 -0.69528948102E+02 -0.61200741920E+02 -0.14008974741E+02  0.93680610636E+02  0.00000000000E+00 0. -1.
         -1    1    1    2    0  501 -0.66313249396E+02 -0.26380320992E+02 -0.78236458614E+02  0.10589764793E+03  0.00000000000E+00 0.  1.
<mgrwt>
<rscale>  0 0.40627007E+03</rscale>
<asrwt>0</asrwt>
<pdfrwt beam="1">  1        2 0.12888273E-01 0.40627007E+03</pdfrwt>
<pdfrwt beam="2">  1       -1 0.75778888E-01 0.40627007E+03</pdfrwt>
<totfact> 0.97577243E+02</totfact>
</mgrwt>
</event>
<event>
 7    1  0.4251803E-004  0.1414855E+03  0.7546771E-02  0.1342743E+00
          1   -1    0    0  503    0  0.00000000000E+00  0.00000000000E+00  0.25191179338E+04  0.25191179338E+04  0.00000000000E+00 0. -1.
         -2   -1    0    0    0  501 -0.00000000000E+00 -0.00000000000E+00 -0.18264081457E+02  0.18264081457E+02  0.00000000000E+00 0.  1.
         25    2    1    2    0    0 -0.15874197170E+03 -0.22505740624E+02  0.74577881407E+03  0.77299231218E+03  0.12500221289E+03 0.  0.
          4    1    3    3  502    0  0.51696539003E+01  0.96221897960E+01  0.26353365462E+01  0.11307951036E+02  0.12700000000E+01 0. -1.
         -4    1    3    3    0  502 -0.16391162560E+03 -0.32127930420E+02  0.74314347753E+03  0.76168436114E+03  0.12700000000E+01 0. -1.
          1    1    1    2  503    0  0.39875423733E+02  0.46464196971E+01  0.90143594649E+03  0.90232943222E+03  0.00000000000E+00 0. -1.
         -2    1    1    2    0  501  0.11886654797E+03  0.17859320927E+02  0.85363909174E+03  0.86206027081E+03  0.00000000000E+00 0.  1.
<mgrwt>
<rscale>  0 0.75365552E+02</rscale>
<asrwt>0</asrwt>
<pdfrwt beam="1">  1        1 0.38755633E+00 0.40145219E+02</pdfrwt>
<pdfrwt beam="2">  1       -2 0.28098607E-02 0.14148550E+03</pdfrwt>
<totfact> 0.78682344E+02</totfact>
</mgrwt>
</event>
<event>
 7    1  0.4251803E-004  0.1633306E+03  0.7546771E-02  0.1190716E+00
          1   -1    0    0  503    0 -0.00000000000E+00  0.00000000000E+00  0.58885245459E+03  0.58885245459E+03  0.00000000000E+00 0. -1.
          2   -1    0    0  502    0  0.00000000000E+00 -0.00000000000E+00 -0.29948386708E+04  0.29948386708E+04  0.00000000000E+00 0.  1.
         25    2    1    2    0    0  0.17572739175E+03 -0.10402627332E+03 -0.48178273407E+03  0.53799784054E+03  0.12500196727E+03 0.  0.
          4    1    3    3  501    0  0.32277834392E+02 -0.77392388776E+02 -0.25404525445E+03  0.26752952107E+03  0.12700000000E+01 0.  1.
         -4    1    3    3    0  501  0.14344955736E+03 -0.26633884548E+02 -0.22773747962E+03  0.27046831947E+03  0.12700000000E+01 0.  1.
          2    1    1    2  502    0 -0.15803809826E+03 -0.48228326313E+02 -0.24716635519E+04  0.24771803983E+04  0.00000000000E+00 0.  1.
          1    1    1    2  503    0 -0.17689293495E+02  0.15225459964E+03  0.54746006975E+03  0.56851288656E+03  0.00000000000E+00 0. -1.
<mgrwt>
<rscale>  0 0.15822485E+03</rscale>
<asrwt>0</asrwt>
<pdfrwt beam="2">  1        2 0.46074440E+00 0.16333055E+03</pdfrwt>
<pdfrwt beam="1">  1        1 0.90592687E-01 0.15327875E+03</pdfrwt>
<totfact> 0.11439310E+01</totfact>
</mgrwt>
</event>
<event>
 7    1  0.4251803E-004  0.1318007E+03  0.7546771E-02  0.1229528E+00
          2   -1    0    0  502    0  0.00000000000E+00  0.00000000000E+00  0.16972275948E+04  0.16972275948E+04  0.00000000000E+00 0. -1.
          2   -1    0    0  503    0 -0.00000000000E+00 -0.00000000000E+00 -0.10987991152E+04  0.10987991152E+04  0.00000000000E+00 0. -1.
         25    2    1    2    0    0  0.53170934480E+02  0.95616396477E+02 -0.17546035224E+02  0.16703987692E+03  0.12499925432E+03 0.  0.
          4    1    3    3  501    0  0.20242653687E+02  0.79706608829E+02  0.45611542575E+02  0.94047510522E+02  0.12700000000E+01 0. -1.
         -4    1    3    3    0  501  0.32928280793E+02  0.15909787648E+02 -0.63157577799E+02  0.72992366398E+02  0.12700000000E+01 0. -1.
          2    1    1    2  502    0 -0.12369432704E+03  0.21230742796E+02  0.16154089038E+04  0.16202768150E+04  0.00000000000E+00 0. -1.
          2    1    1    2  503    0  0.70523392557E+02 -0.11684713927E+03 -0.99943438893E+03  0.10087100181E+04  0.00000000000E+00 0. -1.
<mgrwt>
<rscale>  0 0.12861338E+03</rscale>
<asrwt>0</asrwt>
<pdfrwt beam="1">  1        2 0.26111194E+00 0.12550311E+03</pdfrwt>
<pdfrwt beam="2">  1        2 0.16904602E+00 0.13180073E+03</pdfrwt>
<totfact> 0.42796802E+01</totfact>
</mgrwt>
</event>
<event>
 7    1  0.4251803E-004  0.1678631E+03  0.7546771E-02  0.1199934E+00
          2   -1    0    0  503    0  0.00000000000E+00  0.00000000000E+00  0.88351665127E+03  0.88351665127E+03  0.00000000000E+00 0.  1.
          2   -1    0    0  502    0 -0.00000000000E+00 -0.00000000000E+00 -0.38022003983E+03  0.38022003983E+03  0.00000000000E+00 0. -1.
         25    2    1    2    0    0 -0.23343045727E+03  0.14551318002E+03  0.33377413461E+02  0.30397875082E+03  0.12500066112E+03 0.  0.
          4    1    3    3  501    0 -0.12322767915E+03  0.54006398982E+02  0.75994139195E+02  0.15452661302E+03  0.12700000000E+01 0. -1.
         -4    1    3    3    0  501 -0.11020277812E+03  0.91506781035E+02 -0.42616725735E+02  0.14945213780E+03  0.12700000000E+01 0. -1.
          2    1    1    2  502    0  0.13352363743E+03 -0.18684094634E+02 -0.21625734361E+03  0.25484288456E+03  0.00000000000E+00 0. -1.
          2    1    1    2  503    0  0.99906819840E+02 -0.12682908538E+03  0.68617654159E+03  0.70491505571E+03  0.00000000000E+00 0.  1.
<mgrwt>
<rscale>  0 0.15043959E+03</rscale>
<asrwt>0</asrwt>
<pdfrwt beam="1">  1        2 0.13592564E+00 0.16786314E+03</pdfrwt>
<pdfrwt beam="2">  1        2 0.58495391E-01 0.13482454E+03</pdfrwt>
<totfact> 0.41826397E+02</totfact>
</mgrwt>
</event>
<event>
 7    1  0.4251803E-004  0.6837134E+02  0.7546771E-02  0.1380310E+00
         -1   -1    0    0    0  501 -0.00000000000E+00  0.00000000000E+00  0.11752362983E+03  0.11752362983E+03  0.00000000000E+00 0.  1.
          2   -1    0    0  503    0  0.00000000000E+00 -0.00000000000E+00 -0.32613111989E+03  0.32613111989E+03  0.00000000000E+00 0. -1.
         25    2    1    2    0    0  0.10741509929E+03  0.53446759333E+02 -0.24025920718E+03  0.29621687942E+03  0.12500157351E+03 0.  0.
          4    1    3    3  502    0  0.25330978499E+02  0.65208912480E+02 -0.42728225167E+02  0.81982771754E+02  0.12700000000E+01 0.  1.
         -4    1    3    3    0  502  0.82084120794E+02 -0.11762153148E+02 -0.19753098201E+03  0.21423410767E+03  0.12700000000E+01 0.  1.
          2    1    1    2  503    0 -0.60095214848E+02 -0.80053818125E+01 -0.20106769838E+02  0.63873336995E+02  0.00000000000E+00 0. -1.
         -1    1    1    2    0  501 -0.47319884445E+02 -0.45441377520E+02  0.51758486954E+02  0.83564533306E+02  0.00000000000E+00 0.  1.
<mgrwt>
<rscale>  0 0.64382344E+02</rscale>
<asrwt>0</asrwt>
<pdfrwt beam="2">  1        2 0.50174018E-01 0.60626075E+02</pdfrwt>
<pdfrwt beam="1">  1       -1 0.18080559E-01 0.68371343E+02</pdfrwt>
<totfact> 0.25530296E+03</totfact>
</mgrwt>
</event>
<event>
 7    1  0.4251803E-004  0.6887165E+02  0.7546771E-02  0.1454898E+00
          2   -1    0    0  503    0  0.00000000000E+00  0.00000000000E+00  0.12566162783E+04  0.12566162783E+04  0.00000000000E+00 0. -1.
         -2   -1    0    0    0  501 -0.00000000000E+00 -0.00000000000E+00 -0.16309075526E+03  0.16309075526E+03  0.00000000000E+00 0.  1.
         25    2    1    2    0    0  0.32660430115E+02 -0.35597939150E+02  0.39380483111E+02  0.13967954879E+03  0.12500254771E+03 0.  0.
          4    1    3    3  502    0 -0.34072338579E+02  0.21877818368E+02 -0.53978173978E+01  0.40869457122E+02  0.12700000000E+01 0. -1.
         -4    1    3    3    0  502  0.66732768694E+02 -0.57475757518E+02  0.44778300509E+02  0.98810091672E+02  0.12700000000E+01 0. -1.
          2    1    1    2  503    0 -0.19272593817E+02  0.66668325576E+02  0.11634953132E+04  0.11655631439E+04  0.00000000000E+00 0. -1.
         -2    1    1    2    0  501 -0.13387836298E+02 -0.31070386426E+02 -0.10935027327E+03  0.11446434090E+03  0.00000000000E+00 0.  1.
<mgrwt>
<rscale>  0 0.48270741E+02</rscale>
<asrwt>0</asrwt>
<pdfrwt beam="1">  1        2 0.19332558E+00 0.68871647E+02</pdfrwt>
<pdfrwt beam="2">  1       -2 0.25090886E-01 0.33831983E+02</pdfrwt>
<totfact> 0.27116632E+02</totfact>
</mgrwt>
</event>
<event>
 7    1  0.4251803E-004  0.8613848E+02  0.7546771E-02  0.1474294E+00
          3   -1    0    0  503    0 -0.00000000000E+00  0.00000000000E+00  0.96978976923E+03  0.96978976923E+03  0.00000000000E+00 0. -1.
          1   -1    0    0  502    0  0.00000000000E+00 -0.00000000000E+00 -0.71100879220E+02  0.71100879220E+02  0.00000000000E+00 0. -1.
         25    2    1    2    0    0  0.75096638463E+02 -0.74480275802E+02  0.72430895167E+03  0.74258735800E+03  0.12500284078E+03 0.  0.
          4    1    3    3  501    0 -0.88590037248E+01  0.28545271828E+02  0.16624526792E+03  0.16891541226E+03  0.12700000000E+01 0. -1.
         -4    1    3    3    0  501  0.83955642188E+02 -0.10302554763E+03  0.55806368374E+03  0.57367194574E+03  0.12700000000E+01 0. -1.
          1    1    1    2  502    0 -0.52762190904E+02  0.67118132104E+02 -0.31563384500E+02  0.91021644059E+02  0.00000000000E+00 0. -1.
          3    1    1    2  503    0 -0.22334447560E+02  0.73621436985E+01  0.20594332284E+03  0.20728164639E+03  0.00000000000E+00 0. -1.
<mgrwt>
<rscale>  0 0.45007566E+02</rscale>
<asrwt>0</asrwt>
<pdfrwt beam="2">  1        1 0.10938597E-01 0.86138481E+02</pdfrwt>
<pdfrwt beam="1">  1        3 0.14919842E+00 0.23516562E+02</pdfrwt>
<totfact> 0.99568735E+01</totfact>
</mgrwt>
</event>
<event>
 7    1  0.4251803E-004  0.6954073E+02  0.7546771E-02  0.1510041E+00
          1   -1    0    0  503    0  0.00000000000E+00  0.00000000000E+00  0.67937587736E+02  0.67937587736E+02  0.00000000000E+00 0. -1.
         -1   -1    0    0    0  501 -0.00000000000E+00 -0.00000000000E+00 -0.23465701258E+03  0.23465701258E+03  0.00000000000E+00 0.  1.
         25    2    1    2    0    0  0.28901327043E+01  0.59309165551E+02 -0.11574910822E+03  0.18041322299E+03  0.12500057996E+03 0.  0.
          4    1    3    3  502    0 -0.54083413569E+02  0.32712842827E+02 -0.20853209766E+02  0.66570376044E+02  0.12700000000E+01 0. -1.
         -4    1    3    3    0  502  0.56973546274E+02  0.26596322724E+02 -0.94895898457E+02  0.11384284695E+03  0.12700000000E+01 0. -1.
          1    1    1    2  503    0 -0.23470468902E+02 -0.68944344324E+02 -0.76088084605E+01  0.73226221334E+02  0.00000000000E+00 0. -1.
         -1    1    1    2    0  501  0.20580336198E+02  0.96351787728E+01 -0.43361508163E+02  0.48955155991E+02  0.00000000000E+00 0.  1.
<mgrwt>
<rscale>  0 0.39752408E+02</rscale>
<asrwt>0</asrwt>
<pdfrwt beam="1">  1        1 0.10451937E-01 0.69540735E+02</pdfrwt>
<pdfrwt beam="2">  1       -1 0.36101079E-01 0.22724148E+02</pdfrwt>
<totfact> 0.39972315E+03</totfact>
</mgrwt>
</event>
<event>
 7    1  0.4251803E-004  0.4261681E+02  0.7546771E-02  0.1555385E+00
          1   -1    0    0  503    0  0.00000000000E+00  0.00000000000E+00  0.64446790903E+02  0.64446790903E+02  0.00000000000E+00 0. -1.
         -2   -1    0    0    0  501 -0.00000000000E+00 -0.00000000000E+00 -0.29852320374E+03  0.29852320374E+03  0.00000000000E+00 0.  1.
         25    2    1    2    0    0  0.49918453156E+02  0.57865068031E+01 -0.23797818840E+03  0.27346825546E+03  0.12500373181E+03 0.  0.
          4    1    3    3  502    0  0.33583247342E+02 -0.46767878709E+02 -0.45861946777E+02  0.73620649571E+02  0.12700000000E+01 0. -1.
         -4    1    3    3    0  502  0.16335205814E+02  0.52554385512E+02 -0.19211624162E+03  0.19984760589E+03  0.12700000000E+01 0. -1.
          1    1    1    2  503    0 -0.13428654430E+02 -0.24023574207E+02  0.30283255196E+02  0.40921099970E+02  0.00000000000E+00 0. -1.
         -2    1    1    2    0  501 -0.36489798726E+02  0.18237067404E+02 -0.26381479634E+02  0.48580639211E+02  0.00000000000E+00 0.  1.
<mgrwt>
<rscale>  0 0.34247629E+02</rscale>
<asrwt>0</asrwt>
<pdfrwt beam="1">  1        1 0.99148908E-02 0.27522007E+02</pdfrwt>
<pdfrwt beam="2">  1       -2 0.45926647E-01 0.42616807E+02</pdfrwt>
<totfact> 0.22022830E+03</totfact>
</mgrwt>
</event>
<event>
 7    1  0.4251803E-004  0.9431259E+02  0.7546771E-02  0.1323961E+00
          2   -1    0    0  503    0  0.00000000000E+00  0.00000000000E+00  0.51242955708E+03  0.51242955708E+03  0.00000000000E+00 0. -1.
         -2   -1    0    0    0  501 -0.00000000000E+00 -0.00000000000E+00 -0.49869649724E+03  0.49869649724E+03  0.00000000000E+00 0.  1.
         25    2    1    2    0    0  0.34283514142E+02 -0.25590506937E+02  0.91356648146E+02  0.16062760015E+03  0.12499982152E+03 0.  0.
          4    1    3    3  502    0  0.37879800893E+00  0.30005817490E+02 -0.16770060116E+02  0.34399714933E+02  0.12700000000E+01 0.  1.
         -4    1    3    3    0  502  0.33904716133E+02 -0.55596324427E+02  0.10812670826E+03  0.12622788521E+03  0.12700000000E+01 0.  1.
          2    1    1    2  503    0 -0.10477506055E+03  0.17243251712E+02  0.37633256537E+03  0.39102601295E+03  0.00000000000E+00 0. -1.
         -2    1    1    2    0  501  0.70491546413E+02  0.83472552244E+01 -0.45395615367E+03  0.45947244122E+03  0.00000000000E+00 0.  1.
<mgrwt>
<rscale>  0 0.81821082E+02</rscale>
<asrwt>0</asrwt>
<pdfrwt beam="1">  1        2 0.78835317E-01 0.94312594E+02</pdfrwt>
<pdfrwt beam="2">  1       -2 0.76722538E-01 0.70984046E+02</pdfrwt>
<totfact> 0.99608787E+01</totfact>
</mgrwt>
</event>
<event>
 7    1  0.4251803E-004  0.5093897E+02  0.7546771E-02  0.1540801E+00
          2   -1    0    0  503    0  0.00000000000E+00  0.00000000000E+00  0.91014556719E+03  0.91014556719E+03  0.00000000000E+00 0. -1.
         -3   -1    0    0    0  501 -0.00000000000E+00 -0.00000000000E+00 -0.20977144814E+02  0.20977144814E+02  0.00000000000E+00 0.  1.
         25    2    1    2    0    0  0.62483999511E+02 -0.92096209418E+01  0.53369569651E+03  0.55177117664E+03  0.12502506783E+03 0.  0.
          4    1    3    3  502    0  0.58800988799E+01  0.54122533455E+02  0.18279642033E+03  0.19073533594E+03  0.12700000000E+01 0. -1.
         -4    1    3    3    0  502  0.56603900631E+02 -0.63332154396E+02  0.35089927618E+03  0.36103584070E+03  0.12700000000E+01 0. -1.
          2    1    1    2  503    0 -0.19338222889E+02 -0.16302081064E+02  0.31193644830E+03  0.31296017716E+03  0.00000000000E+00 0. -1.
         -3    1    1    2    0  501 -0.43145776622E+02  0.25511702006E+02  0.43536277566E+02  0.66391358201E+02  0.00000000000E+00 0.  1.
<mgrwt>
<rscale>  0 0.35894125E+02</rscale>
<asrwt>0</asrwt>
<pdfrwt beam="1">  1        2 0.14002236E+00 0.25292780E+02</pdfrwt>
<pdfrwt beam="2">  1       -3 0.32272538E-02 0.50938973E+02</pdfrwt>
<totfact> 0.75033264E+03</totfact>
</mgrwt>
</event>
<event>
 7    1  0.4251803E-004  0.3272515E+02  0.7546771E-02  0.1615852E+00
         -2   -1    0    0    0  501 -0.00000000000E+00  0.00000000000E+00  0.16252749723E+02  0.16252749723E+02  0.00000000000E+00 0.  1.
          1   -1    0    0  503    0  0.00000000000E+00 -0.00000000000E+00 -0.84756175278E+03  0.84756175278E+03  0.00000000000E+00 0. -1.
         25    2    1    2    0    0 -0.22027083003E+02  0.24740624178E+01 -0.67412278438E+03  0.68597238238E+03  0.12500107036E+03 0.  0.
          4    1    3    3  502    0 -0.46284101162E+02  0.53035885307E+02 -0.40371197746E+03  0.40980482768E+03  0.12700000000E+01 0. -1.
         -4    1    3    3    0  502  0.24257018159E+02 -0.50561822889E+02 -0.27041080692E+03  0.27616755469E+03  0.12700000000E+01 0. -1.
          1    1    1    2  503    0 -0.32067635729E+01 -0.24529079260E+02 -0.13591484348E+03  0.13814776053E+03  0.00000000000E+00 0. -1.
         -2    1    1    2    0  501  0.25233846576E+02  0.22055016842E+02 -0.21271375198E+02  0.39694359596E+02  0.00000000000E+00 0.  1.
<mgrwt>
<rscale>  0 0.28452564E+02</rscale>
<asrwt>0</asrwt>
<pdfrwt beam="2">  1        1 0.13039414E+00 0.24737806E+02</pdfrwt>
<pdfrwt beam="1">  1       -2 0.25004225E-02 0.32725150E+02</pdfrwt>
<totfact> 0.89276847E+03</totfact>
</mgrwt>
</event>
<event>
 7    1  0.4251803E-004  0.7139055E+02  0.7546771E-02  0.1424404E+00
          1   -1    0    0  503    0 -0.00000000000E+00  0.00000000000E+00  0.10380930208E+04  0.10380930208E+04  0.00000000000E+00 0. -1.
          2   -1    0    0  502    0  0.00000000000E+00 -0.00000000000E+00 -0.16091620475E+03  0.16091620475E+03  0.00000000000E+00 0. -1.
         25    2    1    2    0    0 -0.14898111201E+01  0.40275377518E+02  0.91000600877E+02  0.15978242010E+03  0.12499994737E+03 0.  0.
          4    1    3    3  501    0 -0.35438810852E+02 -0.34268755422E+02  0.37263861653E+02  0.61809911811E+02  0.12700000000E+01 0. -1.
         -4    1    3    3    0  501  0.33948999732E+02  0.74544132940E+02  0.53736739224E+02  0.97972508293E+02  0.12700000000E+01 0. -1.
          2    1    1    2  502    0 -0.33463722193E+02  0.23683959209E+02 -0.12170498697E+03  0.12842450887E+03  0.00000000000E+00 0. -1.
          1    1    1    2  503    0  0.34953533313E+02 -0.63959336728E+02  0.90788120210E+03  0.91080229654E+03  0.00000000000E+00 0. -1.
<mgrwt>
<rscale>  0 0.54099864E+02</rscale>
<asrwt>0</asrwt>
<pdfrwt beam="2">  1        2 0.24756340E-01 0.40996959E+02</pdfrwt>
<pdfrwt beam="1">  1        1 0.15970661E+00 0.71390545E+02</pdfrwt>
<totfact> 0.45803717E+02</totfact>
</mgrwt>
</event>
<event>
 7    1  0.4251803E-004  0.6735213E+02  0.7546771E-02  0.1489380E+00
         -2   -1    0    0    0  501 -0.00000000000E+00  0.00000000000E+00  0.81472318913E+02  0.81472318913E+02  0.00000000000E+00 0.  1.
          1   -1    0    0  503    0  0.00000000000E+00 -0.00000000000E+00 -0.24716193396E+03  0.24716193396E+03  0.00000000000E+00 0. -1.
         25    2    1    2    0    0  0.52980780736E+02 -0.64001118836E+02 -0.14726181590E+03  0.21026834494E+03  0.12499451238E+03 0.  0.
          4    1    3    3  502    0  0.72860439714E+02 -0.22442724947E+02 -0.14535827473E+03  0.16414310985E+03  0.12700000000E+01 0. -1.
         -4    1    3    3    0  502 -0.19879658979E+02 -0.41558393888E+02 -0.19035411684E+01  0.46125235096E+02  0.12700000000E+01 0. -1.
          1    1    1    2  503    0 -0.47644838433E+02  0.37489564822E+02 -0.48707189437E+02  0.77768170884E+02  0.00000000000E+00 0. -1.
         -2    1    1    2    0  501 -0.53359423031E+01  0.26511554014E+02  0.30279390291E+02  0.40597737041E+02  0.00000000000E+00 0.  1.
<mgrwt>
<rscale>  0 0.42678065E+02</rscale>
<asrwt>0</asrwt>
<pdfrwt beam="2">  1        1 0.38024912E-01 0.67352128E+02</pdfrwt>
<pdfrwt beam="1">  1       -2 0.12534203E-01 0.27043202E+02</pdfrwt>
<totfact> 0.38696775E+03</totfact>
</mgrwt>
</event>
<event>
 7    1  0.4251803E-004  0.7699387E+02  0.7546771E-02  0.1511143E+00
         -1   -1    0    0    0  501 -0.00000000000E+00  0.00000000000E+00  0.56688110555E+01  0.56688110555E+01  0.00000000000E+00 0.  1.
          2   -1    0    0  503    0  0.00000000000E+00 -0.00000000000E+00 -0.33961538309E+04  0.33961538309E+04  0.00000000000E+00 0. -1.
         25    2    1    2    0    0 -0.48377325163E+02 -0.79696833322E+02 -0.17410481763E+04  0.17480173640E+04  0.12499600700E+03 0.  0.
          4    1    3    3  502    0 -0.16232077064E+02  0.15150539208E+02 -0.60016892882E+02  0.64005152100E+02  0.12700000000E+01 0.  1.
         -4    1    3    3    0  502 -0.32145248099E+02 -0.94847372530E+02 -0.16810312834E+04  0.16840122119E+04  0.12700000000E+01 0.  1.
          2    1    1    2  503    0  0.40015094856E+02  0.61120370234E+02 -0.15731457844E+04  0.15748411242E+04  0.00000000000E+00 0. -1.
         -1    1    1    2    0  501  0.83622303066E+01  0.18576463089E+02 -0.76291059203E+02  0.78964153836E+02  0.00000000000E+00 0.  1.
<mgrwt>
<rscale>  0 0.39604378E+02</rscale>
<asrwt>0</asrwt>
<pdfrwt beam="2">  1        2 0.52248510E+00 0.76993867E+02</pdfrwt>
<pdfrwt beam="1">  1       -1 0.87212495E-03 0.20371840E+02</pdfrwt>
<totfact> 0.24231348E+03</totfact>
</mgrwt>
</event>
<event>
 7    1  0.4251803E-004  0.8945817E+02  0.7546771E-02  0.1425602E+00
         -1   -1    0    0    0  501 -0.00000000000E+00  0.00000000000E+00  0.12470030718E+02  0.12470030718E+02  0.00000000000E+00 0.  1.
          2   -1    0    0  503    0  0.00000000000E+00 -0.00000000000E+00 -0.16118914923E+04  0.16118914923E+04  0.00000000000E+00 0. -1.
         25    2    1    2    0    0  0.24130514935E+02  0.89508013074E+02 -0.10494993029E+04  0.10609753153E+04  0.12500346674E+03 0.  0.
          4    1    3    3  502    0 -0.31943203240E+02 -0.15478081877E+02 -0.29775542380E+03  0.29986637783E+03  0.12700000000E+01 0. -1.
         -4    1    3    3    0  502  0.56073718176E+02  0.10498609495E+03 -0.75174387913E+03  0.76110893748E+03  0.12700000000E+01 0. -1.
          2    1    1    2  503    0  0.27990355200E+02 -0.16356508103E+02 -0.16020073321E+03  0.16344806595E+03  0.00000000000E+00 0. -1.
         -1    1    1    2    0  501 -0.52120870136E+02 -0.73151504971E+02 -0.38972142546E+03  0.39993814178E+03  0.00000000000E+00 0.  1.
<mgrwt>
<rscale>  0 0.53853037E+02</rscale>
<asrwt>0</asrwt>
<pdfrwt beam="2">  1        2 0.24798331E+00 0.32419058E+02</pdfrwt>
<pdfrwt beam="1">  1       -1 0.19184662E-02 0.89458170E+02</pdfrwt>
<totfact> 0.10414239E+04</totfact>
</mgrwt>
</event>
<event>
 7    1  0.4251803E-004  0.1296590E+03  0.7546771E-02  0.1259136E+00
          1   -1    0    0  502    0  0.00000000000E+00  0.00000000000E+00  0.23724632230E+04  0.23724632230E+04  0.00000000000E+00 0. -1.
          1   -1    0    0  503    0 -0.00000000000E+00 -0.00000000000E+00 -0.78067137207E+02  0.78067137207E+02  0.00000000000E+00 0. -1.
         25    2    1    2    0    0 -0.35051088544E+02  0.20413529214E+03  0.10520548687E+04  0.10795114769E+04  0.12500314235E+03 0.  0.
          4    1    3    3  501    0 -0.42053247760E+02  0.19818128937E+03  0.10507950160E+04  0.10701476896E+04  0.12700000000E+01 0.  1.
         -4    1    3    3    0  501  0.70021592157E+01  0.59540027763E+01  0.12598527432E+01  0.93637872507E+01  0.12700000000E+01 0.  1.
          1    1    1    2  502    0  0.35910682880E+02 -0.10949283945E+03  0.12677859013E+04  0.12730119208E+04  0.00000000000E+00 0. -1.
          1    1    1    2  503    0 -0.85959433623E+00 -0.94642452693E+02 -0.25444684186E+02  0.98006962546E+02  0.00000000000E+00 0. -1.
<mgrwt>
<rscale>  0 0.11077794E+03</rscale>
<asrwt>0</asrwt>
<pdfrwt beam="1">  1        1 0.36499429E+00 0.12965899E+03</pdfrwt>
<pdfrwt beam="2">  1        1 0.12010331E-01 0.94646356E+02</pdfrwt>
<totfact> 0.12060760E+02</totfact>
</mgrwt>
</event>
<event>
 7    1  0.4251803E-004  0.5718384E+02  0.7546771E-02  0.1458342E+00
          2   -1    0    0  503    0  0.00000000000E+00  0.00000000000E+00  0.25243911453E+04  0.25243911453E+04  0.00000000000E+00 0. -1.
         -1   -1    0    0    0  501 -0.00000000000E+00 -0.00000000000E+00 -0.81403176035E+01  0.81403176035E+01  0.00000000000E+00 0.  1.
         25    2    1    2    0    0 -0.92066491993E+02  0.93112679021E+01  0.10973950059E+04  0.11083603059E+04  0.12499532018E+03 0.  0.
          4    1    3    3  502    0  0.17575085643E+02  0.15523066411E+02  0.52497700184E+03  0.52550196440E+03  0.12700000000E+01 0.  1.
         -4    1    3    3    0  502 -0.10964157764E+03 -0.62117985086E+01  0.57241800406E+03  0.58285834150E+03  0.12700000000E+01 0.  1.
          2    1    1    2  503    0  0.53484031027E+02  0.19142793694E+00  0.12308805522E+04  0.12320420090E+04  0.00000000000E+00 0. -1.
         -1    1    1    2    0  501  0.38582460966E+02 -0.95026958391E+01  0.18797526962E+03  0.19212914800E+03  0.00000000000E+00 0.  1.
<mgrwt>
<rscale>  0 0.47667878E+02</rscale>
<asrwt>0</asrwt>
<pdfrwt beam="1">  1        2 0.38836724E+00 0.57183836E+02</pdfrwt>
<pdfrwt beam="2">  1       -1 0.12523586E-02 0.39735469E+02</pdfrwt>
<totfact> 0.55443717E+03</totfact>
</mgrwt>
</event>
<event>
 7    1  0.4251803E-004  0.9362074E+02  0.7546771E-02  0.1386731E+00
         -1   -1    0    0    0  501 -0.00000000000E+00  0.00000000000E+00  0.67399503467E+02  0.67399503467E+02  0.00000000000E+00 0.  1.
          2   -1    0    0  503    0  0.00000000000E+00 -0.00000000000E+00 -0.44913329509E+03  0.44913329509E+03  0.00000000000E+00 0. -1.
         25    2    1    2    0    0  0.55725539200E+02  0.11199209158E+03 -0.29559901096E+03  0.34445892966E+03  0.12500245854E+03 0.  0.
          4    1    3    3  502    0  0.45507975440E+02  0.13222049431E+03 -0.18694482984E+03  0.23345924108E+03  0.12700000000E+01 0. -1.
         -4    1    3    3    0  502  0.10217563760E+02 -0.20228402734E+02 -0.10865418113E+03  0.11099968857E+03  0.12700000000E+01 0. -1.
          2    1    1    2  503    0 -0.11436149191E+01 -0.42012269657E+02 -0.70326988348E+02  0.81928163332E+02  0.00000000000E+00 0. -1.
         -1    1    1    2    0  501 -0.54581924281E+02 -0.69979821923E+02 -0.15807792309E+02  0.90145705568E+02  0.00000000000E+00 0.  1.
<mgrwt>
<rscale>  0 0.62727001E+02</rscale>
<asrwt>0</asrwt>
<pdfrwt beam="2">  1        2 0.69097432E-01 0.42027832E+02</pdfrwt>
<pdfrwt beam="1">  1       -1 0.10369154E-01 0.93620737E+02</pdfrwt>
<totfact> 0.43918403E+03</totfact>
</mgrwt>
</event>
<event>
 7    1  0.4251803E-004  0.4695880E+02  0.7546771E-02  0.1476157E+00
          2   -1    0    0  503    0  0.00000000000E+00  0.00000000000E+00  0.50028500886E+03  0.50028500886E+03  0.00000000000E+00 0. -1.
         -1   -1    0    0    0  501 -0.00000000000E+00 -0.00000000000E+00 -0.28829308612E+02  0.28829308612E+02  0.00000000000E+00 0.  1.
         25    2    1    2    0    0  0.48654145428E+02 -0.20825521849E+02  0.34693484649E+03  0.37255054587E+03  0.12501677205E+03 0.  0.
          4    1    3    3  502    0  0.13688259480E+01  0.92764120828E+01  0.29794400535E+03  0.29809422794E+03  0.12700000000E+01 0. -1.
         -4    1    3    3    0  502  0.47285319480E+02 -0.30101933932E+02  0.48990841138E+02  0.74456317934E+02  0.12700000000E+01 0. -1.
          2    1    1    2  503    0 -0.45455550208E+02 -0.21623920717E+02  0.51326395996E+02  0.71890193475E+02  0.00000000000E+00 0. -1.
         -1    1    1    2    0  501 -0.31985952205E+01  0.42449442566E+02  0.73194457763E+02  0.84673578126E+02  0.00000000000E+00 0.  1.
<mgrwt>
<rscale>  0 0.44710464E+02</rscale>
<asrwt>0</asrwt>
<pdfrwt beam="1">  1        2 0.76966918E-01 0.46958796E+02</pdfrwt>
<pdfrwt beam="2">  1       -1 0.44352786E-02 0.42569780E+02</pdfrwt>
<totfact> 0.12663307E+04</totfact>
</mgrwt>
</event>
<event>
 7    1  0.4251803E-004  0.4022960E+02  0.7546771E-02  0.1601941E+00
          2   -1    0    0  502    0  0.00000000000E+00  0.00000000000E+00  0.56847727316E+03  0.56847727316E+03  0.00000000000E+00 0. -1.
          2   -1    0    0  503    0 -0.00000000000E+00 -0.00000000000E+00 -0.10714414539E+03  0.10714414539E+03  0.00000000000E+00 0.  1.
         25    2    1    2    0    0  0.10237593281E+02  0.59236279303E+02  0.45761355101E+03  0.47818699623E+03  0.12505557241E+03 0.  0.
          4    1    3    3  501    0  0.12042496830E+02  0.92106257968E+02  0.40930146216E+03  0.41971166807E+03  0.12700000000E+01 0.  1.
         -4    1    3    3    0  501 -0.18049035486E+01 -0.32869978664E+02  0.48312088846E+02  0.58475328155E+02  0.12700000000E+01 0.  1.
          2    1    1    2  502    0 -0.10490250086E+02 -0.19177440747E+02  0.95141804490E+02  0.97620605110E+02  0.00000000000E+00 0. -1.
          2    1    1    2  503    0  0.25265680423E+00 -0.40058838556E+02 -0.91422227734E+02  0.99813817209E+02  0.00000000000E+00 0.  1.
<mgrwt>
<rscale>  0 0.29654378E+02</rscale>
<asrwt>0</asrwt>
<pdfrwt beam="1">  1        2 0.87458040E-01 0.21859085E+02</pdfrwt>
<pdfrwt beam="2">  1        2 0.16483715E-01 0.40229596E+02</pdfrwt>
<totfact> 0.27784730E+03</totfact>
</mgrwt>
</event>
<event>
 7    1  0.4251803E-004  0.8939431E+02  0.7546771E-02  0.1444432E+00
         -2   -1    0    0    0  501 -0.00000000000E+00  0.00000000000E+00  0.30476835546E+03  0.30476835546E+03  0.00000000000E+00 0.  1.
          2   -1    0    0  503    0  0.00000000000E+00 -0.00000000000E+00 -0.28811735437E+04  0.28811735437E+04  0.00000000000E+00 0. -1.
         25    2    1    2    0    0  0.63505023937E+02 -0.14262033293E+01 -0.23728374687E+03  0.27560445103E+03  0.12497725704E+03 0.  0.
          4    1    3    3  502    0  0.99516991977E+02 -0.16684157816E+02 -0.16518602338E+03  0.19357176455E+03  0.12700000000E+01 0.  1.
         -4    1    3    3    0  502 -0.36011968040E+02  0.15257954487E+02 -0.72097723496E+02  0.82032686477E+02  0.12700000000E+01 0.  1.
          2    1    1    2  503    0 -0.90131149782E+02 -0.77268113635E+01 -0.26232539985E+04  0.26248133016E+04  0.00000000000E+00 0. -1.
         -2    1    1    2    0  501  0.26626125846E+02  0.91530146928E+01  0.28413255710E+03  0.28552414654E+03  0.00000000000E+00 0.  1.
<mgrwt>
<rscale>  0 0.50169066E+02</rscale>
<asrwt>0</asrwt>
<pdfrwt beam="2">  1        2 0.44325749E+00 0.89394306E+02</pdfrwt>
<pdfrwt beam="1">  1       -2 0.46887437E-01 0.28155430E+02</pdfrwt>
<totfact> 0.12598079E+01</totfact>
</mgrwt>
</event>
<event>
 7    1  0.4251803E-004  0.6078427E+02  0.7546771E-02  0.1435005E+00
         -1   -1    0    0    0  501 -0.00000000000E+00  0.00000000000E+00  0.57472971023E+03  0.57472971023E+03  0.00000000000E+00 0.  1.
          2   -1    0    0  503    0  0.00000000000E+00 -0.00000000000E+00 -0.43529052899E+02  0.43529052899E+02  0.00000000000E+00 0.  1.
         25    2    1    2    0    0  0.52875380406E+02  0.54925678457E+01  0.23784773594E+03  0.27390169364E+03  0.12499847252E+03 0.  0.
          4    1    3    3  502    0  0.47051586828E+02 -0.52432549195E+02  0.85423394634E+02  0.11073298194E+03  0.12700000000E+01 0. -1.
         -4    1    3    3    0  502  0.58237935780E+01  0.57925117041E+02  0.15242434131E+03  0.16316871171E+03  0.12700000000E+01 0. -1.
          2    1    1    2  503    0 -0.10273821308E+02  0.43226802694E+02  0.49534383547E+00  0.44433694882E+02  0.00000000000E+00 0.  1.
         -1    1    1    2    0  501 -0.42601559098E+02 -0.48719370539E+02  0.29285757755E+03  0.29992337460E+03  0.00000000000E+00 0.  1.
<mgrwt>
<rscale>  0 0.51968276E+02</rscale>
<asrwt>0</asrwt>
<pdfrwt beam="2">  1        2 0.66967778E-02 0.44430934E+02</pdfrwt>
<pdfrwt beam="1">  1       -1 0.88419950E-01 0.60784265E+02</pdfrwt>
<totfact> 0.14738830E+03</totfact>
</mgrwt>
</event>
<event>
 7    1  0.4251803E-004  0.9027364E+02  0.7546771E-02  0.1413630E+00
          3   -1    0    0  503    0 -0.00000000000E+00  0.00000000000E+00  0.74989054971E+02  0.74989054971E+02  0.00000000000E+00 0. -1.
          1   -1    0    0  502    0  0.00000000000E+00 -0.00000000000E+00 -0.12516411085E+04  0.12516411085E+04  0.00000000000E+00 0.  1.
         25    2    1    2    0    0 -0.41176164913E+02 -0.49291205340E+02 -0.47399234650E+03  0.49438593189E+03  0.12499442238E+03 0.  0.
          4    1    3    3  501    0  0.22820802720E+02 -0.68803966386E+02 -0.27734134820E+03  0.28666114342E+03  0.12700000000E+01 0.  1.
         -4    1    3    3    0  501 -0.63996967633E+02  0.19512761046E+02 -0.19665099830E+03  0.20772478847E+03  0.12700000000E+01 0.  1.
          1    1    1    2  502    0  0.55025275980E+02  0.81681086870E+02 -0.75923626072E+03  0.76559733577E+03  0.00000000000E+00 0.  1.
          3    1    1    2  503    0 -0.13849111067E+02 -0.32389881530E+02  0.56576553655E+02  0.66646895849E+02  0.00000000000E+00 0. -1.
<mgrwt>
<rscale>  0 0.56391659E+02</rscale>
<asrwt>0</asrwt>
<pdfrwt beam="2">  1        1 0.19256017E+00 0.90273637E+02</pdfrwt>
<pdfrwt beam="1">  1        3 0.11536778E-01 0.35226443E+02</pdfrwt>
<totfact> 0.29320085E+02</totfact>
</mgrwt>
</event>
<event>
 7    1  0.4251803E-004  0.8434467E+02  0.7546771E-02  0.1350103E+00
          1   -1    0    0  503    0  0.00000000000E+00  0.00000000000E+00  0.27397171564E+04  0.27397171564E+04  0.00000000000E+00 0. -1.
          1   -1    0    0  502    0 -0.00000000000E+00 -0.00000000000E+00 -0.96113938445E+02  0.96113938445E+02  0.00000000000E+00 0. -1.
         25    2    1    2    0    0  0.11318723465E+03  0.84017159222E+02  0.37297681280E+03  0.41785970708E+03  0.12499919511E+03 0.  0.
          4    1    3    3  501    0  0.30552239744E+02  0.26552574435E+02  0.10741141896E+02  0.41898252849E+02  0.12700000000E+01 0. -1.
         -4    1    3    3    0  501  0.82634994906E+02  0.57464584786E+02  0.36223567091E+03  0.37596145423E+03  0.12700000000E+01 0. -1.
          1    1    1    2  502    0 -0.54650867009E+02 -0.60131506525E+02 -0.50705492232E+02  0.95778715194E+02  0.00000000000E+00 0. -1.
          1    1    1    2  503    0 -0.58536367641E+02 -0.23885652696E+02  0.23213318974E+04  0.23221926726E+04  0.00000000000E+00 0. -1.
<mgrwt>
<rscale>  0 0.73023591E+02</rscale>
<asrwt>0</asrwt>
<pdfrwt beam="1">  1        1 0.42149489E+00 0.63222075E+02</pdfrwt>
<pdfrwt beam="2">  1        1 0.14786762E-01 0.84344667E+02</pdfrwt>
<totfact> 0.59232226E+01</totfact>
</mgrwt>
</event>
<event>
 7    1  0.4251803E-004  0.1297826E+03  0.7546771E-02  0.1341793E+00
          1   -1    0    0  503    0  0.00000000000E+00  0.00000000000E+00  0.21021435072E+04  0.21021435072E+04  0.00000000000E+00 0. -1.
         -2   -1    0    0    0  501 -0.00000000000E+00 -0.00000000000E+00 -0.19828101066E+02  0.19828101066E+02  0.00000000000E+00 0.  1.
         25    2    1    2    0    0  0.14593892819E+03 -0.35030288339E+02  0.63329273647E+03  0.66272912314E+03  0.12499963492E+03 0.  0.
          4    1    3    3  502    0  0.28558924698E+02  0.24619042947E+02  0.39936456330E+02  0.54938537473E+02  0.12700000000E+01 0.  1.
         -4    1    3    3    0  502  0.11738000349E+03 -0.59649331286E+02  0.59335628014E+03  0.60779058567E+03  0.12700000000E+01 0.  1.
          1    1    1    2  503    0 -0.37029338957E+02  0.23997845399E+02  0.78653400313E+03  0.78777078304E+03  0.00000000000E+00 0. -1.
         -2    1    1    2    0  501 -0.10890958923E+03  0.11032442940E+02  0.66248866655E+03  0.67147170210E+03  0.00000000000E+00 0.  1.
<mgrwt>
<rscale>  0 0.75675196E+02</rscale>
<asrwt>0</asrwt>
<pdfrwt beam="1">  1        1 0.32340652E+00 0.44125599E+02</pdfrwt>
<pdfrwt beam="2">  1       -2 0.30504787E-02 0.12978261E+03</pdfrwt>
<totfact> 0.12314891E+03</totfact>
</mgrwt>
</event>
<event>
 7    1  0.4251803E-004  0.1812871E+03  0.7546771E-02  0.1228424E+00
          2   -1    0    0  502    0  0.00000000000E+00  0.00000000000E+00  0.49350428716E+03  0.49350428716E+03  0.00000000000E+00 0. -1.
          3   -1    0    0  503    0 -0.00000000000E+00 -0.00000000000E+00 -0.60682225222E+03  0.60682225222E+03  0.00000000000E+00 0. -1.
         25    2    1    2    0    0  0.23922289418E+03  0.74303940584E+02 -0.11219973724E+03  0.30160004103E+03  0.12500054010E+03 0.  0.
          4    1    3    3  501    0  0.20205581963E+03  0.85826006003E+01 -0.98110955479E+02  0.22478342413E+03  0.12700000000E+01 0.  1.
         -4    1    3    3    0  501  0.37167074558E+02  0.65721339984E+02 -0.14088781757E+02  0.76816616899E+02  0.12700000000E+01 0.  1.
          2    1    1    2  502    0 -0.91916852726E+02  0.83103201639E+01  0.37512694494E+03  0.38631333663E+03  0.00000000000E+00 0. -1.
          3    1    1    2  503    0 -0.14730604146E+03 -0.82614260748E+02 -0.37624517276E+03  0.41241316172E+03  0.00000000000E+00 0. -1.
<mgrwt>
<rscale>  0 0.12934957E+03</rscale>
<asrwt>0</asrwt>
<pdfrwt beam="1">  1        2 0.75923736E-01 0.92291761E+02</pdfrwt>
<pdfrwt beam="2">  1        3 0.93357270E-01 0.18128715E+03</pdfrwt>
<totfact> 0.41836073E+01</totfact>
</mgrwt>
</event>
<event>
 7    1  0.4251803E-004  0.1707031E+03  0.7546771E-02  0.1278728E+00
         -1   -1    0    0    0  501 -0.00000000000E+00  0.00000000000E+00  0.62849055946E+02  0.62849055946E+02  0.00000000000E+00 0.  1.
          2   -1    0    0  503    0  0.00000000000E+00 -0.00000000000E+00 -0.16930023841E+04  0.16930023841E+04  0.00000000000E+00 0. -1.
         25    2    1    2    0    0  0.18284616664E+03  0.11751818133E+03 -0.59676401803E+03  0.64729941148E+03  0.12500396509E+03 0.  0.
          4    1    3    3  502    0 -0.15841708987E+01 -0.88015651446E+01  0.10144077248E+01  0.90895032572E+01  0.12700000000E+01 0.  1.
         -4    1    3    3    0  502  0.18443033754E+03  0.12631974647E+03 -0.59777842575E+03  0.63820990822E+03  0.12700000000E+01 0.  1.
          2    1    1    2  503    0 -0.49048279283E+02 -0.33616356306E+02 -0.89962379584E+03  0.90158680511E+03  0.00000000000E+00 0. -1.
         -1    1    1    2    0  501 -0.13379788736E+03 -0.83901825023E+02 -0.13376551426E+03  0.20696522343E+03  0.00000000000E+00 0.  1.
<mgrwt>
<rscale>  0 0.10074938E+03</rscale>
<asrwt>0</asrwt>
<pdfrwt beam="2">  1        2 0.26046190E+00 0.59462535E+02</pdfrwt>
<pdfrwt beam="1">  1       -1 0.96690858E-02 0.17070306E+03</pdfrwt>
<totfact> 0.88195884E+02</totfact>
</mgrwt>
</event>
<event>
 7    1  0.4251803E-004  0.5741139E+02  0.7546771E-02  0.1421892E+00
          2   -1    0    0  502    0  0.00000000000E+00  0.00000000000E+00  0.40524963461E+03  0.40524963461E+03  0.00000000000E+00 0. -1.
          2   -1    0    0  503    0 -0.00000000000E+00 -0.00000000000E+00 -0.94101406742E+03  0.94101406742E+03  0.00000000000E+00 0. -1.
         25    2    1    2    0    0 -0.29938595501E+01 -0.27146950268E+02 -0.17495253953E+03  0.21675159849E+03  0.12500777678E+03 0.  0.
          4    1    3    3  501    0 -0.23545717857E+02 -0.54653958588E+02 -0.17229671415E+03  0.18228885491E+03  0.12700000000E+01 0. -1.
         -4    1    3    3    0  501  0.20551858306E+02  0.27507008320E+02 -0.26558253851E+01  0.34462743580E+02  0.12700000000E+01 0. -1.
          2    1    1    2  502    0 -0.51878895399E+02  0.30651370233E+01  0.38138021504E+03  0.38490477170E+03  0.00000000000E+00 0. -1.
          2    1    1    2  503    0  0.54872754949E+02  0.24081813244E+02 -0.74219210833E+03  0.74460733184E+03  0.00000000000E+00 0. -1.
<mgrwt>
<rscale>  0 0.54622646E+02</rscale>
<asrwt>0</asrwt>
<pdfrwt beam="1">  1        2 0.62346099E-01 0.51969365E+02</pdfrwt>
<pdfrwt beam="2">  1        2 0.14477139E+00 0.57411391E+02</pdfrwt>
<totfact> 0.37953742E+02</totfact>
</mgrwt>
</event>
<event>
 7    1  0.4251803E-004  0.9652241E+02  0.7546771E-02  0.1307615E+00
         -3   -1    0    0    0  501 -0.00000000000E+00  0.00000000000E+00  0.10768356964E+04  0.10768356964E+04  0.00000000000E+00 0.  1.
          2   -1    0    0  503    0  0.00000000000E+00 -0.00000000000E+00 -0.33765825745E+03  0.33765825745E+03  0.00000000000E+00 0. -1.
         25    2    1    2    0    0 -0.16334288811E+03  0.46977515675E+02  0.25763811587E+03  0.33299956944E+03  0.12499411355E+03 0.  0.
          4    1    3    3  502    0 -0.17289172620E+03  0.65314179269E+02  0.25004944170E+03  0.31094023091E+03  0.12700000000E+01 0. -1.
         -4    1    3    3    0  502  0.95488380936E+01 -0.18336663593E+02  0.75886741662E+01  0.22059338528E+02  0.12700000000E+01 0. -1.
          2    1    1    2  503    0  0.79690854510E+02 -0.10208373602E+02 -0.29185977106E+03  0.30271598760E+03  0.00000000000E+00 0. -1.
         -3    1    1    2    0  501  0.83652033595E+02 -0.36769142073E+02  0.77339909416E+03  0.77877839684E+03  0.00000000000E+00 0.  1.
<mgrwt>
<rscale>  0 0.88061384E+02</rscale>
<asrwt>0</asrwt>
<pdfrwt beam="2">  1        2 0.51947425E-01 0.80342039E+02</pdfrwt>
<pdfrwt beam="1">  1       -3 0.16566703E+00 0.96522413E+02</pdfrwt>
<totfact> 0.15927701E+01</totfact>
</mgrwt>
</event>
<event>
 7    1  0.4251803E-004  0.4096566E+02  0.7546771E-02  0.1530113E+00
          1   -1    0    0  503    0  0.00000000000E+00  0.00000000000E+00  0.90505130765E+02  0.90505130765E+02  0.00000000000E+00 0. -1.
         -2   -1    0    0    0  501 -0.00000000000E+00 -0.00000000000E+00 -0.12350233293E+03  0.12350233293E+03  0.00000000000E+00 0.  1.
         25    2    1    2    0    0  0.43206570799E+01 -0.19175803713E+02 -0.22132865639E+02  0.12845507053E+03  0.12499784749E+03 0.  0.
          4    1    3    3  502    0  0.19665688377E+01 -0.72792591666E+02 -0.13876828246E+02  0.74140461669E+02  0.12700000000E+01 0.  1.
         -4    1    3    3    0  502  0.23540882423E+01  0.53616787953E+02 -0.82560373933E+01  0.54314608857E+02  0.12700000000E+01 0.  1.
          1    1    1    2  503    0  0.29667439333E+02 -0.16050086137E+02  0.49933692115E+01  0.34098327784E+02  0.00000000000E+00 0. -1.
         -2    1    1    2    0  501 -0.33988096413E+02  0.35225889849E+02 -0.15857705740E+02  0.51454065387E+02  0.00000000000E+00 0.  1.
<mgrwt>
<rscale>  0 0.37172592E+02</rscale>
<asrwt>0</asrwt>
<pdfrwt beam="1">  1        1 0.13923866E-01 0.33730731E+02</pdfrwt>
<pdfrwt beam="2">  1       -2 0.19000359E-01 0.40965657E+02</pdfrwt>
<totfact> 0.68542931E+03</totfact>
</mgrwt>
</event>
<event>
 7    1  0.4251803E-004  0.2223315E+03  0.7546771E-02  0.1204110E+00
         -1   -1    0    0    0  502 -0.00000000000E+00  0.00000000000E+00  0.38747511991E+03  0.38747511991E+03  0.00000000000E+00 0.  1.
         -2   -1    0    0    0  501  0.00000000000E+00 -0.00000000000E+00 -0.62641330390E+03  0.62641330390E+03  0.00000000000E+00 0.  1.
         25    2    1    2    0    0  0.13633502314E+03  0.98216598458E+02 -0.74189327112E+01  0.20955672761E+03  0.12500097110E+03 0.  0.
          4    1    3    3  503    0  0.50773568477E+02 -0.14100519855E+02 -0.38128984085E+02  0.65055455140E+02  0.12700000000E+01 0.  1.
         -4    1    3    3    0  503  0.85561454661E+02  0.11231711831E+03  0.30710051374E+02  0.14450127247E+03  0.12700000000E+01 0.  1.
         -2    1    1    2    0  501 -0.22930481285E+03 -0.69524548269E+02 -0.48054633292E+03  0.53697219490E+03  0.00000000000E+00 0.  1.
         -1    1    1    2    0  502  0.92969789711E+02 -0.28692050189E+02  0.24902708164E+03  0.26735950130E+03  0.00000000000E+00 0.  1.
<mgrwt>
<rscale>  0 0.14707849E+03</rscale>
<asrwt>0</asrwt>
<pdfrwt beam="2">  1       -2 0.96371277E-01 0.22233146E+03</pdfrwt>
<pdfrwt beam="1">  1       -1 0.59611557E-01 0.97296534E+02</pdfrwt>
<totfact> 0.21096097E+01</totfact>
</mgrwt>
</event>
<event>
 7    1  0.4251803E-004  0.4497535E+02  0.7546771E-02  0.1489832E+00
          2   -1    0    0  503    0  0.00000000000E+00  0.00000000000E+00  0.17641455000E+03  0.17641455000E+03  0.00000000000E+00 0. -1.
         -3   -1    0    0    0  501 -0.00000000000E+00 -0.00000000000E+00 -0.15035453119E+03  0.15035453119E+03  0.00000000000E+00 0.  1.
         25    2    1    2    0    0 -0.18106394494E+01  0.22989619766E+02  0.84982821637E+02  0.15289925880E+03  0.12499720931E+03 0.  0.
          4    1    3    3  502    0  0.48754328063E+01  0.62537273129E+02  0.92797587216E+02  0.11201645178E+03  0.12700000000E+01 0. -1.
         -4    1    3    3    0  502 -0.66860722557E+01 -0.39547653363E+02 -0.78147655789E+01  0.40882807019E+02  0.12700000000E+01 0. -1.
          2    1    1    2  503    0  0.40265262690E+02  0.29164405341E+01  0.44769148984E+02  0.60283278822E+02  0.00000000000E+00 0. -1.
         -3    1    1    2    0  501 -0.38454623240E+02 -0.25906060300E+02 -0.10369195181E+03  0.11358654357E+03  0.00000000000E+00 0.  1.
<mgrwt>
<rscale>  0 0.42610894E+02</rscale>
<asrwt>0</asrwt>
<pdfrwt beam="1">  1        2 0.27140700E-01 0.40370744E+02</pdfrwt>
<pdfrwt beam="2">  1       -3 0.23131466E-01 0.44975347E+02</pdfrwt>
<totfact> 0.17329308E+03</totfact>
</mgrwt>
</event>
<event>
 7    1  0.4251803E-004  0.5115714E+02  0.7546771E-02  0.1564410E+00
          2   -1    0    0  503    0  0.00000000000E+00  0.00000000000E+00  0.88513264058E+03  0.88513264058E+03  0.00000000000E+00 0. -1.
         -1   -1    0    0    0  501 -0.00000000000E+00 -0.00000000000E+00 -0.10041823887E+04  0.10041823887E+04  0.00000000000E+00 0.  1.
         25    2    1    2    0    0 -0.41519353557E+02 -0.47121953857E+02 -0.16453946089E+03  0.21597076874E+03  0.12500321398E+03 0.  0.
          4    1    3    3  502    0 -0.52864288545E+02 -0.72115965932E+02 -0.16589200660E+03  0.18845985328E+03  0.12700000000E+01 0. -1.
         -4    1    3    3    0  502  0.11344934988E+02  0.24994012074E+02  0.13525457098E+01  0.27510915458E+02  0.12700000000E+01 0. -1.
          2    1    1    2  503    0 -0.24602001295E+01  0.21512286392E+02  0.85848480339E+03  0.85875781726E+03  0.00000000000E+00 0. -1.
         -1    1    1    2    0  501  0.43979553687E+02  0.25609667465E+02 -0.81299509066E+03  0.81458644332E+03  0.00000000000E+00 0.  1.
<mgrwt>
<rscale>  0 0.33281832E+02</rscale>
<asrwt>0</asrwt>
<pdfrwt beam="1">  1        2 0.13617425E+00 0.21652507E+02</pdfrwt>
<pdfrwt beam="2">  1       -1 0.15448960E+00 0.51157142E+02</pdfrwt>
<totfact> 0.15716183E+01</totfact>
</mgrwt>
</event>
<event>
 7    1  0.4251803E-004  0.1452572E+03  0.7546771E-02  0.1349610E+00
          1   -1    0    0  503    0 -0.00000000000E+00  0.00000000000E+00  0.51526302667E+03  0.51526302667E+03  0.00000000000E+00 0. -1.
          2   -1    0    0  502    0  0.00000000000E+00 -0.00000000000E+00 -0.18803733865E+04  0.18803733865E+04  0.00000000000E+00 0.  1.
         25    2    1    2    0    0 -0.10340548868E+03 -0.82266448464E+02 -0.10505766416E+03  0.21006602917E+03  0.12502063902E+03 0.  0.
          4    1    3    3  501    0 -0.84652421106E+02 -0.45861492774E+02 -0.13024575035E+03  0.16197184108E+03  0.12700000000E+01 0. -1.
         -4    1    3    3    0  501 -0.18753067574E+02 -0.36404955690E+02  0.25188086189E+02  0.48094188091E+02  0.12700000000E+01 0. -1.
          2    1    1    2  502    0 -0.29913057559E+02  0.21546549467E+02 -0.17110141014E+04  0.17114112014E+04  0.00000000000E+00 0.  1.
          1    1    1    2  503    0  0.13331854624E+03  0.60719898997E+02  0.45096140582E+03  0.47415918260E+03  0.00000000000E+00 0. -1.
<mgrwt>
<rscale>  0 0.73177453E+02</rscale>
<asrwt>0</asrwt>
<pdfrwt beam="2">  1        2 0.28928821E+00 0.36865225E+02</pdfrwt>
<pdfrwt beam="1">  1        1 0.79271234E-01 0.14525721E+03</pdfrwt>
<totfact> 0.63820369E+01</totfact>
</mgrwt>
</event>
<event>
 7    1  0.4251803E-004  0.5670702E+02  0.7546771E-02  0.1494827E+00
         -1   -1    0    0    0  501  0.00000000000E+00  0.00000000000E+00  0.43184336001E+03  0.43184336001E+03  0.00000000000E+00 0.  1.
         -3   -1    0    0    0  502 -0.00000000000E+00 -0.00000000000E+00 -0.67293623988E+03  0.67293623988E+03  0.00000000000E+00 0.  1.
         25    2    1    2    0    0 -0.15435345390E+01  0.32741647975E+02 -0.48937387925E+02  0.13818229927E+03  0.12500032753E+03 0.  0.
          4    1    3    3  503    0 -0.54231254726E+02  0.47249181077E+02 -0.13943007430E+02  0.73277107324E+02  0.12700000000E+01 0.  1.
         -4    1    3    3    0  503  0.52687720187E+02 -0.14507533102E+02 -0.34994380496E+02  0.64905191946E+02  0.12700000000E+01 0.  1.
         -1    1    1    2    0  501  0.22995979066E+02  0.20680323891E+02  0.38516951050E+03  0.38640916484E+03  0.00000000000E+00 0.  1.
         -3    1    1    2    0  502 -0.21452444527E+02 -0.53421971866E+02 -0.57732500244E+03  0.58018813578E+03  0.00000000000E+00 0.  1.
<mgrwt>
<rscale>  0 0.41878259E+02</rscale>
<asrwt>0</asrwt>
<pdfrwt beam="1">  1       -1 0.66437440E-01 0.30927186E+02</pdfrwt>
<pdfrwt beam="2">  1       -3 0.10352865E+00 0.56707020E+02</pdfrwt>
<totfact> 0.93028580E+00</totfact>
</mgrwt>
</event>
<event>
 7    1  0.4251803E-004  0.1141462E+03  0.7546771E-02  0.1412090E+00
          1   -1    0    0  502    0  0.00000000000E+00  0.00000000000E+00  0.20831305598E+03  0.20831305598E+03  0.00000000000E+00 0. -1.
          1   -1    0    0  503    0 -0.00000000000E+00 -0.00000000000E+00 -0.18822217170E+03  0.18822217170E+03  0.00000000000E+00 0. -1.
         25    2    1    2    0    0 -0.79005120719E+02  0.92146900708E+02 -0.47186902939E+02  0.18051300793E+03  0.12500192723E+03 0.  0.
          4    1    3    3  501    0 -0.63482121188E+02  0.11385204896E+03 -0.48484664526E+01  0.13045071594E+03  0.12700000000E+01 0. -1.
         -4    1    3    3    0  501 -0.15522999531E+02 -0.21705148248E+02 -0.42338436486E+02  0.50062291987E+02  0.12700000000E+01 0. -1.
          1    1    1    2  502    0 -0.10029018925E+02 -0.26350653255E+02  0.97310772445E+02  0.10131300302E+03  0.00000000000E+00 0. -1.
          1    1    1    2  503    0  0.89034139644E+02 -0.65796247453E+02 -0.30032985222E+02  0.11470921673E+03  0.00000000000E+00 0. -1.
<mgrwt>
<rscale>  0 0.56730172E+02</rscale>
<asrwt>0</asrwt>
<pdfrwt beam="1">  1        1 0.32048162E-01 0.28194647E+02</pdfrwt>
<pdfrwt beam="2">  1        1 0.28957257E-01 0.11414622E+03</pdfrwt>
<totfact> 0.24839768E+03</totfact>
</mgrwt>
</event>
<event>
 7    1  0.4251803E-004  0.4067915E+02  0.7546771E-02  0.1537811E+00
          1   -1    0    0  503    0 -0.00000000000E+00  0.00000000000E+00  0.32431404590E+02  0.32431404590E+02  0.00000000000E+00 0. -1.
          2   -1    0    0  502    0  0.00000000000E+00 -0.00000000000E+00 -0.21143818254E+04  0.21143818254E+04  0.00000000000E+00 0. -1.
         25    2    1    2    0    0  0.67268234399E+00 -0.41213625458E+02 -0.13298451439E+03  0.18711173620E+03  0.12500762109E+03 0.  0.
          4    1    3    3  501    0 -0.36497736635E+02 -0.33618773807E+02 -0.86312327315E+00  0.49645388643E+02  0.12700000000E+01 0. -1.
         -4    1    3    3    0  501  0.37170418979E+02 -0.75948516518E+01 -0.13212139112E+03  0.13746634755E+03  0.12700000000E+01 0. -1.
          2    1    1    2  502    0  0.29059733023E+02  0.28606223370E+02 -0.19034804702E+04  0.19039171947E+04  0.00000000000E+00 0. -1.
          1    1    1    2  503    0 -0.29732415367E+02  0.12607402089E+02 -0.45485436279E+02  0.55784299085E+02  0.00000000000E+00 0. -1.
<mgrwt>
<rscale>  0 0.36245422E+02</rscale>
<asrwt>0</asrwt>
<pdfrwt beam="2">  1        2 0.32528956E+00 0.40679149E+02</pdfrwt>
<pdfrwt beam="1">  1        1 0.49894461E-02 0.32294939E+02</pdfrwt>
<totfact> 0.14876894E+03</totfact>
</mgrwt>
</event>
<event>
 7    1  0.4251803E-004  0.8011054E+02  0.7546771E-02  0.1400801E+00
         -3   -1    0    0    0  502 -0.00000000000E+00  0.00000000000E+00  0.15421130047E+03  0.15421130047E+03  0.00000000000E+00 0.  1.
         -1   -1    0    0    0  501  0.00000000000E+00 -0.00000000000E+00 -0.21937043766E+03  0.21937043766E+03  0.00000000000E+00 0.  1.
         25    2    1    2    0    0  0.22588518190E+02  0.36207360139E+02 -0.11926904708E+03  0.17795947286E+03  0.12499301703E+03 0.  0.
          4    1    3    3  503    0 -0.91734233139E+01 -0.94524913472E+01 -0.12155917214E+03  0.12227733445E+03  0.12700000000E+01 0.  1.
         -4    1    3    3    0  503  0.31761941504E+02  0.45659851486E+02  0.22901250574E+01  0.55682138416E+02  0.12700000000E+01 0.  1.
         -1    1    1    2    0  501  0.37854612472E+02  0.22216880697E+02 -0.46881651686E+02  0.64221886753E+02  0.00000000000E+00 0.  1.
         -3    1    1    2    0  502 -0.60443130662E+02 -0.58424240836E+02  0.10099156159E+03  0.13140037851E+03  0.00000000000E+00 0.  1.
<mgrwt>
<rscale>  0 0.59298068E+02</rscale>
<asrwt>0</asrwt>
<pdfrwt beam="2">  1       -1 0.33749298E-01 0.43892613E+02</pdfrwt>
<pdfrwt beam="1">  1       -3 0.23724815E-01 0.80110540E+02</pdfrwt>
<totfact> 0.57011982E+02</totfact>
</mgrwt>
</event>
<event>
 7    1  0.4251803E-004  0.5849635E+02  0.7546771E-02  0.1510913E+00
         -1   -1    0    0    0  501 -0.00000000000E+00  0.00000000000E+00  0.52216389104E+03  0.52216389104E+03  0.00000000000E+00 0.  1.
          1   -1    0    0  503    0  0.00000000000E+00 -0.00000000000E+00 -0.11602670914E+04  0.11602670914E+04  0.00000000000E+00 0. -1.
         25    2    1    2    0    0 -0.66834598624E+02 -0.51743826308E+02  0.32103370489E+02  0.15427311666E+03  0.12500112397E+03 0.  0.
          4    1    3    3  502    0 -0.90136694745E+02 -0.75458219928E+02  0.23130210504E+02  0.11981313047E+03  0.12700000000E+01 0. -1.
         -4    1    3    3    0  502  0.23302096121E+02  0.23714393620E+02  0.89731599850E+01  0.34459986194E+02  0.12700000000E+01 0. -1.
          1    1    1    2  503    0  0.21077435589E+02  0.16642075036E+02 -0.10970788992E+04  0.10974075488E+04  0.00000000000E+00 0. -1.
         -1    1    1    2    0  501  0.45757163034E+02  0.35101751272E+02  0.42687232836E+03  0.43075031704E+03  0.00000000000E+00 0.  1.
<mgrwt>
<rscale>  0 0.39635182E+02</rscale>
<asrwt>0</asrwt>
<pdfrwt beam="2">  1        1 0.17850263E+00 0.26855483E+02</pdfrwt>
<pdfrwt beam="1">  1       -1 0.80332906E-01 0.58496348E+02</pdfrwt>
<totfact> 0.25135914E+01</totfact>
</mgrwt>
</event>
<event>
 7    1  0.4251803E-004  0.3635932E+02  0.7546771E-02  0.1572310E+00
         -1   -1    0    0    0  501 -0.00000000000E+00  0.00000000000E+00  0.70557823623E+01  0.70557823623E+01  0.00000000000E+00 0.  1.
          2   -1    0    0  503    0  0.00000000000E+00 -0.00000000000E+00 -0.23683248233E+04  0.23683248233E+04  0.00000000000E+00 0. -1.
         25    2    1    2    0    0  0.35444874200E+02  0.53325769311E+02 -0.95711572971E+03  0.96736368627E+03  0.12498801812E+03 0.  0.
          4    1    3    3  502    0  0.36734120541E+02  0.38238353036E+01 -0.72619023071E+02  0.81480996190E+02  0.12700000000E+01 0.  1.
         -4    1    3    3    0  502 -0.12892463411E+01  0.49501934007E+02 -0.88449670664E+03  0.88588269008E+03  0.12700000000E+01 0.  1.
          2    1    1    2  503    0 -0.20174031448E+02 -0.28680675978E+02 -0.12816467375E+04  0.12821263325E+04  0.00000000000E+00 0. -1.
         -1    1    1    2    0  501 -0.15270842752E+02 -0.24645093333E+02 -0.12250657364E+03  0.12589058682E+03  0.00000000000E+00 0.  1.
<mgrwt>
<rscale>  0 0.32467774E+02</rscale>
<asrwt>0</asrwt>
<pdfrwt beam="2">  1        2 0.36435779E+00 0.36359316E+02</pdfrwt>
<pdfrwt beam="1">  1       -1 0.10855046E-02 0.28992745E+02</pdfrwt>
<totfact> 0.81115859E+03</totfact>
</mgrwt>
</event>
<event>
 7    1  0.4251803E-004  0.7655255E+02  0.7546771E-02  0.1485269E+00
          2   -1    0    0  502    0  0.00000000000E+00  0.00000000000E+00  0.19265734194E+04  0.19265734194E+04  0.00000000000E+00 0.  1.
          3   -1    0    0  503    0 -0.00000000000E+00 -0.00000000000E+00 -0.31271455901E+02  0.31271455901E+02  0.00000000000E+00 0. -1.
         25    2    1    2    0    0  0.10709331188E+02  0.68893648964E+02  0.33188485076E+03  0.36143073308E+03  0.12499438391E+03 0.  0.
          4    1    3    3  501    0  0.44717118405E+02 -0.41112471949E-01  0.22712877282E+03  0.23149236427E+03  0.12700000000E+01 0.  1.
         -4    1    3    3    0  501 -0.34007787216E+02  0.68934761436E+02  0.10475607794E+03  0.12993836882E+03  0.12700000000E+01 0.  1.
          2    1    1    2  502    0 -0.22628835570E+02  0.93565313134E+01  0.14842946838E+04  0.14844966545E+04  0.00000000000E+00 0.  1.
          3    1    1    2  503    0  0.11919504382E+02 -0.78250180277E+02  0.79122428973E+02  0.11191748775E+03  0.00000000000E+00 0. -1.
<mgrwt>
<rscale>  0 0.43295907E+02</rscale>
<asrwt>0</asrwt>
<pdfrwt beam="1">  1        2 0.29639582E+00 0.24486912E+02</pdfrwt>
<pdfrwt beam="2">  1        3 0.48109947E-02 0.76552551E+02</pdfrwt>
<totfact> 0.13853317E+03</totfact>
</mgrwt>
</event>
<event>
 7    1  0.4251803E-004  0.1709470E+03  0.7546771E-02  0.1330957E+00
          2   -1    0    0  503    0  0.00000000000E+00  0.00000000000E+00  0.84985580647E+02  0.84985580647E+02  0.00000000000E+00 0. -1.
         -2   -1    0    0    0  501 -0.00000000000E+00 -0.00000000000E+00 -0.64047060505E+03  0.64047060505E+03  0.00000000000E+00 0.  1.
         25    2    1    2    0    0  0.50944535729E+02  0.16901854244E+03 -0.44922683071E+03  0.49859542505E+03  0.12502015458E+03 0.  0.
          4    1    3    3  502    0  0.76223541290E+02  0.15151656761E+03 -0.28616206959E+03  0.33265243345E+03  0.12700000000E+01 0. -1.
         -4    1    3    3    0  502 -0.25279005561E+02  0.17501974825E+02 -0.16306476111E+03  0.16594299160E+03  0.12700000000E+01 0. -1.
          2    1    1    2  503    0  0.26200578183E+02 -0.25864091450E+02 -0.11126470943E+02  0.38460627651E+02  0.00000000000E+00 0. -1.
         -2    1    1    2    0  501 -0.77145113912E+02 -0.14315445099E+03 -0.95131722754E+02  0.18840013299E+03  0.00000000000E+00 0.  1.
<mgrwt>
<rscale>  0 0.79332170E+02</rscale>
<asrwt>0</asrwt>
<pdfrwt beam="1">  1        2 0.13074705E-01 0.36816050E+02</pdfrwt>
<pdfrwt beam="2">  1       -2 0.98533938E-01 0.17094700E+03</pdfrwt>
<totfact> 0.37312475E+02</totfact>
</mgrwt>
</event>
<event>
 7    1  0.4251803E-004  0.1720480E+03  0.7546771E-02  0.1222935E+00
          2   -1    0    0  503    0  0.00000000000E+00  0.00000000000E+00  0.11752134531E+04  0.11752134531E+04  0.00000000000E+00 0. -1.
         -1   -1    0    0    0  501 -0.00000000000E+00 -0.00000000000E+00 -0.22068617388E+03  0.22068617388E+03  0.00000000000E+00 0.  1.
         25    2    1    2    0    0  0.63850501481E+02  0.60324721263E+02  0.53973037635E+03  0.56093972167E+03  0.12501413385E+03 0.  0.
          4    1    3    3  502    0  0.38239586426E+02  0.98864533645E+02  0.35438325332E+03  0.36989939864E+03  0.12700000000E+01 0. -1.
         -4    1    3    3    0  502  0.25610915056E+02 -0.38539812382E+02  0.18534712303E+03  0.19104032303E+03  0.12700000000E+01 0. -1.
          2    1    1    2  503    0  0.10291319676E+03  0.31334211321E+01  0.58163714588E+03  0.59067987427E+03  0.00000000000E+00 0. -1.
         -1    1    1    2    0  501 -0.16676369824E+03 -0.63458142395E+02 -0.16684024300E+03  0.24428003105E+03  0.00000000000E+00 0.  1.
<mgrwt>
<rscale>  0 0.13309476E+03</rscale>
<asrwt>0</asrwt>
<pdfrwt beam="1">  1        2 0.18080206E+00 0.10296089E+03</pdfrwt>
<pdfrwt beam="2">  1       -1 0.33951720E-01 0.17204800E+03</pdfrwt>
<totfact> 0.20692759E+02</totfact>
</mgrwt>
</event>
<event>
 7    1  0.4251803E-004  0.1330627E+03  0.7546771E-02  0.1255307E+00
          1   -1    0    0  502    0  0.00000000000E+00  0.00000000000E+00  0.48496138412E+03  0.48496138412E+03  0.00000000000E+00 0. -1.
          1   -1    0    0  503    0 -0.00000000000E+00 -0.00000000000E+00 -0.87729986153E+03  0.87729986153E+03  0.00000000000E+00 0. -1.
         25    2    1    2    0    0  0.70459514434E+01  0.51287201923E+02 -0.14484379042E+02  0.13606922928E+03  0.12500006163E+03 0.  0.
          4    1    3    3  501    0  0.48468708200E+02  0.73164048475E+02 -0.30105024788E+01  0.87822945117E+02  0.12700000000E+01 0. -1.
         -4    1    3    3    0  501 -0.41422756757E+02 -0.21876846552E+02 -0.11473876563E+02  0.48246284166E+02  0.12700000000E+01 0. -1.
          1    1    1    2  502    0 -0.41373945660E+02  0.86381163444E+02  0.41236214563E+03  0.42333916417E+03  0.00000000000E+00 0. -1.
          1    1    1    2  503    0  0.34327994216E+02 -0.13766836537E+03 -0.79021624399E+03  0.80285285220E+03  0.00000000000E+00 0. -1.
<mgrwt>
<rscale>  0 0.11289169E+03</rscale>
<asrwt>0</asrwt>
<pdfrwt beam="1">  1        1 0.74609443E-01 0.95778436E+02</pdfrwt>
<pdfrwt beam="2">  1        1 0.13496921E+00 0.13306267E+03</pdfrwt>
<totfact> 0.12001621E+02</totfact>
</mgrwt>
</event>
<event>
 7    1  0.4251803E-004  0.1206930E+03  0.7546771E-02  0.1320968E+00
         -2   -1    0    0    0  501  0.00000000000E+00  0.00000000000E+00  0.67203962275E+03  0.67203962275E+03  0.00000000000E+00 0. -1.
         -1   -1    0    0    0  502 -0.00000000000E+00 -0.00000000000E+00 -0.10588074092E+04  0.10588074092E+04  0.00000000000E+00 0.  1.
         25    2    1    2    0    0  0.42275172719E+02 -0.54461851899E+02 -0.48818447347E+03  0.50862497733E+03  0.12498801495E+03 0.  0.
          4    1    3    3  503    0 -0.27188127371E+02 -0.49715879739E+02 -0.34243789801E+03  0.34709680186E+03  0.12700000000E+01 0.  1.
         -4    1    3    3    0  503  0.69463300089E+02 -0.47459721600E+01 -0.14574657546E+03  0.16152817547E+03  0.12700000000E+01 0.  1.
         -2    1    1    2    0  501 -0.48773500057E+02  0.11105620699E+03  0.65478731120E+03  0.66592699174E+03  0.00000000000E+00 0. -1.
         -1    1    1    2    0  502  0.64983273382E+01 -0.56594355087E+02 -0.55337062417E+03  0.55629506288E+03  0.00000000000E+00 0.  1.
<mgrwt>
<rscale>  0 0.82918172E+02</rscale>
<asrwt>0</asrwt>
<pdfrwt beam="1">  1       -2 0.10339071E+00 0.12069300E+03</pdfrwt>
<pdfrwt beam="2">  1       -1 0.16289345E+00 0.56966212E+02</pdfrwt>
<totfact> 0.20707321E+00</totfact>
</mgrwt>
</event>
<event>
 7    1  0.4251803E-004  0.5406948E+02  0.7546771E-02  0.1444040E+00
          2   -1    0    0  503    0  0.00000000000E+00  0.00000000000E+00  0.53224212498E+02  0.53224212498E+02  0.00000000000E+00 0. -1.
          2   -1    0    0  502    0 -0.00000000000E+00 -0.00000000000E+00 -0.15218637059E+04  0.15218637059E+04  0.00000000000E+00 0. -1.
         25    2    1    2    0    0 -0.56417542548E+02 -0.42520892152E+02 -0.36431501559E+03  0.39158798284E+03  0.12499900939E+03 0.  0.
          4    1    3    3  501    0  0.33843101876E+01 -0.33526323291E+02 -0.14711100183E+02  0.36789907277E+02  0.12700000000E+01 0.  1.
         -4    1    3    3    0  501 -0.59801852736E+02 -0.89945688619E+01 -0.34960391540E+03  0.35479807557E+03  0.12700000000E+01 0.  1.
          2    1    1    2  502    0  0.24992739570E+01  0.46618805470E+02 -0.11247341393E+04  0.11257026444E+04  0.00000000000E+00 0. -1.
          2    1    1    2  503    0  0.53918268591E+02 -0.40979133180E+01  0.20409661530E+02  0.57797291158E+02  0.00000000000E+00 0. -1.
<mgrwt>
<rscale>  0 0.50242156E+02</rscale>
<asrwt>0</asrwt>
<pdfrwt beam="1">  1        2 0.81883405E-02 0.54069480E+02</pdfrwt>
<pdfrwt beam="2">  1        2 0.23413288E+00 0.46685752E+02</pdfrwt>
<totfact> 0.17521701E+03</totfact>
</mgrwt>
</event>
<event>
 7    1  0.4251803E-004  0.7208008E+02  0.7546771E-02  0.1462755E+00
         -1   -1    0    0    0  501 -0.00000000000E+00  0.00000000000E+00  0.76406592936E+01  0.76406592936E+01  0.00000000000E+00 0.  1.
          2   -1    0    0  503    0  0.00000000000E+00 -0.00000000000E+00 -0.40463718726E+04  0.40463718726E+04  0.00000000000E+00 0. -1.
         25    2    1    2    0    0 -0.25585796182E+02  0.66825462855E+02 -0.76326780489E+03  0.77673980130E+03  0.12500680578E+03 0.  0.
          4    1    3    3  502    0 -0.50789388540E+02  0.49078776056E+02 -0.72077754783E+03  0.72423074680E+03  0.12700000000E+01 0.  1.
         -4    1    3    3    0  502  0.25203592358E+02  0.17746686799E+02 -0.42490257060E+02  0.52509054507E+02  0.12700000000E+01 0.  1.
          2    1    1    2  503    0 -0.44283485736E+01 -0.72413417751E+02 -0.27231025742E+04  0.27240688212E+04  0.00000000000E+00 0. -1.
         -1    1    1    2    0  501  0.30014144756E+02  0.55879548956E+01 -0.55236083429E+03  0.55320390941E+03  0.00000000000E+00 0.  1.
<mgrwt>
<rscale>  0 0.46910520E+02</rscale>
<asrwt>0</asrwt>
<pdfrwt beam="2">  1        2 0.62251968E+00 0.72080083E+02</pdfrwt>
<pdfrwt beam="1">  1       -1 0.11754843E-02 0.30529889E+02</pdfrwt>
<totfact> 0.65395682E+02</totfact>
</mgrwt>
</event>
<event>
 7    1  0.4251803E-004  0.1026395E+03  0.7546771E-02  0.1391815E+00
          1   -1    0    0  503    0 -0.00000000000E+00  0.00000000000E+00  0.27424371061E+02  0.27424371061E+02  0.00000000000E+00 0. -1.
          2   -1    0    0  502    0  0.00000000000E+00 -0.00000000000E+00 -0.12904309465E+04  0.12904309465E+04  0.00000000000E+00 0.  1.
         25    2    1    2    0    0  0.74811844680E+02  0.29464195108E+02 -0.75177030223E+03  0.76632279176E+03  0.12500833153E+03 0.  0.
          4    1    3    3  501    0  0.26193840116E+02  0.14751255553E+02 -0.66565437958E+03  0.66633406243E+03  0.12700000000E+01 0.  1.
         -4    1    3    3    0  501  0.48618004564E+02  0.14712939555E+02 -0.86115922648E+02  0.99988729323E+02  0.12700000000E+01 0.  1.
          2    1    1    2  502    0  0.11220373338E+02  0.35046786849E+02 -0.38040482899E+03  0.38218059601E+03  0.00000000000E+00 0.  1.
          1    1    1    2  503    0 -0.86032218017E+02 -0.64510981958E+02 -0.13083144422E+03  0.16935192980E+03  0.00000000000E+00 0. -1.
<mgrwt>
<rscale>  0 0.61457647E+02</rscale>
<asrwt>0</asrwt>
<pdfrwt beam="2">  1        2 0.19852784E+00 0.36799104E+02</pdfrwt>
<pdfrwt beam="1">  1        1 0.42191341E-02 0.10263952E+03</pdfrwt>
<totfact> 0.53498559E+03</totfact>
</mgrwt>
</event>
<event>
 7    1  0.4251803E-004  0.1045234E+03  0.7546771E-02  0.1276012E+00
          2   -1    0    0  502    0  0.00000000000E+00  0.00000000000E+00  0.13236473963E+04  0.13236473963E+04  0.00000000000E+00 0.  1.
          2   -1    0    0  503    0 -0.00000000000E+00 -0.00000000000E+00 -0.50403927165E+02  0.50403927165E+02  0.00000000000E+00 0. -1.
         25    2    1    2    0    0  0.16809545328E+02  0.54212103204E+02  0.39371181310E+03  0.41695872480E+03  0.12499629379E+03 0.  0.
          4    1    3    3  501    0  0.31384061189E+02 -0.73851319428E+01  0.20087048826E+02  0.38007918926E+02  0.12700000000E+01 0. -1.
         -4    1    3    3    0  501 -0.14574515861E+02  0.61597235147E+02  0.37362476428E+03  0.37895080587E+03  0.12700000000E+01 0. -1.
          2    1    1    2  502    0 -0.89298857742E+02  0.44258764190E+02  0.81064376545E+03  0.81674747546E+03  0.00000000000E+00 0.  1.
          2    1    1    2  503    0  0.72489312414E+02 -0.98470867393E+02  0.68887890579E+02  0.14034512321E+03  0.00000000000E+00 0. -1.
<mgrwt>
<rscale>  0 0.10206532E+03</rscale>
<asrwt>0</asrwt>
<pdfrwt beam="1">  1        2 0.20363803E+00 0.99665060E+02</pdfrwt>
<pdfrwt beam="2">  1        2 0.77544513E-02 0.10452339E+03</pdfrwt>
<totfact> 0.23402337E+03</totfact>
</mgrwt>
</event>
<event>
 7    1  0.4251803E-004  0.8012510E+02  0.7546771E-02  0.1438283E+00
          3   -1    0    0  503    0 -0.00000000000E+00  0.00000000000E+00  0.15055083488E+03  0.15055083488E+03  0.00000000000E+00 0. -1.
          2   -1    0    0  502    0  0.00000000000E+00 -0.00000000000E+00 -0.92918051024E+03  0.92918051024E+03  0.00000000000E+00 0. -1.
         25    2    1    2    0    0 -0.96404178190E+02  0.56349014910E+02 -0.60634770494E+03  0.62908905266E+03  0.12500607917E+03 0.  0.
          4    1    3    3  501    0 -0.11535887713E+03  0.74854613314E+02 -0.45125745181E+03  0.47174758546E+03  0.12700000000E+01 0. -1.
         -4    1    3    3    0  501  0.18954698945E+02 -0.18505598404E+02 -0.15509025313E+03  0.15734146720E+03  0.12700000000E+01 0. -1.
          2    1    1    2  502    0  0.24912982396E+02 -0.21468066924E+02 -0.29912087027E+03  0.30092329525E+03  0.00000000000E+00 0. -1.
          3    1    1    2  503    0  0.71491195794E+02 -0.34880947986E+02  0.12683889986E+03  0.14971899722E+03  0.00000000000E+00 0. -1.
<mgrwt>
<rscale>  0 0.51332734E+02</rscale>
<asrwt>0</asrwt>
<pdfrwt beam="2">  1        2 0.14295085E+00 0.32886693E+02</pdfrwt>
<pdfrwt beam="1">  1        3 0.23161667E-01 0.80125099E+02</pdfrwt>
<totfact> 0.31860341E+02</totfact>
</mgrwt>
</event>
<event>
 7    1  0.4251803E-004  0.1616136E+03  0.7546771E-02  0.1361652E+00
          1   -1    0    0  503    0  0.00000000000E+00  0.00000000000E+00  0.75888417607E+03  0.75888417607E+03  0.00000000000E+00 0. -1.
         -2   -1    0    0    0  501 -0.00000000000E+00 -0.00000000000E+00 -0.37200484928E+03  0.37200484928E+03  0.00000000000E+00 0.  1.
         25    2    1    2    0    0  0.64873840198E+02 -0.17908246682E+03 -0.27424743686E+03  0.35653567428E+03  0.12500754118E+03 0.  0.
          4    1    3    3  502    0 -0.37453946470E+02 -0.48424266389E+02 -0.62470609864E+02  0.87475126054E+02  0.12700000000E+01 0. -1.
         -4    1    3    3    0  502  0.10232778667E+03 -0.13065820043E+03 -0.21177682699E+03  0.26906054823E+03  0.12700000000E+01 0. -1.
          1    1    1    2  503    0 -0.58016840232E+02  0.14995343286E+03  0.70396756606E+03  0.72209578301E+03  0.00000000000E+00 0. -1.
         -2    1    1    2    0  501 -0.68569999655E+01  0.29129033955E+02 -0.42840802417E+02  0.52257568059E+02  0.00000000000E+00 0.  1.
<mgrwt>
<rscale>  0 0.69543684E+02</rscale>
<asrwt>0</asrwt>
<pdfrwt beam="1">  1        1 0.11675141E+00 0.16161363E+03</pdfrwt>
<pdfrwt beam="2">  1       -2 0.57231515E-01 0.29925225E+02</pdfrwt>
<totfact> 0.66843770E+01</totfact>
</mgrwt>
</event>
<event>
 7    1  0.4251803E-004  0.2443604E+03  0.7546771E-02  0.1258926E+00
          2   -1    0    0  503    0  0.00000000000E+00  0.00000000000E+00  0.73647637577E+03  0.73647637577E+03  0.00000000000E+00 0.  1.
          2   -1    0    0  502    0 -0.00000000000E+00 -0.00000000000E+00 -0.21695831172E+04  0.21695831172E+04  0.00000000000E+00 0. -1.
         25    2    1    2    0    0  0.27668139417E+03 -0.87186436978E+02 -0.13664654859E+03  0.34416600695E+03  0.12499556963E+03 0.  0.
          4    1    3    3  501    0  0.25144243067E+03 -0.52273753798E+02 -0.72452674421E+02  0.26684610585E+03  0.12700000000E+01 0. -1.
         -4    1    3    3    0  501  0.25238963499E+02 -0.34912683180E+02 -0.64193874169E+02  0.77319901100E+02  0.12700000000E+01 0. -1.
          2    1    1    2  502    0 -0.49194579374E+02  0.10601997887E+02 -0.19060676793E+04  0.19067318917E+04  0.00000000000E+00 0. -1.
          2    1    1    2  503    0 -0.22748681479E+03  0.76584439091E+02  0.60960748639E+03  0.65516159433E+03  0.00000000000E+00 0.  1.
<mgrwt>
<rscale>  0 0.11089275E+03</rscale>
<asrwt>0</asrwt>
<pdfrwt beam="1">  1        2 0.11330406E+00 0.24436037E+03</pdfrwt>
<pdfrwt beam="2">  1        2 0.33378201E+00 0.50324040E+02</pdfrwt>
<totfact> 0.45462105E+01</totfact>
</mgrwt>
</event>
<event>
 7    1  0.4251803E-004  0.1828391E+03  0.7546771E-02  0.1333985E+00
          1   -1    0    0  503    0  0.00000000000E+00  0.00000000000E+00  0.20890315517E+04  0.20890315517E+04  0.00000000000E+00 0. -1.
         -2   -1    0    0    0  501 -0.00000000000E+00 -0.00000000000E+00 -0.10595018207E+03  0.10595018207E+03  0.00000000000E+00 0.  1.
         25    2    1    2    0    0 -0.53304604643E+02  0.20729646812E+03  0.16760537467E+04  0.16942829365E+04  0.12500120102E+03 0.  0.
          4    1    3    3  502    0  0.27888557196E+02  0.36644482704E+01  0.22704828447E+03  0.22878753503E+03  0.12700000000E+01 0. -1.
         -4    1    3    3    0  502 -0.81193161840E+02  0.20363201985E+03  0.14490054623E+04  0.14654954014E+04  0.12700000000E+01 0. -1.
          1    1    1    2  503    0  0.14436159047E+02 -0.30252220067E+02  0.31737767471E+03  0.31914289575E+03  0.00000000000E+00 0. -1.
         -2    1    1    2    0  501  0.38868445597E+02 -0.17704424805E+03 -0.10350051776E+02  0.18155590160E+03  0.00000000000E+00 0.  1.
<mgrwt>
<rscale>  0 0.78286599E+02</rscale>
<asrwt>0</asrwt>
<pdfrwt beam="1">  1        1 0.32138944E+00 0.33520136E+02</pdfrwt>
<pdfrwt beam="2">  1       -2 0.16300030E-01 0.18283910E+03</pdfrwt>
<totfact> 0.10039959E+02</totfact>
</mgrwt>
</event>
<event>
 7    1  0.4251803E-004  0.6044334E+02  0.7546771E-02  0.1488239E+00
          1   -1    0    0  503    0  0.00000000000E+00  0.00000000000E+00  0.23641995103E+04  0.23641995103E+04  0.00000000000E+00 0. -1.
         -2   -1    0    0    0  501 -0.00000000000E+00 -0.00000000000E+00 -0.13036659310E+03  0.13036659310E+03  0.00000000000E+00 0.  1.
         25    2    1    2    0    0 -0.28234570929E+02 -0.14421994747E+02  0.51621227665E+03  0.53207541852E+03  0.12499580594E+03 0.  0.
          4    1    3    3  502    0  0.30245642185E+02 -0.48072497775E+02  0.30815572946E+03  0.31334857653E+03  0.12700000000E+01 0.  1.
         -4    1    3    3    0  502 -0.58480213114E+02  0.33650503029E+02  0.20805654719E+03  0.21872684199E+03  0.12700000000E+01 0.  1.
          1    1    1    2  503    0 -0.30287187791E+02 -0.23112472335E+01  0.18323571782E+04  0.18326089283E+04  0.00000000000E+00 0. -1.
         -2    1    1    2    0  501  0.58521758720E+02  0.16733241980E+02 -0.11473653762E+03  0.12988175660E+03  0.00000000000E+00 0.  1.
<mgrwt>
<rscale>  0 0.42848352E+02</rscale>
<asrwt>0</asrwt>
<pdfrwt beam="1">  1        1 0.36372297E+00 0.30375247E+02</pdfrwt>
<pdfrwt beam="2">  1       -2 0.20056401E-01 0.60443338E+02</pdfrwt>
<totfact> 0.46998486E+01</totfact>
</mgrwt>
</event>
<event>
 7    1  0.4251803E-004  0.3675664E+02  0.7546771E-02  0.1585941E+00
         -1   -1    0    0    0  501 -0.00000000000E+00  0.00000000000E+00  0.26069708268E+02  0.26069708268E+02  0.00000000000E+00 0.  1.
          2   -1    0    0  503    0  0.00000000000E+00 -0.00000000000E+00 -0.47457245444E+03  0.47457245444E+03  0.00000000000E+00 0. -1.
         25    2    1    2    0    0 -0.45047569381E+02 -0.15894434393E+02 -0.31429419434E+03  0.34159267163E+03  0.12499118433E+03 0.  0.
          4    1    3    3  502    0 -0.83135913115E+02 -0.36039927119E+02 -0.21848484785E+03  0.23653265744E+03  0.12700000000E+01 0. -1.
         -4    1    3    3    0  502  0.38088343733E+02  0.20145492726E+02 -0.95809346496E+02  0.10506001419E+03  0.12700000000E+01 0. -1.
          2    1    1    2  503    0  0.21872509843E+02  0.28458908814E+02 -0.12663176340E+03  0.13162036195E+03  0.00000000000E+00 0. -1.
         -1    1    1    2    0  501  0.23175059538E+02 -0.12564474421E+02 -0.75767884314E+01  0.27429129133E+02  0.00000000000E+00 0.  1.
<mgrwt>
<rscale>  0 0.31128355E+02</rscale>
<asrwt>0</asrwt>
<pdfrwt beam="2">  1        2 0.73011157E-01 0.36756636E+02</pdfrwt>
<pdfrwt beam="1">  1       -1 0.40107238E-02 0.26361893E+02</pdfrwt>
<totfact> 0.14475460E+04</totfact>
</mgrwt>
</event>
<event>
 7    1  0.4251803E-004  0.9559286E+02  0.7546771E-02  0.1315072E+00
          3   -1    0    0  503    0 -0.00000000000E+00  0.00000000000E+00  0.69140788371E+03  0.69140788371E+03  0.00000000000E+00 0. -1.
          1   -1    0    0  502    0  0.00000000000E+00 -0.00000000000E+00 -0.10132460551E+04  0.10132460551E+04  0.00000000000E+00 0. -1.
         25    2    1    2    0    0  0.15624577742E+02  0.30391950800E+02  0.12316957265E+03  0.17878533185E+03  0.12500261260E+03 0.  0.
          4    1    3    3  501    0  0.49483215474E+02  0.73896798701E+01  0.12810684048E+03  0.13753607331E+03  0.12700000000E+01 0. -1.
         -4    1    3    3    0  501 -0.33858637731E+02  0.23002270930E+02 -0.49372678328E+01  0.41249258546E+02  0.12700000000E+01 0. -1.
          1    1    1    2  502    0  0.29584167667E+01  0.75768887958E+02 -0.97858363362E+03  0.98151699149E+03  0.00000000000E+00 0. -1.
          3    1    1    2  503    0 -0.18582994509E+02 -0.10616083876E+03  0.53357588956E+03  0.54435161549E+03  0.00000000000E+00 0. -1.
<mgrwt>
<rscale>  0 0.85138027E+02</rscale>
<asrwt>0</asrwt>
<pdfrwt beam="2">  1        1 0.15588401E+00 0.75826622E+02</pdfrwt>
<pdfrwt beam="1">  1        3 0.10637044E+00 0.95592860E+02</pdfrwt>
<totfact> 0.72130114E+00</totfact>
</mgrwt>
</event>
<event>
 7    1  0.4251803E-004  0.9362827E+02  0.7546771E-02  0.1333962E+00
          1   -1    0    0  503    0  0.00000000000E+00  0.00000000000E+00  0.98515323296E+03  0.98515323296E+03  0.00000000000E+00 0. -1.
         -1   -1    0    0    0  501 -0.00000000000E+00 -0.00000000000E+00 -0.15221773713E+03  0.15221773713E+03  0.00000000000E+00 0.  1.
         25    2    1    2    0    0  0.12942008543E+03  0.49455518173E+02  0.38450370629E+03  0.42740826071E+03  0.12505724441E+03 0.  0.
          4    1    3    3  502    0  0.10232679357E+03 -0.26724455428E+02  0.21575315982E+03  0.24028318309E+03  0.12700000000E+01 0. -1.
         -4    1    3    3    0  502  0.27093291863E+02  0.76179973602E+02  0.16875054647E+03  0.18712507763E+03  0.12700000000E+01 0. -1.
          1    1    1    2  503    0 -0.37275928840E+02 -0.53824969717E+02  0.56078337630E+03  0.56459243474E+03  0.00000000000E+00 0. -1.
         -1    1    1    2    0  501 -0.92144156592E+02  0.43694515444E+01 -0.11235158676E+03  0.14537027464E+03  0.00000000000E+00 0.  1.
<mgrwt>
<rscale>  0 0.78294690E+02</rscale>
<asrwt>0</asrwt>
<pdfrwt beam="1">  1        1 0.15156203E+00 0.65472301E+02</pdfrwt>
<pdfrwt beam="2">  1       -1 0.23418114E-01 0.93628273E+02</pdfrwt>
<totfact> 0.27343599E+02</totfact>
</mgrwt>
</event>
<event>
 7    1  0.4251803E-004  0.6294893E+02  0.7546771E-02  0.1445631E+00
         -2   -1    0    0    0  501  0.00000000000E+00  0.00000000000E+00  0.12877063938E+03  0.12877063938E+03  0.00000000000E+00 0.  1.
         -1   -1    0    0    0  502 -0.00000000000E+00 -0.00000000000E+00 -0.18552836634E+03  0.18552836634E+03  0.00000000000E+00 0.  1.
         25    2    1    2    0    0 -0.24408774270E+02 -0.46662930083E+02 -0.34374302460E+02  0.13993495286E+03  0.12500792397E+03 0.  0.
          4    1    3    3  503    0 -0.70280370177E+02 -0.23068065437E+02 -0.45901454316E+02  0.87063324561E+02  0.12700000000E+01 0. -1.
         -4    1    3    3    0  503  0.45871595906E+02 -0.23594864647E+02  0.11527151856E+02  0.52871628296E+02  0.12700000000E+01 0. -1.
         -2    1    1    2    0  501 -0.35926713024E+02  0.16726805306E+02  0.57526096353E+02  0.69855325395E+02  0.00000000000E+00 0.  1.
         -1    1    1    2    0  502  0.60335487294E+02  0.29936124778E+02 -0.79909520854E+02  0.10450872747E+03  0.00000000000E+00 0.  1.
<mgrwt>
<rscale>  0 0.49946458E+02</rscale>
<asrwt>0</asrwt>
<pdfrwt beam="1">  1       -2 0.19810868E-01 0.39629720E+02</pdfrwt>
<pdfrwt beam="2">  1       -1 0.28542826E-01 0.62948935E+02</pdfrwt>
<totfact> 0.15837672E+03</totfact>
</mgrwt>
</event>
<event>
 7    1  0.4251803E-004  0.1531890E+03  0.7546771E-02  0.1305887E+00
          2   -1    0    0  502    0  0.00000000000E+00  0.00000000000E+00  0.12868384914E+04  0.12868384914E+04  0.00000000000E+00 0. -1.
          2   -1    0    0  503    0 -0.00000000000E+00 -0.00000000000E+00 -0.90804460119E+03  0.90804460119E+03  0.00000000000E+00 0. -1.
         25    2    1    2    0    0 -0.18927456882E+03  0.38044848166E+02 -0.30885589214E+03  0.38508330947E+03  0.12499968097E+03 0.  0.
          4    1    3    3  501    0 -0.99205514024E+02  0.61269775757E+02 -0.24765073957E+03  0.27373019772E+03  0.12700000000E+01 0. -1.
         -4    1    3    3    0  501 -0.90069054800E+02 -0.23224927591E+02 -0.61205152572E+02  0.11135311175E+03  0.12700000000E+01 0. -1.
          2    1    1    2  502    0  0.46486182735E+02 -0.21993962828E+02  0.12389832415E+04  0.12400500685E+04  0.00000000000E+00 0. -1.
          2    1    1    2  503    0  0.14278838609E+03 -0.16050885337E+02 -0.55133345917E+03  0.56974971463E+03  0.00000000000E+00 0. -1.
<mgrwt>
<rscale>  0 0.88758074E+02</rscale>
<asrwt>0</asrwt>
<pdfrwt beam="1">  1        2 0.19797515E+00 0.51426643E+02</pdfrwt>
<pdfrwt beam="2">  1        2 0.13969917E+00 0.15318900E+03</pdfrwt>
<totfact> 0.96239704E+01</totfact>
</mgrwt>
</event>
<event>
 7    1  0.4251803E-004  0.5184710E+02  0.7546771E-02  0.1497021E+00
          2   -1    0    0  502    0  0.00000000000E+00  0.00000000000E+00  0.35570749117E+02  0.35570749117E+02  0.00000000000E+00 0. -1.
          2   -1    0    0  503    0 -0.00000000000E+00 -0.00000000000E+00 -0.51508003967E+03  0.51508003967E+03  0.00000000000E+00 0.  1.
         25    2    1    2    0    0  0.10320317917E+02 -0.20438006649E+02 -0.16612809027E+03  0.20915898657E+03  0.12499887283E+03 0.  0.
          4    1    3    3  501    0  0.34921196771E+02 -0.33875365888E+01  0.49697324186E+01  0.35458095386E+02  0.12700000000E+01 0.  1.
         -4    1    3    3    0  501 -0.24600878855E+02 -0.17050470061E+02 -0.17109782269E+03  0.17370089119E+03  0.12700000000E+01 0.  1.
          2    1    1    2  502    0  0.24704769083E+02 -0.22354273821E+02 -0.12521814173E+02  0.35592625693E+02  0.00000000000E+00 0. -1.
          2    1    1    2  503    0 -0.35025087000E+02  0.42792280471E+02 -0.30085938611E+03  0.30589917652E+03  0.00000000000E+00 0.  1.
<mgrwt>
<rscale>  0 0.41562035E+02</rscale>
<asrwt>0</asrwt>
<pdfrwt beam="1">  1        2 0.54724229E-02 0.33317250E+02</pdfrwt>
<pdfrwt beam="2">  1        2 0.79243084E-01 0.51847097E+02</pdfrwt>
<totfact> 0.10965362E+04</totfact>
</mgrwt>
</event>
<event>
 7    1  0.4251803E-004  0.9307307E+02  0.7546771E-02  0.1335565E+00
          2   -1    0    0  502    0  0.00000000000E+00  0.00000000000E+00  0.15824766525E+04  0.15824766525E+04  0.00000000000E+00 0. -1.
          1   -1    0    0  503    0 -0.00000000000E+00 -0.00000000000E+00 -0.71099392010E+02  0.71099392010E+02  0.00000000000E+00 0. -1.
         25    2    1    2    0    0 -0.69153426296E+01  0.45034475479E+02  0.26629160975E+03  0.29767819173E+03  0.12500063386E+03 0.  0.
          4    1    3    3  501    0 -0.29671828830E+02  0.82458642602E+02  0.19809833726E+03  0.21662042676E+03  0.12700000000E+01 0. -1.
         -4    1    3    3    0  501  0.22756486200E+02 -0.37424167123E+02  0.68193272491E+02  0.81057764971E+02  0.12700000000E+01 0. -1.
          2    1    1    2  502    0  0.39602760891E+02  0.51475445723E+02  0.12520795991E+04  0.12537629053E+04  0.00000000000E+00 0. -1.
          1    1    1    2  503    0 -0.32687418261E+02 -0.96509921202E+02 -0.69939482806E+01  0.10213494757E+03  0.00000000000E+00 0. -1.
<mgrwt>
<rscale>  0 0.77748362E+02</rscale>
<asrwt>0</asrwt>
<pdfrwt beam="1">  1        2 0.24345792E+00 0.64946903E+02</pdfrwt>
<pdfrwt beam="2">  1        1 0.10938369E-01 0.93073073E+02</pdfrwt>
<totfact> 0.10134364E+03</totfact>
</mgrwt>
</event>
<event>
 7    1  0.4251803E-004  0.6512780E+02  0.7546771E-02  0.1403069E+00
          2   -1    0    0  502    0  0.00000000000E+00  0.00000000000E+00  0.16468539462E+04  0.16468539462E+04  0.00000000000E+00 0. -1.
          1   -1    0    0  503    0 -0.00000000000E+00 -0.00000000000E+00 -0.30210366929E+03  0.30210366929E+03  0.00000000000E+00 0. -1.
         25    2    1    2    0    0 -0.23031725849E+02  0.10833203036E+03  0.13862600645E+04  0.13962844793E+04  0.12500836510E+03 0.  0.
          4    1    3    3  501    0 -0.42817713466E+02  0.12205573951E+03  0.13083319390E+04  0.13147110085E+04  0.12700000000E+01 0. -1.
         -4    1    3    3    0  501  0.19785987618E+02 -0.13723709152E+02  0.77928125470E+02  0.81573470799E+02  0.12700000000E+01 0. -1.
          2    1    1    2  502    0  0.30061076363E+02 -0.43688821359E+02  0.24919981228E+03  0.25478015595E+03  0.00000000000E+00 0. -1.
          1    1    1    2  503    0 -0.70293505145E+01 -0.64643209001E+02 -0.29070959988E+03  0.29789298028E+03  0.00000000000E+00 0. -1.
<mgrwt>
<rscale>  0 0.58769470E+02</rscale>
<asrwt>0</asrwt>
<pdfrwt beam="1">  1        2 0.25336214E+00 0.53031891E+02</pdfrwt>
<pdfrwt beam="2">  1        1 0.46477489E-01 0.65127804E+02</pdfrwt>
<totfact> 0.15672299E+02</totfact>
</mgrwt>
</event>
<event>
 7    1  0.4251803E-004  0.9625176E+02  0.7546771E-02  0.1422928E+00
          2   -1    0    0  503    0  0.00000000000E+00  0.00000000000E+00  0.19448398418E+04  0.19448398418E+04  0.00000000000E+00 0. -1.
         -1   -1    0    0    0  501 -0.00000000000E+00 -0.00000000000E+00 -0.55358794279E+02  0.55358794279E+02  0.00000000000E+00 0.  1.
         25    2    1    2    0    0 -0.71802135906E+02 -0.47383757703E+02  0.55429142742E+03  0.57468285624E+03  0.12498252491E+03 0.  0.
          4    1    3    3  502    0  0.46841445468E+01 -0.71129243775E+02  0.28017915197E+03  0.28910773187E+03  0.12700000000E+01 0.  1.
         -4    1    3    3    0  502 -0.76486280453E+02  0.23745486072E+02  0.27411227545E+03  0.28557512437E+03  0.12700000000E+01 0.  1.
          2    1    1    2  503    0  0.94852904600E+02  0.27026787804E+02  0.13731353879E+04  0.13766729148E+04  0.00000000000E+00 0. -1.
         -1    1    1    2    0  501 -0.23050768694E+02  0.20356969899E+02 -0.37945767872E+02  0.48842864988E+02  0.00000000000E+00 0.  1.
<mgrwt>
<rscale>  0 0.54406121E+02</rscale>
<asrwt>0</asrwt>
<pdfrwt beam="1">  1        2 0.29920608E+00 0.96251762E+02</pdfrwt>
<pdfrwt beam="2">  1       -1 0.85167391E-02 0.30752954E+02</pdfrwt>
<totfact> 0.66621014E+02</totfact>
</mgrwt>
</event>
<event>
 7    1  0.4251803E-004  0.9079371E+02  0.7546771E-02  0.1475505E+00
         -1   -1    0    0    0  501 -0.00000000000E+00  0.00000000000E+00  0.17771169485E+02  0.17771169485E+02  0.00000000000E+00 0.  1.
          2   -1    0    0  503    0  0.00000000000E+00 -0.00000000000E+00 -0.12309609512E+04  0.12309609512E+04  0.00000000000E+00 0. -1.
         25    2    1    2    0    0 -0.82552401322E+01  0.10542064664E+03 -0.62550773668E+03  0.64657857047E+03  0.12498902915E+03 0.  0.
          4    1    3    3  502    0 -0.32039339466E+02  0.29685396909E+01 -0.38362853514E+02  0.50086454567E+02  0.12700000000E+01 0.  1.
         -4    1    3    3    0  502  0.23784099333E+02  0.10245210695E+03 -0.58714488317E+03  0.59649211590E+03  0.12700000000E+01 0.  1.
          2    1    1    2  503    0 -0.27157213370E+01 -0.86213670326E+02 -0.56054960860E+03  0.56714727876E+03  0.00000000000E+00 0. -1.
         -1    1    1    2    0  501  0.10970961469E+02 -0.19206976311E+02 -0.27132436382E+02  0.35006271417E+02  0.00000000000E+00 0.  1.
<mgrwt>
<rscale>  0 0.44814134E+02</rscale>
<asrwt>0</asrwt>
<pdfrwt beam="2">  1        2 0.18937866E+00 0.90793709E+02</pdfrwt>
<pdfrwt beam="1">  1       -1 0.27340254E-02 0.22119447E+02</pdfrwt>
<totfact> 0.73101093E+03</totfact>
</mgrwt>
</event>
<event>
 7    1  0.4251803E-004  0.6315655E+02  0.7546771E-02  0.1421385E+00
         -3   -1    0    0    0  501 -0.00000000000E+00  0.00000000000E+00  0.18219897469E+03  0.18219897469E+03  0.00000000000E+00 0.  1.
          3   -1    0    0  503    0  0.00000000000E+00 -0.00000000000E+00 -0.62783615524E+03  0.62783615524E+03  0.00000000000E+00 0. -1.
         25    2    1    2    0    0  0.81559014890E+02  0.19208893110E+02 -0.56880654179E+02  0.16094507139E+03  0.12508817970E+03 0.  0.
          4    1    3    3  502    0  0.78654780503E+02  0.13360104632E+02 -0.93962877231E+02  0.12327084850E+03  0.12700000000E+01 0.  1.
         -4    1    3    3    0  502  0.29042343871E+01  0.58487884775E+01  0.37082223052E+02  0.37674222892E+02  0.12700000000E+01 0.  1.
          3    1    1    2  503    0 -0.58783770532E+02  0.22390399686E+02 -0.51261613597E+03  0.51646119364E+03  0.00000000000E+00 0. -1.
         -3    1    1    2    0  501 -0.22775244357E+02 -0.41599292795E+02  0.12385960960E+03  0.13262886491E+03  0.00000000000E+00 0.  1.
<mgrwt>
<rscale>  0 0.54728916E+02</rscale>
<asrwt>0</asrwt>
<pdfrwt beam="2">  1        3 0.96590176E-01 0.63156550E+02</pdfrwt>
<pdfrwt beam="1">  1       -3 0.28030612E-01 0.47425868E+02</pdfrwt>
<totfact> 0.25607785E+01</totfact>
</mgrwt>
</event>
<event>
 7    1  0.4251803E-004  0.5170646E+02  0.7546771E-02  0.1447310E+00
          1   -1    0    0  502    0  0.00000000000E+00  0.00000000000E+00  0.19486915439E+04  0.19486915439E+04  0.00000000000E+00 0. -1.
          1   -1    0    0  503    0 -0.00000000000E+00 -0.00000000000E+00 -0.25388280556E+02  0.25388280556E+02  0.00000000000E+00 0. -1.
         25    2    1    2    0    0 -0.12240861878E+02  0.74484373254E+01  0.22207351136E+03  0.25524106881E+03  0.12500416330E+03 0.  0.
          4    1    3    3  501    0  0.29929770410E+02 -0.29716499527E+02  0.22339573456E+02  0.47744433635E+02  0.12700000000E+01 0.  1.
         -4    1    3    3    0  501 -0.42170632288E+02  0.37164936853E+02  0.19973393790E+03  0.20749663517E+03  0.12700000000E+01 0.  1.
          1    1    1    2  502    0 -0.48977084416E+02  0.16577197543E+02  0.15806148985E+04  0.15814604060E+04  0.00000000000E+00 0. -1.
          1    1    1    2  503    0  0.61217946295E+02 -0.24025634868E+02  0.12061485348E+03  0.13737834967E+03  0.00000000000E+00 0. -1.
<mgrwt>
<rscale>  0 0.49636904E+02</rscale>
<asrwt>0</asrwt>
<pdfrwt beam="1">  1        1 0.29979858E+00 0.51706463E+02</pdfrwt>
<pdfrwt beam="2">  1        1 0.39058908E-02 0.47650179E+02</pdfrwt>
<totfact> 0.10440530E+03</totfact>
</mgrwt>
</event>
<event>
 7    1  0.4251803E-004  0.4240090E+02  0.7546771E-02  0.1605702E+00
          2   -1    0    0  502    0  0.00000000000E+00  0.00000000000E+00  0.87975196980E+03  0.87975196980E+03  0.00000000000E+00 0. -1.
          2   -1    0    0  503    0 -0.00000000000E+00 -0.00000000000E+00 -0.41414117080E+03  0.41414117080E+03  0.00000000000E+00 0. -1.
         25    2    1    2    0    0  0.29165515112E+02 -0.24958427269E+02  0.11895831008E+03  0.17678112509E+03  0.12500774491E+03 0.  0.
          4    1    3    3  501    0  0.63606001947E+02 -0.21024564786E+02  0.17060015190E+02  0.69140529550E+02  0.12700000000E+01 0.  1.
         -4    1    3    3    0  501 -0.34440486835E+02 -0.39338624827E+01  0.10189829488E+03  0.10764059554E+03  0.12700000000E+01 0.  1.
          2    1    1    2  502    0 -0.13969079526E+02 -0.14698895915E+02  0.73057064928E+03  0.73085201397E+03  0.00000000000E+00 0. -1.
          2    1    1    2  503    0 -0.15196435586E+02  0.39657323184E+02 -0.38391816036E+03  0.38626000154E+03  0.00000000000E+00 0. -1.
<mgrwt>
<rscale>  0 0.29322359E+02</rscale>
<asrwt>0</asrwt>
<pdfrwt beam="1">  1        2 0.13534646E+00 0.20277888E+02</pdfrwt>
<pdfrwt beam="2">  1        2 0.63714026E-01 0.42400903E+02</pdfrwt>
<totfact> 0.42342929E+02</totfact>
</mgrwt>
</event>
<event>
 7    1  0.4251803E-004  0.1895367E+03  0.7546771E-02  0.1378770E+00
         -2   -1    0    0    0  501 -0.00000000000E+00  0.00000000000E+00  0.33940109904E+03  0.33940109904E+03  0.00000000000E+00 0.  1.
          1   -1    0    0  503    0  0.00000000000E+00 -0.00000000000E+00 -0.14517829340E+03  0.14517829340E+03  0.00000000000E+00 0. -1.
         25    2    1    2    0    0 -0.16561370578E+03  0.10420059000E+03  0.91259429996E+02  0.24947597370E+03  0.12499726153E+03 0.  0.
          4    1    3    3  502    0 -0.90554827539E+02 -0.14433328107E+02  0.32704385411E+02  0.97363686639E+02  0.12700000000E+01 0. -1.
         -4    1    3    3    0  502 -0.75058878237E+02  0.11863391810E+03  0.58555044585E+02  0.15211228706E+03  0.12700000000E+01 0. -1.
          1    1    1    2  503    0  0.19507182087E+02  0.10484453902E+02 -0.11443590960E+01  0.22175740897E+02  0.00000000000E+00 0. -1.
         -2    1    1    2    0  501  0.14610652369E+03 -0.11468504390E+03  0.10410773475E+03  0.21292767785E+03  0.00000000000E+00 0.  1.
<mgrwt>
<rscale>  0 0.64788236E+02</rscale>
<asrwt>0</asrwt>
<pdfrwt beam="2">  1        1 0.22335122E-01 0.22146194E+02</pdfrwt>
<pdfrwt beam="1">  1       -2 0.52215554E-01 0.18953665E+03</pdfrwt>
<totfact> 0.63066696E+02</totfact>
</mgrwt>
</event>
<event>
 7    1  0.4251803E-004  0.7359897E+02  0.7546771E-02  0.1371131E+00
          2   -1    0    0  502    0  0.00000000000E+00  0.00000000000E+00  0.82815534609E+03  0.82815534609E+03  0.00000000000E+00 0. -1.
          1   -1    0    0  503    0 -0.00000000000E+00 -0.00000000000E+00 -0.55126315758E+03  0.55126315758E+03  0.00000000000E+00 0. -1.
         25    2    1    2    0    0  0.89927274345E+02 -0.98085104406E+02 -0.22155112889E+02  0.18391357285E+03  0.12500300345E+03 0.  0.
          4    1    3    3  501    0  0.53242607699E+02 -0.12344649158E+03 -0.79292452264E+00  0.13444721339E+03  0.12700000000E+01 0.  1.
         -4    1    3    3    0  501  0.36684666647E+02  0.25361387175E+02 -0.21362188366E+02  0.49466359460E+02  0.12700000000E+01 0.  1.
          2    1    1    2  502    0 -0.51904888742E+02  0.50735151858E+02  0.74344380277E+03  0.74697848764E+03  0.00000000000E+00 0. -1.
          1    1    1    2  503    0 -0.38022385603E+02  0.47349952548E+02 -0.44439650137E+03  0.44852644319E+03  0.00000000000E+00 0. -1.
<mgrwt>
<rscale>  0 0.66853683E+02</rscale>
<asrwt>0</asrwt>
<pdfrwt beam="1">  1        2 0.12740851E+00 0.73598967E+02</pdfrwt>
<pdfrwt beam="2">  1        1 0.84809716E-01 0.60726599E+02</pdfrwt>
<totfact> 0.20182481E+02</totfact>
</mgrwt>
</event>
<event>
 7    1  0.4251803E-004  0.1189129E+03  0.7546771E-02  0.1353781E+00
          2   -1    0    0  503    0  0.00000000000E+00  0.00000000000E+00  0.90792781573E+03  0.90792781573E+03  0.00000000000E+00 0. -1.
          2   -1    0    0  502    0 -0.00000000000E+00 -0.00000000000E+00 -0.53537227621E+02  0.53537227621E+02  0.00000000000E+00 0. -1.
         25    2    1    2    0    0  0.25406227217E+02  0.88227172979E+02  0.23447466091E+03  0.28112919265E+03  0.12500298364E+03 0.  0.
          4    1    3    3  501    0  0.75226062820E+02  0.67504346253E+02  0.15600983438E+03  0.18589372935E+03  0.12700000000E+01 0. -1.
         -4    1    3    3    0  501 -0.49819835604E+02  0.20722826726E+02  0.78464826532E+02  0.95235463299E+02  0.12700000000E+01 0. -1.
          2    1    1    2  502    0  0.37459087534E+02  0.22039753799E+02 -0.39945857726E+01  0.43645053579E+02  0.00000000000E+00 0. -1.
          2    1    1    2  503    0 -0.62865314751E+02 -0.11026692678E+03  0.62391051297E+03  0.63669079712E+03  0.00000000000E+00 0. -1.
<mgrwt>
<rscale>  0 0.71890044E+02</rscale>
<asrwt>0</asrwt>
<pdfrwt beam="1">  1        2 0.13968119E+00 0.11891294E+03</pdfrwt>
<pdfrwt beam="2">  1        2 0.82364973E-02 0.43461868E+02</pdfrwt>
<totfact> 0.34570690E+03</totfact>
</mgrwt>
</event>
<event>
 7    1  0.4251803E-004  0.2478176E+03  0.7546771E-02  0.1268883E+00
          1   -1    0    0  503    0  0.00000000000E+00  0.00000000000E+00  0.14837504562E+04  0.14837504562E+04  0.00000000000E+00 0. -1.
          1   -1    0    0  502    0 -0.00000000000E+00 -0.00000000000E+00 -0.84914057111E+03  0.84914057111E+03  0.00000000000E+00 0. -1.
         25    2    1    2    0    0  0.17955978793E+03 -0.21853784190E+03 -0.14352621700E+03  0.34091950976E+03  0.12500332552E+03 0.  0.
          4    1    3    3  501    0  0.63115832116E+00 -0.84365412843E+02 -0.53006850591E+02  0.99645674039E+02  0.12700000000E+01 0. -1.
         -4    1    3    3    0  501  0.17892862961E+03 -0.13417242905E+03 -0.90519366409E+02  0.24127383573E+03  0.12700000000E+01 0. -1.
          1    1    1    2  502    0 -0.42911864431E+02  0.13628249333E+02 -0.59511146844E+03  0.59681221264E+03  0.00000000000E+00 0. -1.
          1    1    1    2  503    0 -0.13664792350E+03  0.20490959256E+03  0.13732475705E+04  0.13951593049E+04  0.00000000000E+00 0. -1.
<mgrwt>
<rscale>  0 0.10563016E+03</rscale>
<asrwt>0</asrwt>
<pdfrwt beam="1">  1        1 0.22826930E+00 0.24781762E+03</pdfrwt>
<pdfrwt beam="2">  1        1 0.13063701E+00 0.45023963E+02</pdfrwt>
<totfact> 0.20682663E+01</totfact>
</mgrwt>
</event>
<event>
 7    1  0.4251803E-004  0.6296495E+02  0.7546771E-02  0.1404762E+00
         -1   -1    0    0    0  501 -0.00000000000E+00  0.00000000000E+00  0.72275070243E+02  0.72275070243E+02  0.00000000000E+00 0.  1.
          3   -1    0    0  503    0  0.00000000000E+00 -0.00000000000E+00 -0.10833166520E+04  0.10833166520E+04  0.00000000000E+00 0. -1.
         25    2    1    2    0    0  0.15749913772E+02  0.19419244978E+02 -0.48620036390E+03  0.50263176637E+03  0.12499092708E+03 0.  0.
          4    1    3    3  502    0  0.44727804904E+02  0.56912109803E+02 -0.20371238844E+03  0.21619416013E+03  0.12700000000E+01 0.  1.
         -4    1    3    3    0  502 -0.28977891132E+02 -0.37492864825E+02 -0.28248797546E+03  0.28643760624E+03  0.12700000000E+01 0.  1.
          3    1    1    2  503    0  0.48705194458E+02 -0.23612908407E+02 -0.57100684758E+03  0.57356654835E+03  0.00000000000E+00 0. -1.
         -1    1    1    2    0  501 -0.64455108230E+02  0.41936634287E+01  0.46165629718E+02  0.79393407516E+02  0.00000000000E+00 0.  1.
<mgrwt>
<rscale>  0 0.58379133E+02</rscale>
<asrwt>0</asrwt>
<pdfrwt beam="2">  1        3 0.16666411E+00 0.54127307E+02</pdfrwt>
<pdfrwt beam="1">  1       -1 0.11119241E-01 0.62964948E+02</pdfrwt>
<totfact> 0.57526303E+01</totfact>
</mgrwt>
</event>
<event>
 7    1  0.4251803E-004  0.6165198E+02  0.7546771E-02  0.1527803E+00
          2   -1    0    0  503    0  0.00000000000E+00  0.00000000000E+00  0.80172490027E+02  0.80172490027E+02  0.00000000000E+00 0.  1.
         -2   -1    0    0    0  501 -0.00000000000E+00 -0.00000000000E+00 -0.33864326009E+03  0.33864326009E+03  0.00000000000E+00 0.  1.
         25    2    1    2    0    0  0.10031261523E+02  0.79937656255E+02 -0.13419055138E+03  0.20032542063E+03  0.12503005628E+03 0.  0.
          4    1    3    3  502    0 -0.36112987856E+02 -0.12978909612E+02 -0.65408210056E+02  0.75844886640E+02  0.12700000000E+01 0.  1.
         -4    1    3    3    0  502  0.46144249379E+02  0.92916565867E+02 -0.68782341326E+02  0.12448053399E+03  0.12700000000E+01 0.  1.
          2    1    1    2  503    0  0.77017694340E-01 -0.59548288682E+02  0.27088728043E+02  0.65420209444E+02  0.00000000000E+00 0.  1.
         -2    1    1    2    0  501 -0.10108279218E+02 -0.20389367573E+02 -0.15136894673E+03  0.15307012005E+03  0.00000000000E+00 0.  1.
<mgrwt>
<rscale>  0 0.37457237E+02</rscale>
<asrwt>0</asrwt>
<pdfrwt beam="1">  1        2 0.12334229E-01 0.61651976E+02</pdfrwt>
<pdfrwt beam="2">  1       -2 0.52098964E-01 0.22757496E+02</pdfrwt>
<totfact> 0.16061528E+03</totfact>
</mgrwt>
</event>
<event>
 7    1  0.4251803E-004  0.1279810E+03  0.7546771E-02  0.1241037E+00
          3   -1    0    0  503    0 -0.00000000000E+00  0.00000000000E+00  0.54803634399E+03  0.54803634399E+03  0.00000000000E+00 0. -1.
          2   -1    0    0  502    0  0.00000000000E+00 -0.00000000000E+00 -0.40919134807E+03  0.40919134807E+03  0.00000000000E+00 0. -1.
         25    2    1    2    0    0  0.38241604998E+02 -0.60652851700E+02  0.50968801869E+01  0.14419275308E+03  0.12499753230E+03 0.  0.
          4    1    3    3  501    0  0.73533465890E+02 -0.68417799257E+02 -0.16913880938E+02  0.10186195624E+03  0.12700000000E+01 0. -1.
         -4    1    3    3    0  501 -0.35291860893E+02  0.77649475566E+01  0.22010761124E+02  0.42330796840E+02  0.12700000000E+01 0. -1.
          2    1    1    2  502    0  0.83517973203E+02  0.10007045021E+03 -0.31791089503E+03  0.34359377764E+03  0.00000000000E+00 0. -1.
          3    1    1    2  503    0 -0.12175957820E+03 -0.39417598513E+02  0.45165901077E+03  0.46944116134E+03  0.00000000000E+00 0. -1.
<mgrwt>
<rscale>  0 0.12125726E+03</rscale>
<asrwt>0</asrwt>
<pdfrwt beam="2">  1        2 0.62952515E-01 0.11488675E+03</pdfrwt>
<pdfrwt beam="1">  1        3 0.84313283E-01 0.12798102E+03</pdfrwt>
<totfact> 0.63628297E+01</totfact>
</mgrwt>
</event>
<event>
 7    1  0.4251803E-004  0.4230798E+02  0.7546771E-02  0.1562300E+00
          2   -1    0    0  503    0  0.00000000000E+00  0.00000000000E+00  0.10288470159E+04  0.10288470159E+04  0.00000000000E+00 0. -1.
         -1   -1    0    0    0  501 -0.00000000000E+00 -0.00000000000E+00 -0.11793264342E+02  0.11793264342E+02  0.00000000000E+00 0.  1.
         25    2    1    2    0    0 -0.35064485947E+02 -0.13630282321E+02  0.53040219738E+03  0.54623853327E+03  0.12503895985E+03 0.  0.
          4    1    3    3  502    0 -0.16948077572E+02 -0.29663252723E+02  0.30696582964E+02  0.45946044456E+02  0.12700000000E+01 0. -1.
         -4    1    3    3    0  502 -0.18116408375E+02  0.16032970403E+02  0.49970561441E+03  0.50029248882E+03  0.12700000000E+01 0. -1.
          2    1    1    2  503    0 -0.87769711200E+01  0.25038464505E+02  0.33702417225E+03  0.33806693510E+03  0.00000000000E+00 0. -1.
         -1    1    1    2    0  501  0.43841457067E+02 -0.11408182185E+02  0.14962738195E+03  0.15633481188E+03  0.00000000000E+00 0.  1.
<mgrwt>
<rscale>  0 0.33504114E+02</rscale>
<asrwt>0</asrwt>
<pdfrwt beam="1">  1        2 0.15828409E+00 0.26532243E+02</pdfrwt>
<pdfrwt beam="2">  1       -1 0.18143492E-02 0.42307981E+02</pdfrwt>
<totfact> 0.19965651E+04</totfact>
</mgrwt>
</event>
<event>
 7    1  0.4251803E-004  0.1235311E+03  0.7546771E-02  0.1344680E+00
          2   -1    0    0  502    0  0.00000000000E+00  0.00000000000E+00  0.43491722512E+02  0.43491722512E+02  0.00000000000E+00 0.  1.
          2   -1    0    0  503    0 -0.00000000000E+00 -0.00000000000E+00 -0.15876131917E+04  0.15876131917E+04  0.00000000000E+00 0. -1.
         25    2    1    2    0    0 -0.96110759987E+02  0.10330140835E+03 -0.70716358064E+03  0.73185713141E+03  0.12500428737E+03 0.  0.
          4    1    3    3  501    0 -0.63619089363E+01  0.48810662155E+02 -0.67048604738E+02  0.83187035785E+02  0.12700000000E+01 0.  1.
         -4    1    3    3    0  501 -0.89748851051E+02  0.54490746196E+02 -0.64011497590E+03  0.64867009563E+03  0.12700000000E+01 0.  1.
          2    1    1    2  502    0  0.45008223074E+02  0.43620865641E+01  0.80046874462E+01  0.45922140244E+02  0.00000000000E+00 0.  1.
          2    1    1    2  503    0  0.51102536913E+02 -0.10766349491E+03 -0.84496257603E+03  0.85332564260E+03  0.00000000000E+00 0. -1.
<mgrwt>
<rscale>  0 0.74739314E+02</rscale>
<asrwt>0</asrwt>
<pdfrwt beam="1">  1        2 0.66910342E-02 0.45219110E+02</pdfrwt>
<pdfrwt beam="2">  1        2 0.24424818E+00 0.12353107E+03</pdfrwt>
<totfact> 0.18804602E+03</totfact>
</mgrwt>
</event>
<event>
 7    1  0.4251803E-004  0.5508649E+02  0.7546771E-02  0.1428828E+00
          1   -1    0    0  503    0  0.00000000000E+00  0.00000000000E+00  0.34571149158E+03  0.34571149158E+03  0.00000000000E+00 0. -1.
         -2   -1    0    0    0  501 -0.00000000000E+00 -0.00000000000E+00 -0.53676824956E+02  0.53676824956E+02  0.00000000000E+00 0.  1.
         25    2    1    2    0    0  0.39751513313E+02  0.56924229168E+02  0.24375431548E+03  0.28259783105E+03  0.12499926849E+03 0.  0.
          4    1    3    3  502    0  0.76098550034E+02  0.23737323299E+02  0.20494627311E+03  0.21990688392E+03  0.12700000000E+01 0. -1.
         -4    1    3    3    0  502 -0.36347036721E+02  0.33186905869E+02  0.38808042375E+02  0.62690947133E+02  0.12700000000E+01 0. -1.
          1    1    1    2  503    0 -0.52759792473E+02 -0.72282894744E+01  0.35022126601E+02  0.63736906280E+02  0.00000000000E+00 0. -1.
         -2    1    1    2    0  501  0.13008279160E+02 -0.49695939694E+02  0.13258224548E+02  0.53053579209E+02  0.00000000000E+00 0.  1.
<mgrwt>
<rscale>  0 0.53195925E+02</rscale>
<asrwt>0</asrwt>
<pdfrwt beam="1">  1        1 0.53186382E-01 0.55086492E+02</pdfrwt>
<pdfrwt beam="2">  1       -2 0.82579733E-02 0.51370242E+02</pdfrwt>
<totfact> 0.51496493E+03</totfact>
</mgrwt>
</event>
<event>
 7    1  0.4251803E-004  0.7325376E+02  0.7546771E-02  0.1399437E+00
          1   -1    0    0  503    0 -0.00000000000E+00  0.00000000000E+00  0.45430167795E+03  0.45430167795E+03  0.00000000000E+00 0. -1.
          2   -1    0    0  502    0  0.00000000000E+00 -0.00000000000E+00 -0.20056994909E+04  0.20056994909E+04  0.00000000000E+00 0. -1.
         25    2    1    2    0    0  0.11809447287E+03 -0.29016490239E+02 -0.90028987363E+03  0.91702791089E+03  0.12502028461E+03 0.  0.
          4    1    3    3  501    0  0.83519478013E+02 -0.39658810996E+02 -0.26428465539E+03  0.27999342219E+03  0.12700000000E+01 0.  1.
         -4    1    3    3    0  501  0.34574994855E+02  0.10642320756E+02 -0.63600521823E+03  0.63703448869E+03  0.12700000000E+01 0.  1.
          2    1    1    2  502    0 -0.46936436592E+02  0.12304351646E+02 -0.10935036956E+04  0.10945797177E+04  0.00000000000E+00 0. -1.
          1    1    1    2  503    0 -0.71158036275E+02  0.16712138594E+02  0.44239575631E+03  0.44839354021E+03  0.00000000000E+00 0. -1.
<mgrwt>
<rscale>  0 0.59619211E+02</rscale>
<asrwt>0</asrwt>
<pdfrwt beam="2">  1        2 0.30856916E+00 0.48522429E+02</pdfrwt>
<pdfrwt beam="1">  1        1 0.69892564E-01 0.73253759E+02</pdfrwt>
<totfact> 0.64143838E+01</totfact>
</mgrwt>
</event>
<event>
 7    1  0.4251803E-004  0.8447722E+02  0.7546771E-02  0.1423394E+00
          2   -1    0    0  502    0  0.00000000000E+00  0.00000000000E+00  0.63198618432E+03  0.63198618432E+03  0.00000000000E+00 0.  1.
          1   -1    0    0  503    0 -0.00000000000E+00 -0.00000000000E+00 -0.89783723763E+03  0.89783723763E+03  0.00000000000E+00 0. -1.
         25    2    1    2    0    0 -0.68314670814E+02 -0.89451576745E+02  0.15150207847E+03  0.22637736346E+03  0.12500140830E+03 0.  0.
          4    1    3    3  501    0 -0.21496152857E+02 -0.32088419784E+02 -0.17077383156E+02  0.42249274400E+02  0.12700000000E+01 0. -1.
         -4    1    3    3    0  501 -0.46818517958E+02 -0.57363156961E+02  0.16857946162E+03  0.18412808906E+03  0.12700000000E+01 0. -1.
          2    1    1    2  502    0  0.37762049516E+02  0.72552786978E+02  0.43891273139E+03  0.44646866077E+03  0.00000000000E+00 0.  1.
          1    1    1    2  503    0  0.30552621298E+02  0.16898789767E+02 -0.85626586317E+03  0.85697739771E+03  0.00000000000E+00 0. -1.
<mgrwt>
<rscale>  0 0.54309219E+02</rscale>
<asrwt>0</asrwt>
<pdfrwt beam="1">  1        2 0.97228644E-01 0.84477217E+02</pdfrwt>
<pdfrwt beam="2">  1        1 0.13812881E+00 0.34914635E+02</pdfrwt>
<totfact> 0.14454022E+02</totfact>
</mgrwt>
</event>
<event>
 7    1  0.4251803E-004  0.5425378E+02  0.7546771E-02  0.1448896E+00
          3   -1    0    0  503    0 -0.00000000000E+00  0.00000000000E+00  0.59533906695E+03  0.59533906695E+03  0.00000000000E+00 0. -1.
          2   -1    0    0  502    0  0.00000000000E+00 -0.00000000000E+00 -0.80869082250E+02  0.80869082250E+02  0.00000000000E+00 0. -1.
         25    2    1    2    0    0 -0.17728585106E+02 -0.37065364808E+02  0.10095904061E+03  0.16585113480E+03  0.12500290812E+03 0.  0.
          4    1    3    3  501    0 -0.10311996539E+02 -0.21383292346E+02  0.12991510786E+03  0.13207244457E+03  0.12700000000E+01 0. -1.
         -4    1    3    3    0  501 -0.74165885671E+01 -0.15682072462E+02 -0.28956067258E+02  0.33778690231E+02  0.12700000000E+01 0. -1.
          2    1    1    2  502    0 -0.24446297655E+02  0.52422559173E+02 -0.29601702415E+02  0.64976972576E+02  0.00000000000E+00 0. -1.
          3    1    1    2  503    0  0.42174882760E+02 -0.15357194365E+02  0.44311264651E+03  0.44538004182E+03  0.00000000000E+00 0. -1.
<mgrwt>
<rscale>  0 0.49346946E+02</rscale>
<asrwt>0</asrwt>
<pdfrwt beam="2">  1        2 0.12441398E-01 0.54253781E+02</pdfrwt>
<pdfrwt beam="1">  1        3 0.91590623E-01 0.44883896E+02</pdfrwt>
<totfact> 0.29293555E+02</totfact>
</mgrwt>
</event>
<event>
 7    1  0.4251803E-004  0.5514271E+02  0.7546771E-02  0.1497558E+00
         -1   -1    0    0    0  501 -0.00000000000E+00  0.00000000000E+00  0.41877254703E+02  0.41877254703E+02  0.00000000000E+00 0.  1.
          2   -1    0    0  503    0  0.00000000000E+00 -0.00000000000E+00 -0.45996195411E+03  0.45996195411E+03  0.00000000000E+00 0. -1.
         25    2    1    2    0    0  0.38498951266E+02 -0.49877858708E+02 -0.35745628291E+03  0.38386408169E+03  0.12492665439E+03 0.  0.
          4    1    3    3  502    0  0.51517263951E+02 -0.79032315443E+02 -0.32459102291E+03  0.33802526595E+03  0.12700000000E+01 0.  1.
         -4    1    3    3    0  502 -0.13018312685E+02  0.29154456736E+02 -0.32865260001E+02  0.45838815731E+02  0.12700000000E+01 0.  1.
          2    1    1    2  503    0 -0.30852935382E+02 -0.47089180566E+01 -0.54117502239E+02  0.62472246474E+02  0.00000000000E+00 0. -1.
         -1    1    1    2    0  501 -0.76460158838E+01  0.54586776764E+02 -0.65109142573E+01  0.55502880654E+02  0.00000000000E+00 0.  1.
<mgrwt>
<rscale>  0 0.41485127E+02</rscale>
<asrwt>0</asrwt>
<pdfrwt beam="2">  1        2 0.70763377E-01 0.31210215E+02</pdfrwt>
<pdfrwt beam="1">  1       -1 0.64426546E-02 0.55142708E+02</pdfrwt>
<totfact> 0.83333452E+03</totfact>
</mgrwt>
</event>
<event>
 7    1  0.4251803E-004  0.1161841E+03  0.7546771E-02  0.1278281E+00
         -1   -1    0    0    0  501 -0.00000000000E+00  0.00000000000E+00  0.61765171382E+03  0.61765171382E+03  0.00000000000E+00 0.  1.
          2   -1    0    0  503    0  0.00000000000E+00 -0.00000000000E+00 -0.12292782259E+04  0.12292782259E+04  0.00000000000E+00 0. -1.
         25    2    1    2    0    0  0.14049034346E+03 -0.13862493298E+03 -0.79779438831E+03  0.83129723294E+03  0.12499917929E+03 0.  0.
          4    1    3    3  502    0  0.95968224827E+02 -0.78758432947E+02 -0.25742935791E+03  0.28580461534E+03  0.12700000000E+01 0. -1.
         -4    1    3    3    0  502  0.44522118631E+02 -0.59866500037E+02 -0.54036503040E+03  0.54549261760E+03  0.12700000000E+01 0. -1.
          2    1    1    2  503    0 -0.77088617254E+02  0.41896788663E+02 -0.40441952111E+03  0.41382743368E+03  0.00000000000E+00 0. -1.
         -1    1    1    2    0  501 -0.63401726204E+02  0.96728144322E+02  0.59058739736E+03  0.60180527308E+03  0.00000000000E+00 0.  1.
<mgrwt>
<rscale>  0 0.10096430E+03</rscale>
<asrwt>0</asrwt>
<pdfrwt beam="2">  1        2 0.18911972E+00 0.87738223E+02</pdfrwt>
<pdfrwt beam="1">  1       -1 0.95023342E-01 0.11618414E+03</pdfrwt>
<totfact> 0.27906603E+01</totfact>
</mgrwt>
</event>
<event>
 7    1  0.4251803E-004  0.1372632E+03  0.7546771E-02  0.1304601E+00
          2   -1    0    0  502    0  0.00000000000E+00  0.00000000000E+00  0.22024538466E+03  0.22024538466E+03  0.00000000000E+00 0. -1.
          2   -1    0    0  503    0 -0.00000000000E+00 -0.00000000000E+00 -0.20040397174E+04  0.20040397174E+04  0.00000000000E+00 0.  1.
         25    2    1    2    0    0 -0.94259960306E+02 -0.58960456237E+01 -0.90713837163E+03  0.92056666768E+03  0.12499304334E+03 0.  0.
          4    1    3    3  501    0 -0.16305171229E+02 -0.58769406052E+02 -0.41954044934E+03  0.42395224168E+03  0.12700000000E+01 0.  1.
         -4    1    3    3    0  501 -0.77954789077E+02  0.52873360428E+02 -0.48759792229E+03  0.49661442600E+03  0.12700000000E+01 0.  1.
          2    1    1    2  502    0  0.13340990173E+03 -0.36995083348E+02  0.19021796042E+03  0.23526519194E+03  0.00000000000E+00 0. -1.
          2    1    1    2  503    0 -0.39149941420E+02  0.42891128972E+02 -0.10668739216E+04  0.10684532425E+04  0.00000000000E+00 0.  1.
<mgrwt>
<rscale>  0 0.89281352E+02</rscale>
<asrwt>0</asrwt>
<pdfrwt beam="1">  1        2 0.33883906E-01 0.13726320E+03</pdfrwt>
<pdfrwt beam="2">  1        2 0.30831379E+00 0.58072083E+02</pdfrwt>
<totfact> 0.20554223E+02</totfact>
</mgrwt>
</event>
<event>
 7    1  0.4251803E-004  0.1156661E+03  0.7546771E-02  0.1375369E+00
         -1   -1    0    0    0  501 -0.00000000000E+00  0.00000000000E+00  0.24004653736E+03  0.24004653736E+03  0.00000000000E+00 0.  1.
          2   -1    0    0  503    0  0.00000000000E+00 -0.00000000000E+00 -0.11941560166E+03  0.11941560166E+03  0.00000000000E+00 0. -1.
         25    2    1    2    0    0  0.12427815990E+03 -0.34473487927E+02  0.33813180970E+02  0.18275968314E+03  0.12499715268E+03 0.  0.
          4    1    3    3  502    0  0.98162624303E+02 -0.40856710026E+02 -0.32502973952E+02  0.11119005252E+03  0.12700000000E+01 0. -1.
         -4    1    3    3    0  502  0.26115535592E+02  0.63832220994E+01  0.66316154921E+02  0.71569630621E+02  0.12700000000E+01 0. -1.
          2    1    1    2  503    0 -0.93086849962E+02  0.54955319539E+02  0.36574291774E+02  0.11411804240E+03  0.00000000000E+00 0. -1.
         -1    1    1    2    0  501 -0.31191309934E+02 -0.20481831612E+02  0.50243462950E+02  0.62584413481E+02  0.00000000000E+00 0.  1.
<mgrwt>
<rscale>  0 0.65696824E+02</rscale>
<asrwt>0</asrwt>
<pdfrwt beam="2">  1        2 0.18371631E-01 0.11566614E+03</pdfrwt>
<pdfrwt beam="1">  1       -1 0.36930236E-01 0.37314920E+02</pdfrwt>
<totfact> 0.23641762E+03</totfact>
</mgrwt>
</event>
<event>
 7    1  0.4251803E-004  0.5698740E+02  0.7546771E-02  0.1505253E+00
         -2   -1    0    0    0  501 -0.00000000000E+00  0.00000000000E+00  0.19570169456E+02  0.19570169456E+02  0.00000000000E+00 0.  1.
          1   -1    0    0  503    0  0.00000000000E+00 -0.00000000000E+00 -0.77770827083E+03  0.77770827083E+03  0.00000000000E+00 0. -1.
         25    2    1    2    0    0  0.73620344076E+01  0.31380086246E+02 -0.60793631211E+03  0.62149002015E+03  0.12499750478E+03 0.  0.
          4    1    3    3  502    0  0.25984933321E+02  0.36677561529E+02 -0.69969082126E+02  0.83172986198E+02  0.12700000000E+01 0. -1.
         -4    1    3    3    0  502 -0.18622898914E+02 -0.52974752832E+01 -0.53796722998E+03  0.53831703395E+03  0.12700000000E+01 0. -1.
          1    1    1    2  503    0  0.96348485869E+01  0.26978760966E+02 -0.65909294403E+02  0.71865979011E+02  0.00000000000E+00 0. -1.
         -2    1    1    2    0  501 -0.16996882994E+02 -0.58358847212E+02 -0.84292494868E+02  0.10392244113E+03  0.00000000000E+00 0.  1.
<mgrwt>
<rscale>  0 0.40404839E+02</rscale>
<asrwt>0</asrwt>
<pdfrwt beam="2">  1        1 0.11964742E+00 0.28647580E+02</pdfrwt>
<pdfrwt beam="1">  1       -2 0.30107956E-02 0.56987397E+02</pdfrwt>
<totfact> 0.83388342E+03</totfact>
</mgrwt>
</event>
<event>
 7    1  0.4251803E-004  0.1990953E+03  0.7546771E-02  0.1290549E+00
         -1   -1    0    0    0  501 -0.00000000000E+00  0.00000000000E+00  0.78434316183E+03  0.78434316183E+03  0.00000000000E+00 0.  1.
          2   -1    0    0  503    0  0.00000000000E+00 -0.00000000000E+00 -0.38009109519E+04  0.38009109519E+04  0.00000000000E+00 0. -1.
         25    2    1    2    0    0  0.20187641900E+03  0.89867609590E+02 -0.47344730028E+03  0.53722248655E+03  0.12500151247E+03 0.  0.
          4    1    3    3  502    0  0.10886797182E+03 -0.17798718231E+02 -0.18036466574E+03  0.21142860545E+03  0.12700000000E+01 0. -1.
         -4    1    3    3    0  502  0.93008447184E+02  0.10766632782E+03 -0.29308263454E+03  0.32579388110E+03  0.12700000000E+01 0. -1.
          2    1    1    2  503    0 -0.19211603042E+03 -0.45327916735E+02 -0.32919262378E+04  0.32978389203E+04  0.00000000000E+00 0. -1.
         -1    1    1    2    0  501 -0.97603885805E+01 -0.44539692855E+02  0.74880574792E+03  0.75019270694E+03  0.00000000000E+00 0.  1.
<mgrwt>
<rscale>  0 0.95278891E+02</rscale>
<asrwt>0</asrwt>
<pdfrwt beam="2">  1        2 0.58475554E+00 0.19909529E+03</pdfrwt>
<pdfrwt beam="1">  1       -1 0.12066818E+00 0.45596594E+02</pdfrwt>
<totfact> 0.55386442E-01</totfact>
</mgrwt>
</event>
<event>
 7    1  0.4251803E-004  0.2342383E+03  0.7546771E-02  0.1328997E+00
          1   -1    0    0  503    0 -0.00000000000E+00  0.00000000000E+00  0.12115236039E+03  0.12115236039E+03  0.00000000000E+00 0. -1.
          2   -1    0    0  502    0  0.00000000000E+00 -0.00000000000E+00 -0.74732652052E+03  0.74732652052E+03  0.00000000000E+00 0. -1.
         25    2    1    2    0    0  0.22465774392E+03  0.51049938270E+02 -0.23037324209E+03  0.34896175463E+03  0.12500110968E+03 0.  0.
          4    1    3    3  501    0  0.86414684057E+02  0.48112979606E+02 -0.26123536544E+02  0.10230546656E+03  0.12700000000E+01 0. -1.
         -4    1    3    3    0  501  0.13824305987E+03  0.29369586637E+01 -0.20424970554E+03  0.24665628806E+03  0.12700000000E+01 0. -1.
          2    1    1    2  502    0  0.40846649628E-01  0.27335603703E+02 -0.22484092657E+03  0.22649653233E+03  0.00000000000E+00 0. -1.
          1    1    1    2  503    0 -0.22469859057E+03 -0.78385541973E+02 -0.17095999147E+03  0.29302059395E+03  0.00000000000E+00 0. -1.
<mgrwt>
<rscale>  0 0.80019069E+02</rscale>
<asrwt>0</asrwt>
<pdfrwt beam="2">  1        2 0.11497331E+00 0.27335634E+02</pdfrwt>
<pdfrwt beam="1">  1        1 0.18638825E-01 0.23423826E+03</pdfrwt>
<totfact> 0.15777160E+03</totfact>
</mgrwt>
</event>
<event>
 7    1  0.4251803E-004  0.5716846E+03  0.7546771E-02  0.9965958E-01
         -1   -1    0    0    0  501 -0.00000000000E+00  0.00000000000E+00  0.56745247600E+02  0.56745247600E+02  0.00000000000E+00 0.  1.
          2   -1    0    0  503    0  0.00000000000E+00 -0.00000000000E+00 -0.14398707651E+04  0.14398707651E+04  0.00000000000E+00 0. -1.
         25    2    1    2    0    0  0.18966794271E+03  0.90904354732E+02 -0.28385873387E+03  0.37475034225E+03  0.12499803207E+03 0.  0.
          4    1    3    3  502    0  0.62652272652E+02  0.94422566616E+02 -0.16889966927E+03  0.20339527904E+03  0.12700000000E+01 0. -1.
         -4    1    3    3    0  502  0.12701567006E+03 -0.35182118840E+01 -0.11495906461E+03  0.17135506322E+03  0.12700000000E+01 0. -1.
          2    1    1    2  503    0 -0.69677768767E+02 -0.25488164147E+01 -0.47324333682E+03  0.47835211275E+03  0.00000000000E+00 0. -1.
         -1    1    1    2    0  501 -0.11999017394E+03 -0.88355538318E+02 -0.62602344676E+03  0.64351355766E+03  0.00000000000E+00 0.  1.
<mgrwt>
<rscale>  0 0.57168461E+03</rscale>
<asrwt>0</asrwt>
<pdfrwt beam="2">  1        2 0.22151856E+00 0.57168461E+03</pdfrwt>
<pdfrwt beam="1">  1       -1 0.87300388E-02 0.57168461E+03</pdfrwt>
<totfact> 0.12416298E+03</totfact>
</mgrwt>
</event>
<event>
 7    1  0.4251803E-004  0.7422575E+02  0.7546771E-02  0.1358350E+00
         -1   -1    0    0    0  501 -0.00000000000E+00  0.00000000000E+00  0.14422991094E+03  0.14422991094E+03  0.00000000000E+00 0.  1.
          1   -1    0    0  503    0  0.00000000000E+00 -0.00000000000E+00 -0.76760698000E+03  0.76760698000E+03  0.00000000000E+00 0.  1.
         25    2    1    2    0    0  0.56405113919E+01  0.22198154792E+02 -0.27548695140E+03  0.30338440531E+03  0.12499785419E+03 0.  0.
          4    1    3    3  502    0 -0.83849187440E+01  0.71958097547E+02 -0.12787640478E+03  0.14697708143E+03  0.12700000000E+01 0. -1.
         -4    1    3    3    0  502  0.14025430136E+02 -0.49759942755E+02 -0.14761054662E+03  0.15640732389E+03  0.12700000000E+01 0. -1.
          1    1    1    2  503    0 -0.57625955759E+02  0.34160632143E+02 -0.46427417318E+03  0.46908230349E+03  0.00000000000E+00 0.  1.
         -1    1    1    2    0  501  0.51985444367E+02 -0.56358786935E+02  0.11638405552E+03  0.13937018214E+03  0.00000000000E+00 0.  1.
<mgrwt>
<rscale>  0 0.70515283E+02</rscale>
<asrwt>0</asrwt>
<pdfrwt beam="2">  1        1 0.11809338E+00 0.66990295E+02</pdfrwt>
<pdfrwt beam="1">  1       -1 0.22189218E-01 0.74225754E+02</pdfrwt>
<totfact> 0.43207705E+02</totfact>
</mgrwt>
</event>
<event>
 7    1  0.4251803E-004  0.8988392E+02  0.7546771E-02  0.1334982E+00
          2   -1    0    0  502    0  0.00000000000E+00  0.00000000000E+00  0.10861519206E+04  0.10861519206E+04  0.00000000000E+00 0. -1.
          1   -1    0    0  503    0 -0.00000000000E+00 -0.00000000000E+00 -0.46156777050E+03  0.46156777050E+03  0.00000000000E+00 0. -1.
         25    2    1    2    0    0 -0.19043529399E+01 -0.98930275223E+02  0.27331852542E+03  0.31641622350E+03  0.12500153695E+03 0.  0.
          4    1    3    3  501    0 -0.20476776825E+02 -0.53338152041E+02  0.25885749142E+03  0.26509068376E+03  0.12700000000E+01 0. -1.
         -4    1    3    3    0  501  0.18572423885E+02 -0.45592123183E+02  0.14461034002E+02  0.51325539741E+02  0.12700000000E+01 0. -1.
          2    1    1    2  502    0  0.61747949661E+02  0.67501293075E+02  0.78601991934E+03  0.79132581624E+03  0.00000000000E+00 0. -1.
          1    1    1    2  503    0 -0.59843596721E+02  0.31428982148E+02 -0.43475429465E+03  0.43997765137E+03  0.00000000000E+00 0. -1.
<mgrwt>
<rscale>  0 0.77946600E+02</rscale>
<asrwt>0</asrwt>
<pdfrwt beam="1">  1        2 0.16710029E+00 0.89883923E+02</pdfrwt>
<pdfrwt beam="2">  1        1 0.71010427E-01 0.67594652E+02</pdfrwt>
<totfact> 0.17505686E+02</totfact>
</mgrwt>
</event>
<event>
 7    1  0.4251803E-004  0.1130352E+03  0.7546771E-02  0.1417070E+00
          2   -1    0    0  503    0  0.00000000000E+00  0.00000000000E+00  0.10060571153E+03  0.10060571153E+03  0.00000000000E+00 0. -1.
          2   -1    0    0  502    0 -0.00000000000E+00 -0.00000000000E+00 -0.25889301612E+04  0.25889301612E+04  0.00000000000E+00 0. -1.
         25    2    1    2    0    0  0.97028184439E+02  0.39382555925E+02 -0.13825674879E+03  0.21378884495E+03  0.12500114941E+03 0.  0.
          4    1    3    3  501    0  0.47517243731E+02  0.82447350163E+02 -0.98941752009E+02  0.13728269079E+03  0.12700000000E+01 0.  1.
         -4    1    3    3    0  501  0.49510940707E+02 -0.43064794239E+02 -0.39314996780E+02  0.76506154160E+02  0.12700000000E+01 0.  1.
          2    1    1    2  502    0 -0.11221239469E+03 -0.16582478615E+02 -0.24085223957E+04  0.24111919730E+04  0.00000000000E+00 0. -1.
          2    1    1    2  503    0  0.15184210247E+02 -0.22800077310E+02  0.58454694751E+02  0.64555054834E+02  0.00000000000E+00 0. -1.
<mgrwt>
<rscale>  0 0.55645573E+02</rscale>
<asrwt>0</asrwt>
<pdfrwt beam="1">  1        2 0.15477802E-01 0.27393499E+02</pdfrwt>
<pdfrwt beam="2">  1        2 0.39829694E+00 0.11303521E+03</pdfrwt>
<totfact> 0.20842140E+02</totfact>
</mgrwt>
</event>
<event>
 7    1  0.5694328E-004  0.7819192E+02  0.7546771E-02  0.1391921E+00
          1   -1    0    0  503    0  0.00000000000E+00  0.00000000000E+00  0.13742067145E+04  0.13742067145E+04  0.00000000000E+00 0. -1.
         -2   -1    0    0    0  501 -0.00000000000E+00 -0.00000000000E+00 -0.16812399171E+02  0.16812399171E+02  0.00000000000E+00 0.  1.
         25    2    1    2    0    0 -0.84784686073E+02 -0.34108215153E+02  0.45988717126E+03  0.48525485813E+03  0.12499701485E+03 0.  0.
          4    1    3    3  502    0 -0.38354789635E+02 -0.59766812689E+02  0.39546530200E+03  0.40179295635E+03  0.12700000000E+01 0.  1.
         -4    1    3    3    0  502 -0.46429896438E+02  0.25658597537E+02  0.64421869262E+02  0.83461901788E+02  0.12700000000E+01 0.  1.
          1    1    1    2  503    0  0.42223790590E+02 -0.23377958534E+02  0.44943504243E+03  0.45201906464E+03  0.00000000000E+00 0. -1.
         -2    1    1    2    0  501  0.42560895483E+02  0.57486173686E+02  0.44807210168E+03  0.45374519093E+03  0.00000000000E+00 0.  1.
<mgrwt>
<rscale>  0 0.61431471E+02</rscale>
<asrwt>0</asrwt>
<pdfrwt beam="1">  1        1 0.21141633E+00 0.48263624E+02</pdfrwt>
<pdfrwt beam="2">  1       -2 0.25865240E-02 0.78191924E+02</pdfrwt>
<totfact> 0.40828436E+03</totfact>
</mgrwt>
</event>
<event>
 7    1  0.4251803E-004  0.8220945E+02  0.7546771E-02  0.1325191E+00
          2   -1    0    0  502    0  0.00000000000E+00  0.00000000000E+00  0.21531993657E+04  0.21531993657E+04  0.00000000000E+00 0. -1.
          1   -1    0    0  503    0 -0.00000000000E+00 -0.00000000000E+00 -0.18753337014E+02  0.18753337014E+02  0.00000000000E+00 0. -1.
         25    2    1    2    0    0  0.15551191732E+01 -0.28063357528E+02  0.82436597276E+03  0.83426285823E+03  0.12500115663E+03 0.  0.
          4    1    3    3  501    0 -0.24314537378E+02  0.23175466313E+02  0.64622304283E+03  0.64709669521E+03  0.12700000000E+01 0. -1.
         -4    1    3    3    0  501  0.25869656552E+02 -0.51238823841E+02  0.17814292993E+03  0.18716616303E+03  0.12700000000E+01 0. -1.
          2    1    1    2  502    0 -0.76841626591E+02 -0.29219150990E+02  0.11408903737E+04  0.11438484336E+04  0.00000000000E+00 0. -1.
          1    1    1    2  503    0  0.75286507418E+02  0.57282508518E+02  0.16918968226E+03  0.19384141086E+03  0.00000000000E+00 0. -1.
<mgrwt>
<rscale>  0 0.81376046E+02</rscale>
<asrwt>0</asrwt>
<pdfrwt beam="1">  1        2 0.33126125E+00 0.82209454E+02</pdfrwt>
<pdfrwt beam="2">  1        1 0.28851305E-02 0.80551086E+02</pdfrwt>
<totfact> 0.30275046E+03</totfact>
</mgrwt>
</event>
<event>
 7    1  0.4251803E-004  0.3033500E+02  0.7546771E-02  0.1597471E+00
          1   -1    0    0  503    0  0.00000000000E+00  0.00000000000E+00  0.45555443196E+02  0.45555443196E+02  0.00000000000E+00 0. -1.
         -2   -1    0    0    0  501 -0.00000000000E+00 -0.00000000000E+00 -0.26027227101E+03  0.26027227101E+03  0.00000000000E+00 0.  1.
         25    2    1    2    0    0  0.38334905214E+01 -0.37513384757E+02 -0.14789555334E+03  0.19728076170E+03  0.12499861820E+03 0.  0.
          4    1    3    3  502    0 -0.30799720155E+02 -0.53483901219E+02 -0.14663655629E+03  0.15910073222E+03  0.12700000000E+01 0.  1.
         -4    1    3    3    0  502  0.34633210677E+02  0.15970516462E+02 -0.12589970528E+01  0.38180029484E+02  0.12700000000E+01 0.  1.
          1    1    1    2  503    0  0.21833810888E+02  0.20251012037E+02  0.51394872696E+01  0.30219747117E+02  0.00000000000E+00 0. -1.
         -2    1    1    2    0  501 -0.25667301409E+02  0.17262372720E+02 -0.71960761736E+02  0.78327205384E+02  0.00000000000E+00 0.  1.
<mgrwt>
<rscale>  0 0.30055970E+02</rscale>
<asrwt>0</asrwt>
<pdfrwt beam="1">  1        1 0.70085295E-02 0.29779503E+02</pdfrwt>
<pdfrwt beam="2">  1       -2 0.40041889E-01 0.30335003E+02</pdfrwt>
<totfact> 0.44180701E+03</totfact>
</mgrwt>
</event>
<event>
 7    1  0.4251803E-004  0.6505200E+02  0.7546771E-02  0.1452143E+00
          1   -1    0    0  503    0  0.00000000000E+00  0.00000000000E+00  0.43120731360E+03  0.43120731360E+03  0.00000000000E+00 0. -1.
         -1   -1    0    0    0  501 -0.00000000000E+00 -0.00000000000E+00 -0.82391636959E+02  0.82391636959E+02  0.00000000000E+00 0.  1.
         25    2    1    2    0    0 -0.51143689118E+02 -0.17974333856E+02  0.22268799116E+03  0.26106336224E+03  0.12500153631E+03 0.  0.
          4    1    3    3  502    0  0.27479454231E+02 -0.19595453339E+02  0.15071219679E+03  0.15445025528E+03  0.12700000000E+01 0. -1.
         -4    1    3    3    0  502 -0.78623143349E+02  0.16211194827E+01  0.71975794375E+02  0.10661310695E+03  0.12700000000E+01 0. -1.
          1    1    1    2  503    0  0.45988792106E+02  0.54158161848E+02  0.17652108023E+03  0.19028338672E+03  0.00000000000E+00 0. -1.
         -1    1    1    2    0  501  0.51548970123E+01 -0.36183827991E+02 -0.50393394748E+02  0.62252201612E+02  0.00000000000E+00 0.  1.
<mgrwt>
<rscale>  0 0.48760609E+02</rscale>
<asrwt>0</asrwt>
<pdfrwt beam="1">  1        1 0.66339585E-01 0.65051996E+02</pdfrwt>
<pdfrwt beam="2">  1       -1 0.12675637E-01 0.36549177E+02</pdfrwt>
<totfact> 0.21054966E+03</totfact>
</mgrwt>
</event>
<event>
 7    1  0.4251803E-004  0.1049682E+03  0.7546771E-02  0.1464002E+00
          1   -1    0    0  503    0  0.00000000000E+00  0.00000000000E+00  0.11083653926E+04  0.11083653926E+04  0.00000000000E+00 0. -1.
         -2   -1    0    0    0  501 -0.00000000000E+00 -0.00000000000E+00 -0.21545757546E+02  0.21545757546E+02  0.00000000000E+00 0.  1.
         25    2    1    2    0    0  0.10274772114E+03  0.21409650091E+02  0.42776473919E+03  0.45784677840E+03  0.12500213233E+03 0.  0.
          4    1    3    3  502    0  0.12524672611E+03  0.66209972329E+01  0.39977149289E+03  0.41898620435E+03  0.12700000000E+01 0.  1.
         -4    1    3    3    0  502 -0.22499004967E+02  0.14788652858E+02  0.27993246299E+02  0.38860574059E+02  0.12700000000E+01 0.  1.
          1    1    1    2  503    0 -0.51794876519E+01  0.20120390084E+02  0.19212788868E+03  0.19324798265E+03  0.00000000000E+00 0. -1.
         -2    1    1    2    0  501 -0.97568233492E+02 -0.41530040176E+02  0.46692700723E+03  0.47881638913E+03  0.00000000000E+00 0.  1.
<mgrwt>
<rscale>  0 0.46699658E+02</rscale>
<asrwt>0</asrwt>
<pdfrwt beam="1">  1        1 0.17051771E+00 0.20776361E+02</pdfrwt>
<pdfrwt beam="2">  1       -2 0.33147328E-02 0.10496824E+03</pdfrwt>
<totfact> 0.46930024E+03</totfact>
</mgrwt>
</event>
<event>
 7    1  0.4251803E-004  0.7786937E+02  0.7546771E-02  0.1429945E+00
          2   -1    0    0  502    0  0.00000000000E+00  0.00000000000E+00  0.66855062986E+02  0.66855062986E+02  0.00000000000E+00 0. -1.
          1   -1    0    0  503    0 -0.00000000000E+00 -0.00000000000E+00 -0.34558067587E+03  0.34558067587E+03  0.00000000000E+00 0. -1.
         25    2    1    2    0    0  0.88446145261E+02 -0.37590958543E+02 -0.18660929025E+03  0.24428301198E+03  0.12496144189E+03 0.  0.
          4    1    3    3  501    0  0.66437817573E+02 -0.24224703446E+02 -0.17022046407E+02  0.72747390502E+02  0.12700000000E+01 0. -1.
         -4    1    3    3    0  501  0.22008327688E+02 -0.13366255097E+02 -0.16958724384E+03  0.17153562148E+03  0.12700000000E+01 0. -1.
          2    1    1    2  502    0 -0.55108716677E+02  0.51267697635E+02 -0.68434445596E+01  0.75578966704E+02  0.00000000000E+00 0. -1.
          1    1    1    2  503    0 -0.33337428584E+02 -0.13676739091E+02 -0.85272878074E+02  0.92573760169E+02  0.00000000000E+00 0. -1.
<mgrwt>
<rscale>  0 0.52971051E+02</rscale>
<asrwt>0</asrwt>
<pdfrwt beam="1">  1        2 0.10285395E-01 0.77869375E+02</pdfrwt>
<pdfrwt beam="2">  1        1 0.53166257E-01 0.36033836E+02</pdfrwt>
<totfact> 0.57483557E+03</totfact>
</mgrwt>
</event>
<event>
 7    1  0.4251803E-004  0.1112846E+03  0.7546771E-02  0.1393205E+00
          3   -1    0    0  503    0 -0.00000000000E+00  0.00000000000E+00  0.19536372922E+02  0.19536372922E+02  0.00000000000E+00 0. -1.
          1   -1    0    0  502    0  0.00000000000E+00 -0.00000000000E+00 -0.30867668184E+04  0.30867668184E+04  0.00000000000E+00 0. -1.
         25    2    1    2    0    0  0.52024878441E+02 -0.12523192704E+03 -0.14106762624E+04  0.14226817622E+04  0.12500502287E+03 0.  0.
          4    1    3    3  501    0 -0.23605216410E+01  0.18684703922E+02 -0.39181225049E+03  0.39226667301E+03  0.12700000000E+01 0. -1.
         -4    1    3    3    0  501  0.54385400082E+02 -0.14391663096E+03 -0.10188640119E+04  0.10304150892E+04  0.12700000000E+01 0. -1.
          1    1    1    2  502    0 -0.29311825102E+02  0.10051951456E+03 -0.16446930920E+04  0.16480226706E+04  0.00000000000E+00 0. -1.
          3    1    1    2  503    0 -0.22713053339E+02  0.24712412482E+02 -0.11861091009E+02  0.35598758442E+02  0.00000000000E+00 0. -1.
<mgrwt>
<rscale>  0 0.61116523E+02</rscale>
<asrwt>0</asrwt>
<pdfrwt beam="2">  1        1 0.47488688E+00 0.11128460E+03</pdfrwt>
<pdfrwt beam="1">  1        3 0.30055979E-02 0.33564656E+02</pdfrwt>
<totfact> 0.14680722E+02</totfact>
</mgrwt>
</event>
<event>
 7    1  0.4251803E-004  0.7330087E+02  0.7546771E-02  0.1391846E+00
         -1   -1    0    0    0  501 -0.00000000000E+00  0.00000000000E+00  0.29056850303E+02  0.29056850303E+02  0.00000000000E+00 0.  1.
          2   -1    0    0  503    0  0.00000000000E+00 -0.00000000000E+00 -0.81872717584E+03  0.81872717584E+03  0.00000000000E+00 0. -1.
         25    2    1    2    0    0 -0.10638859341E+03  0.18559672201E+02 -0.52089610519E+03  0.54646235272E+03  0.12500142519E+03 0.  0.
          4    1    3    3  502    0 -0.12894823486E+03  0.32513117375E+02 -0.47668112669E+03  0.49488509729E+03  0.12700000000E+01 0.  1.
         -4    1    3    3    0  502  0.22559641446E+02 -0.13953445174E+02 -0.44214978500E+02  0.51577255434E+02  0.12700000000E+01 0.  1.
          2    1    1    2  503    0  0.62208116659E+02  0.79332890139E+01 -0.22545317426E+03  0.23401265059E+03  0.00000000000E+00 0. -1.
         -1    1    1    2    0  501  0.44180476755E+02 -0.26492961215E+02 -0.43321046085E+02  0.67309022829E+02  0.00000000000E+00 0.  1.
<mgrwt>
<rscale>  0 0.61449910E+02</rscale>
<asrwt>0</asrwt>
<pdfrwt beam="2">  1        2 0.12595802E+00 0.73300866E+02</pdfrwt>
<pdfrwt beam="1">  1       -1 0.44702849E-02 0.51514964E+02</pdfrwt>
<totfact> 0.72951413E+03</totfact>
</mgrwt>
</event>
<event>
 7    1  0.4251803E-004  0.2078698E+03  0.7546771E-02  0.1312822E+00
          1   -1    0    0  502    0  0.00000000000E+00  0.00000000000E+00  0.91809916612E+02  0.91809916612E+02  0.00000000000E+00 0. -1.
          1   -1    0    0  503    0 -0.00000000000E+00 -0.00000000000E+00 -0.19323595467E+04  0.19323595467E+04  0.00000000000E+00 0. -1.
         25    2    1    2    0    0 -0.60841122929E+02  0.17793924924E+03 -0.43783842079E+03  0.49263731570E+03  0.12500009375E+03 0.  0.
          4    1    3    3  501    0  0.28442074425E+02  0.10655084012E+03 -0.24035618517E+03  0.26445177590E+03  0.12700000000E+01 0.  1.
         -4    1    3    3    0  501 -0.89283197354E+02  0.71388409128E+02 -0.19748223562E+03  0.22818553980E+03  0.12700000000E+01 0.  1.
          1    1    1    2  502    0  0.47060637185E+02 -0.21074784616E+03 -0.11751564344E+03  0.24584402512E+03  0.00000000000E+00 0. -1.
          1    1    1    2  503    0  0.13780485744E+02  0.32808596918E+02 -0.12851955659E+04  0.12856881225E+04  0.00000000000E+00 0. -1.
<mgrwt>
<rscale>  0 0.86006318E+02</rscale>
<asrwt>0</asrwt>
<pdfrwt beam="1">  1        1 0.14124603E-01 0.20786980E+03</pdfrwt>
<pdfrwt beam="2">  1        1 0.29728607E+00 0.35585191E+02</pdfrwt>
<totfact> 0.22732440E+02</totfact>
</mgrwt>
</event>
<event>
 7    1  0.4251803E-004  0.1952104E+03  0.7546771E-02  0.1209316E+00
          1   -1    0    0  502    0  0.00000000000E+00  0.00000000000E+00  0.10590767626E+04  0.10590767626E+04  0.00000000000E+00 0. -1.
          1   -1    0    0  503    0 -0.00000000000E+00 -0.00000000000E+00 -0.13804310963E+04  0.13804310963E+04  0.00000000000E+00 0. -1.
         25    2    1    2    0    0  0.10846871366E+03  0.19047541914E+02 -0.96096178631E+02  0.19233237566E+03  0.12501598491E+03 0.  0.
          4    1    3    3  501    0  0.50538864263E+02  0.44590424267E+02  0.10621285310E+02  0.68241536756E+02  0.12700000000E+01 0.  1.
         -4    1    3    3    0  501  0.57929849395E+02 -0.25542882352E+02 -0.10671746394E+03  0.12409083890E+03  0.12700000000E+01 0.  1.
          1    1    1    2  502    0  0.90435414276E+02  0.52937757680E+02  0.99914977558E+03  0.10046299042E+04  0.00000000000E+00 0. -1.
          1    1    1    2  503    0 -0.19890412793E+03 -0.71985299595E+02 -0.12244079306E+04  0.12425455790E+04  0.00000000000E+00 0. -1.
<mgrwt>
<rscale>  0 0.14302491E+03</rscale>
<asrwt>0</asrwt>
<pdfrwt beam="1">  1        1 0.16293489E+00 0.10479013E+03</pdfrwt>
<pdfrwt beam="2">  1        1 0.21237402E+00 0.19521043E+03</pdfrwt>
<totfact> 0.16496833E+01</totfact>
</mgrwt>
</event>
<event>
 7    1  0.4251803E-004  0.8767227E+02  0.7546771E-02  0.1416690E+00
          2   -1    0    0  503    0  0.00000000000E+00  0.00000000000E+00  0.14527366918E+03  0.14527366918E+03  0.00000000000E+00 0. -1.
         -1   -1    0    0    0  501 -0.00000000000E+00 -0.00000000000E+00 -0.15700509769E+03  0.15700509769E+03  0.00000000000E+00 0.  1.
         25    2    1    2    0    0  0.10327036696E+03 -0.27540494817E+02 -0.30221789954E+02  0.16721814666E+03  0.12500121774E+03 0.  0.
          4    1    3    3  502    0  0.39647697526E+02  0.42072415574E+02  0.18955265740E+02  0.60851812385E+02  0.12700000000E+01 0. -1.
         -4    1    3    3    0  502  0.63622669438E+02 -0.69612910390E+02 -0.49177055694E+02  0.10636633427E+03  0.12700000000E+01 0. -1.
          2    1    1    2  503    0 -0.23372602975E+02  0.26616609808E+02  0.38880681689E+02  0.52596862037E+02  0.00000000000E+00 0. -1.
         -1    1    1    2    0  501 -0.79897763989E+02  0.92388500872E+00 -0.20390320243E+02  0.82463758182E+02  0.00000000000E+00 0.  1.
<mgrwt>
<rscale>  0 0.55727304E+02</rscale>
<asrwt>0</asrwt>
<pdfrwt beam="1">  1        2 0.22349795E-01 0.35422062E+02</pdfrwt>
<pdfrwt beam="2">  1       -1 0.24154630E-01 0.87672266E+02</pdfrwt>
<totfact> 0.37141010E+03</totfact>
</mgrwt>
</event>
<event>
 7    1  0.4251803E-004  0.6297145E+02  0.7546771E-02  0.1393036E+00
          2   -1    0    0  502    0  0.00000000000E+00  0.00000000000E+00  0.19417268946E+03  0.19417268946E+03  0.00000000000E+00 0.  1.
          1   -1    0    0  503    0 -0.00000000000E+00 -0.00000000000E+00 -0.14233627004E+03  0.14233627004E+03  0.00000000000E+00 0. -1.
         25    2    1    2    0    0 -0.40478524878E+01 -0.21631844353E+01 -0.24475056380E+02  0.12745170769E+03  0.12499537964E+03 0.  0.
          4    1    3    3  501    0  0.14639245141E+02  0.48960287870E+02 -0.46131731829E+02  0.68856131667E+02  0.12700000000E+01 0. -1.
         -4    1    3    3    0  501 -0.18687097629E+02 -0.51123472305E+02  0.21656675449E+02  0.58595576026E+02  0.12700000000E+01 0. -1.
          2    1    1    2  502    0  0.60953006010E+02 -0.24803592650E+02  0.11689213372E+03  0.13414267805E+03  0.00000000000E+00 0.  1.
          1    1    1    2  503    0 -0.56905153523E+02  0.26966777085E+02 -0.40580657923E+02  0.74914573757E+02  0.00000000000E+00 0. -1.
<mgrwt>
<rscale>  0 0.61157908E+02</rscale>
<asrwt>0</asrwt>
<pdfrwt beam="1">  1        2 0.29872722E-01 0.59396595E+02</pdfrwt>
<pdfrwt beam="2">  1        1 0.21897888E-01 0.62971450E+02</pdfrwt>
<totfact> 0.50065799E+03</totfact>
</mgrwt>
</event>
<event>
 7    1  0.4251803E-004  0.3833680E+02  0.7546771E-02  0.1551026E+00
         -1   -1    0    0    0  501 -0.00000000000E+00  0.00000000000E+00  0.48658534906E+01  0.48658534906E+01  0.00000000000E+00 0.  1.
          2   -1    0    0  503    0  0.00000000000E+00 -0.00000000000E+00 -0.22475296326E+04  0.22475296326E+04  0.00000000000E+00 0. -1.
         25    2    1    2    0    0  0.11139456706E+02  0.13872832205E+02 -0.14821438066E+04  0.14875128375E+04  0.12501054133E+03 0.  0.
          4    1    3    3  502    0  0.49189372633E+02  0.81006756211E+01 -0.13168209579E+04  0.13177648741E+04  0.12700000000E+01 0. -1.
         -4    1    3    3    0  502 -0.38049915927E+02  0.57721565843E+01 -0.16532284872E+03  0.16974796347E+03  0.12700000000E+01 0. -1.
          2    1    1    2  503    0 -0.93411619462E+01 -0.45281058454E+02 -0.56051103336E+03  0.56241466026E+03  0.00000000000E+00 0. -1.
         -1    1    1    2    0  501 -0.17982947593E+01  0.31408226249E+02 -0.20000893916E+03  0.20246798829E+03  0.00000000000E+00 0.  1.
<mgrwt>
<rscale>  0 0.34728416E+02</rscale>
<asrwt>0</asrwt>
<pdfrwt beam="2">  1        2 0.34577332E+00 0.38336800E+02</pdfrwt>
<pdfrwt beam="1">  1       -1 0.74859387E-03 0.31459665E+02</pdfrwt>
<totfact> 0.15573175E+04</totfact>
</mgrwt>
</event>
<event>
 7    1  0.4251803E-004  0.1118824E+03  0.7546771E-02  0.1446167E+00
          2   -1    0    0  503    0  0.00000000000E+00  0.00000000000E+00  0.14417772831E+03  0.14417772831E+03  0.00000000000E+00 0. -1.
         -2   -1    0    0    0  501 -0.00000000000E+00 -0.00000000000E+00 -0.21813399233E+03  0.21813399233E+03  0.00000000000E+00 0.  1.
         25    2    1    2    0    0  0.37707955477E+02  0.11406813749E+03 -0.86133190389E+02  0.19358750561E+03  0.12499506369E+03 0.  0.
          4    1    3    3  502    0 -0.89039549442E+01  0.82080487076E+02 -0.10536048879E+03  0.13386161612E+03  0.12700000000E+01 0.  1.
         -4    1    3    3    0  502  0.46611910421E+02  0.31987650413E+02  0.19227298401E+02  0.59725889494E+02  0.12700000000E+01 0.  1.
          2    1    1    2  503    0 -0.20396935998E+02 -0.87854625749E+01  0.50648701464E+02  0.55303800148E+02  0.00000000000E+00 0. -1.
         -2    1    1    2    0  501 -0.17311019479E+02 -0.10528267491E+03 -0.38471775101E+02  0.11342041488E+03  0.00000000000E+00 0.  1.
<mgrwt>
<rscale>  0 0.49847221E+02</rscale>
<asrwt>0</asrwt>
<pdfrwt beam="1">  1        2 0.22181189E-01 0.22208542E+02</pdfrwt>
<pdfrwt beam="2">  1       -2 0.33559076E-01 0.11188242E+03</pdfrwt>
<totfact> 0.18424719E+03</totfact>
</mgrwt>
</event>
<event>
 7    1  0.4251803E-004  0.3876062E+02  0.7546771E-02  0.1552444E+00
         -1   -1    0    0    0  501 -0.00000000000E+00  0.00000000000E+00  0.57288345002E+02  0.57288345002E+02  0.00000000000E+00 0.  1.
          1   -1    0    0  503    0  0.00000000000E+00 -0.00000000000E+00 -0.24920235204E+03  0.24920235204E+03  0.00000000000E+00 0. -1.
         25    2    1    2    0    0 -0.69276632090E+01 -0.27135487712E+02 -0.54480290401E+02  0.13920095744E+03  0.12499790918E+03 0.  0.
          4    1    3    3  502    0  0.12010395760E+02 -0.74836708949E+02 -0.24085675797E+02  0.79539394587E+02  0.12700000000E+01 0.  1.
         -4    1    3    3    0  502 -0.18938058969E+02  0.47701221237E+02 -0.30394614603E+02  0.59661562852E+02  0.12700000000E+01 0.  1.
          1    1    1    2  503    0  0.38542826062E+02 -0.41032231583E+01 -0.24322755766E+02  0.45760051674E+02  0.00000000000E+00 0.  1.
         -1    1    1    2    0  501 -0.31615162853E+02  0.31238710871E+02 -0.11311096087E+03  0.12152968793E+03  0.00000000000E+00 0. -1.
<mgrwt>
<rscale>  0 0.34570920E+02</rscale>
<asrwt>0</asrwt>
<pdfrwt beam="2">  1        1 0.38338823E-01 0.38760623E+02</pdfrwt>
<pdfrwt beam="1">  1       -1 0.88135917E-02 0.30834089E+02</pdfrwt>
<totfact> 0.68310228E+03</totfact>
</mgrwt>
</event>
<event>
 7    1  0.4251803E-004  0.5951807E+02  0.7546771E-02  0.1441543E+00
          2   -1    0    0  502    0  0.00000000000E+00  0.00000000000E+00  0.14023343289E+03  0.14023343289E+03  0.00000000000E+00 0.  1.
          2   -1    0    0  503    0 -0.00000000000E+00 -0.00000000000E+00 -0.11564055155E+04  0.11564055155E+04  0.00000000000E+00 0. -1.
         25    2    1    2    0    0  0.81472898520E+02 -0.25880177504E+01 -0.16699747526E+02  0.15015437735E+03  0.12499169749E+03 0.  0.
          4    1    3    3  501    0  0.58944032704E+02  0.48359930113E+02 -0.44070908390E+02  0.88073490326E+02  0.12700000000E+01 0.  1.
         -4    1    3    3    0  501  0.22528865816E+02 -0.50947947863E+02  0.27371160864E+02  0.62080887022E+02  0.12700000000E+01 0.  1.
          2    1    1    2  502    0 -0.29590440327E+02  0.31484803533E+02  0.66257787886E+02  0.79101083860E+02  0.00000000000E+00 0.  1.
          2    1    1    2  503    0 -0.51882458192E+02 -0.28896785783E+02 -0.10657301230E+04  0.10673834872E+04  0.00000000000E+00 0. -1.
<mgrwt>
<rscale>  0 0.50711203E+02</rscale>
<asrwt>0</asrwt>
<pdfrwt beam="1">  1        2 0.21574375E-01 0.43207488E+02</pdfrwt>
<pdfrwt beam="2">  1        2 0.17790853E+00 0.59518065E+02</pdfrwt>
<totfact> 0.85796147E+02</totfact>
</mgrwt>
</event>
<event>
 7    1  0.4251803E-004  0.3783077E+02  0.7546771E-02  0.1544817E+00
          1   -1    0    0  503    0  0.00000000000E+00  0.00000000000E+00  0.82623694315E+02  0.82623694315E+02  0.00000000000E+00 0. -1.
         -2   -1    0    0    0  501 -0.00000000000E+00 -0.00000000000E+00 -0.12914401462E+03  0.12914401462E+03  0.00000000000E+00 0.  1.
         25    2    1    2    0    0  0.20426989979E+01  0.72118447647E+01 -0.22820971459E+02  0.12728188155E+03  0.12499478912E+03 0.  0.
          4    1    3    3  502    0  0.20877046289E+01  0.17828398269E+02  0.50279935745E+02  0.53403137867E+02  0.12700000000E+01 0. -1.
         -4    1    3    3    0  502 -0.45005631005E-01 -0.10616553504E+02 -0.73100907205E+02  0.73878743682E+02  0.12700000000E+01 0. -1.
          1    1    1    2  503    0  0.35421811618E+02  0.13283919687E+02 -0.16083043246E+02  0.41107560626E+02  0.00000000000E+00 0. -1.
         -2    1    1    2    0  501 -0.37464510616E+02 -0.20495764451E+02 -0.76163055991E+01  0.43378266760E+02  0.00000000000E+00 0.  1.
<mgrwt>
<rscale>  0 0.35429711E+02</rscale>
<asrwt>0</asrwt>
<pdfrwt beam="1">  1        1 0.12711338E-01 0.37830771E+02</pdfrwt>
<pdfrwt beam="2">  1       -2 0.19868310E-01 0.33181042E+02</pdfrwt>
<totfact> 0.71097475E+03</totfact>
</mgrwt>
</event>
<event>
 7    1  0.4251803E-004  0.9369330E+02  0.7546771E-02  0.1316878E+00
          1   -1    0    0  503    0  0.00000000000E+00  0.00000000000E+00  0.21414797911E+04  0.21414797911E+04  0.00000000000E+00 0. -1.
          1   -1    0    0  502    0 -0.00000000000E+00 -0.00000000000E+00 -0.28067926309E+02  0.28067926309E+02  0.00000000000E+00 0. -1.
         25    2    1    2    0    0  0.16561167942E+01 -0.65144886969E+02  0.64208133092E+03  0.65737599645E+03  0.12501266407E+03 0.  0.
          4    1    3    3  501    0  0.25108663268E+02 -0.94124837310E+01  0.23008448268E+02  0.35355924720E+02  0.12700000000E+01 0. -1.
         -4    1    3    3    0  501 -0.23452546473E+02 -0.55732403238E+02  0.61907288265E+03  0.62202007173E+03  0.12700000000E+01 0. -1.
          1    1    1    2  502    0 -0.75418587929E+02 -0.10293223014E+02  0.60050932077E+02  0.96953743035E+02  0.00000000000E+00 0. -1.
          1    1    1    2  503    0  0.73762471134E+02  0.75438109983E+02  0.14112796017E+04  0.14152179779E+04  0.00000000000E+00 0. -1.
<mgrwt>
<rscale>  0 0.84449539E+02</rscale>
<asrwt>0</asrwt>
<pdfrwt beam="1">  1        1 0.32945830E+00 0.93693304E+02</pdfrwt>
<pdfrwt beam="2">  1        1 0.43181442E-02 0.76117763E+02</pdfrwt>
<totfact> 0.67537821E+02</totfact>
</mgrwt>
</event>
<event>
 7    1  0.4251803E-004  0.6735802E+02  0.7546771E-02  0.1494905E+00
          1   -1    0    0  503    0  0.00000000000E+00  0.00000000000E+00  0.10303548417E+04  0.10303548417E+04  0.00000000000E+00 0. -1.
         -3   -1    0    0    0  501 -0.00000000000E+00 -0.00000000000E+00 -0.81129617492E+02  0.81129617492E+02  0.00000000000E+00 0.  1.
         25    2    1    2    0    0  0.25147460355E+02  0.34363110587E+02  0.56240891030E+03  0.57770496890E+03  0.12500412225E+03 0.  0.
          4    1    3    3  502    0 -0.20865135478E+02 -0.33660366658E+02  0.30363206504E+03  0.30620649566E+03  0.12700000000E+01 0.  1.
         -4    1    3    3    0  502  0.46012595834E+02  0.68023477245E+02  0.25877684526E+03  0.27149847324E+03  0.12700000000E+01 0.  1.
          1    1    1    2  503    0  0.94092127308E+01  0.24262165692E+02  0.44407895673E+03  0.44484076452E+03  0.00000000000E+00 0. -1.
         -3    1    1    2    0  501 -0.34556673086E+02 -0.58625276279E+02 -0.57262642838E+02  0.88938725752E+02  0.00000000000E+00 0.  1.
<mgrwt>
<rscale>  0 0.41866980E+02</rscale>
<asrwt>0</asrwt>
<pdfrwt beam="1">  1        1 0.15851612E+00 0.26022797E+02</pdfrwt>
<pdfrwt beam="2">  1       -3 0.12481480E-01 0.67358017E+02</pdfrwt>
<totfact> 0.43851154E+02</totfact>
</mgrwt>
</event>
<event>
 7    1  0.4251803E-004  0.8486452E+02  0.7546771E-02  0.1441991E+00
          1   -1    0    0  502    0  0.00000000000E+00  0.00000000000E+00  0.20857458633E+04  0.20857458633E+04  0.00000000000E+00 0. -1.
          3   -1    0    0  503    0 -0.00000000000E+00 -0.00000000000E+00 -0.14471453657E+02  0.14471453657E+02  0.00000000000E+00 0. -1.
         25    2    1    2    0    0  0.52859838222E+02  0.40062705515E+02  0.88480978938E+03  0.89605407600E+03  0.12500144347E+03 0.  0.
          4    1    3    3  501    0  0.17179233246E+02  0.74116528471E+02  0.72020932386E+03  0.72421783251E+03  0.12700000000E+01 0. -1.
         -4    1    3    3    0  501  0.35680604976E+02 -0.34053822956E+02  0.16460046552E+03  0.17183624349E+03  0.12700000000E+01 0. -1.
          1    1    1    2  502    0  0.29908329323E+02 -0.41991127634E+01  0.95885949838E+03  0.95933501883E+03  0.00000000000E+00 0. -1.
          3    1    1    2  503    0 -0.82768167545E+02 -0.35863592752E+02  0.22760512192E+03  0.24482822216E+03  0.00000000000E+00 0. -1.
<mgrwt>
<rscale>  0 0.50626575E+02</rscale>
<asrwt>0</asrwt>
<pdfrwt beam="1">  1        1 0.32088374E+00 0.30201667E+02</pdfrwt>
<pdfrwt beam="2">  1        3 0.22263791E-02 0.84864524E+02</pdfrwt>
<totfact> 0.15145260E+03</totfact>
</mgrwt>
</event>
<event>
 7    1  0.4251803E-004  0.2080372E+03  0.7546771E-02  0.1167583E+00
          1   -1    0    0  503    0 -0.00000000000E+00  0.00000000000E+00  0.12980073130E+04  0.12980073130E+04  0.00000000000E+00 0. -1.
          2   -1    0    0  502    0  0.00000000000E+00 -0.00000000000E+00 -0.43380382441E+03  0.43380382441E+03  0.00000000000E+00 0. -1.
         25    2    1    2    0    0 -0.38595160343E+02  0.47354375708E+01  0.15885741866E+03  0.20584916647E+03  0.12500475631E+03 0.  0.
          4    1    3    3  501    0 -0.16845336944E+02  0.44111277653E+02  0.15341233784E+03  0.16051955798E+03  0.12700000000E+01 0.  1.
         -4    1    3    3    0  501 -0.21749823399E+02 -0.39375840082E+02  0.54450808178E+01  0.45329608483E+02  0.12700000000E+01 0.  1.
          2    1    1    2  502    0 -0.37100579381E+02  0.20470224709E+03 -0.37179478807E+03  0.42604087525E+03  0.00000000000E+00 0. -1.
          1    1    1    2  503    0  0.75695739723E+02 -0.20943768466E+03  0.10771408580E+04  0.10999210957E+04  0.00000000000E+00 0. -1.
<mgrwt>
<rscale>  0 0.18022789E+03</rscale>
<asrwt>0</asrwt>
<pdfrwt beam="2">  1        2 0.66739050E-01 0.20803717E+03</pdfrwt>
<pdfrwt beam="1">  1        1 0.19969343E+00 0.15613600E+03</pdfrwt>
<totfact> 0.10258790E+02</totfact>
</mgrwt>
</event>
<event>
 7    1  0.4251803E-004  0.4599551E+02  0.7546771E-02  0.1488597E+00
          2   -1    0    0  502    0  0.00000000000E+00  0.00000000000E+00  0.29944691149E+03  0.29944691149E+03  0.00000000000E+00 0. -1.
          1   -1    0    0  503    0 -0.00000000000E+00 -0.00000000000E+00 -0.99143838420E+03  0.99143838420E+03  0.00000000000E+00 0. -1.
         25    2    1    2    0    0  0.40926102881E+02 -0.64473780311E+02  0.19616193436E+03  0.24483183612E+03  0.12502523442E+03 0.  0.
          4    1    3    3  501    0  0.75668394448E+02 -0.60247982970E+02  0.86686284450E+02  0.12989091647E+03  0.12700000000E+01 0.  1.
         -4    1    3    3    0  501 -0.34742291567E+02 -0.42257973410E+01  0.10947564991E+03  0.11494091965E+03  0.12700000000E+01 0.  1.
          2    1    1    2  502    0 -0.10583430821E+02  0.38691894066E+02  0.73416064791E+02  0.83659967988E+02  0.00000000000E+00 0. -1.
          1    1    1    2  503    0 -0.30342672060E+02  0.25781886244E+02 -0.96156947186E+03  0.96239349157E+03  0.00000000000E+00 0. -1.
<mgrwt>
<rscale>  0 0.42794829E+02</rscale>
<asrwt>0</asrwt>
<pdfrwt beam="1">  1        2 0.46068755E-01 0.45995511E+02</pdfrwt>
<pdfrwt beam="2">  1        1 0.15252898E+00 0.39816873E+02</pdfrwt>
<totfact> 0.27139025E+02</totfact>
</mgrwt>
</event>
<event>
 7    1  0.4251803E-004  0.2831802E+02  0.7546771E-02  0.1620761E+00
          1   -1    0    0  503    0 -0.00000000000E+00  0.00000000000E+00  0.12448119933E+04  0.12448119933E+04  0.00000000000E+00 0. -1.
          2   -1    0    0  502    0  0.00000000000E+00 -0.00000000000E+00 -0.15012858472E+03  0.15012858472E+03  0.00000000000E+00 0. -1.
         25    2    1    2    0    0 -0.80614207627E+01 -0.24925976047E+02 -0.28063616048E+02  0.13075977787E+03  0.12499704867E+03 0.  0.
          4    1    3    3  501    0  0.42996526176E+02 -0.25987373613E+01  0.28247123008E+02  0.51526377297E+02  0.12700000000E+01 0.  1.
         -4    1    3    3    0  501 -0.51057946939E+02 -0.22327238686E+02 -0.56310739057E+02  0.79233400571E+02  0.12700000000E+01 0.  1.
          2    1    1    2  502    0 -0.19767837236E+02  0.19510761232E+02 -0.67814400731E+02  0.73281854093E+02  0.00000000000E+00 0. -1.
          1    1    1    2  503    0  0.27829257998E+02  0.54152148150E+01  0.11905614254E+04  0.11908989461E+04  0.00000000000E+00 0. -1.
<mgrwt>
<rscale>  0 0.28045076E+02</rscale>
<asrwt>0</asrwt>
<pdfrwt beam="2">  1        2 0.23096706E-01 0.27774758E+02</pdfrwt>
<pdfrwt beam="1">  1        1 0.19150953E+00 0.28318025E+02</pdfrwt>
<totfact> 0.38020484E+02</totfact>
</mgrwt>
</event>
<event>
 7    1  0.4251803E-004  0.5627457E+02  0.7546771E-02  0.1526530E+00
         -3   -1    0    0    0  501 -0.00000000000E+00  0.00000000000E+00  0.46523338273E+02  0.46523338273E+02  0.00000000000E+00 0.  1.
          2   -1    0    0  503    0  0.00000000000E+00 -0.00000000000E+00 -0.16806919117E+04  0.16806919117E+04  0.00000000000E+00 0. -1.
         25    2    1    2    0    0  0.75137268354E+02  0.13284676945E+02 -0.63153401348E+03  0.64829350903E+03  0.12500868739E+03 0.  0.
          4    1    3    3  502    0  0.34697272249E+02  0.26756180209E+02 -0.57887940599E+03  0.58053662542E+03  0.12700000000E+01 0.  1.
         -4    1    3    3    0  502  0.40439996105E+02 -0.13471503264E+02 -0.52654607492E+02  0.67756883601E+02  0.12700000000E+01 0.  1.
          2    1    1    2  503    0 -0.50895017459E+02 -0.19955034166E+02 -0.10358341430E+04  0.10372757001E+04  0.00000000000E+00 0. -1.
         -3    1    1    2    0  501 -0.24242250895E+02  0.66703572208E+01  0.33199583123E+02  0.41646040790E+02  0.00000000000E+00 0.  1.
<mgrwt>
<rscale>  0 0.37615457E+02</rscale>
<asrwt>0</asrwt>
<pdfrwt beam="2">  1        2 0.25856793E+00 0.56274570E+02</pdfrwt>
<pdfrwt beam="1">  1       -3 0.71574381E-02 0.25143198E+02</pdfrwt>
<totfact> 0.72812585E+02</totfact>
</mgrwt>
</event>
<event>
 7    1  0.4667799E-004  0.9213136E+02  0.7546771E-02  0.1355380E+00
         -1   -1    0    0    0  501 -0.00000000000E+00  0.00000000000E+00  0.72816595237E+03  0.72816595237E+03  0.00000000000E+00 0.  1.
          1   -1    0    0  503    0  0.00000000000E+00 -0.00000000000E+00 -0.38978786932E+02  0.38978786932E+02  0.00000000000E+00 0. -1.
         25    2    1    2    0    0 -0.67917013228E+02 -0.10679274471E+03  0.31356714749E+03  0.36051080506E+03  0.12500509421E+03 0.  0.
          4    1    3    3  502    0 -0.55178963714E+02 -0.10435198961E+03  0.32334388440E+03  0.34421931417E+03  0.12700000000E+01 0.  1.
         -4    1    3    3    0  502 -0.12738049514E+02 -0.24407550941E+01 -0.97767369106E+01  0.16291490891E+02  0.12700000000E+01 0.  1.
          1    1    1    2  503    0  0.17501342769E+00  0.55340756162E+02  0.69102227429E+02  0.88531055330E+02  0.00000000000E+00 0. -1.
         -1    1    1    2    0  501  0.67741999800E+02  0.51451988546E+02  0.30651779053E+03  0.31810287891E+03  0.00000000000E+00 0.  1.
<mgrwt>
<rscale>  0 0.71404796E+02</rscale>
<asrwt>0</asrwt>
<pdfrwt beam="2">  1        1 0.59967370E-02 0.55341033E+02</pdfrwt>
<pdfrwt beam="1">  1       -1 0.11202552E+00 0.92131365E+02</pdfrwt>
<totfact> 0.93295783E+02</totfact>
</mgrwt>
</event>
<event>
 7    1  0.4251803E-004  0.7177550E+02  0.7546771E-02  0.1396143E+00
         -1   -1    0    0    0  501 -0.00000000000E+00  0.00000000000E+00  0.10544927576E+04  0.10544927576E+04  0.00000000000E+00 0.  1.
          2   -1    0    0  503    0  0.00000000000E+00 -0.00000000000E+00 -0.28014062618E+02  0.28014062618E+02  0.00000000000E+00 0. -1.
         25    2    1    2    0    0  0.66647235943E+02 -0.53307382995E+02  0.21741810635E+03  0.26491107974E+03  0.12499486413E+03 0.  0.
          4    1    3    3  502    0 -0.24210492919E+02 -0.54484953157E+02  0.10004690975E+03  0.11647212172E+03  0.12700000000E+01 0. -1.
         -4    1    3    3    0  502  0.90857728863E+02  0.11775701622E+01  0.11737119660E+03  0.14843895802E+03  0.12700000000E+01 0. -1.
          2    1    1    2  503    0 -0.61518402391E+02  0.27323920983E+01  0.31772000016E+03  0.32363247412E+03  0.00000000000E+00 0. -1.
         -1    1    1    2    0  501 -0.51288335527E+01  0.50574990897E+02  0.49134058845E+03  0.49396326634E+03  0.00000000000E+00 0.  1.
<mgrwt>
<rscale>  0 0.60404167E+02</rscale>
<asrwt>0</asrwt>
<pdfrwt beam="2">  1        2 0.43098566E-02 0.71775500E+02</pdfrwt>
<pdfrwt beam="1">  1       -1 0.16222962E+00 0.50834384E+02</pdfrwt>
<totfact> 0.66937869E+02</totfact>
</mgrwt>
</event>
<event>
 7    1  0.4251803E-004  0.3459769E+02  0.7546771E-02  0.1626624E+00
          2   -1    0    0  503    0  0.00000000000E+00  0.00000000000E+00  0.19348669794E+04  0.19348669794E+04  0.00000000000E+00 0. -1.
         -1   -1    0    0    0  501 -0.00000000000E+00 -0.00000000000E+00 -0.71794671023E+01  0.71794671023E+01  0.00000000000E+00 0.  1.
         25    2    1    2    0    0  0.17285739304E+02 -0.22620326919E+02  0.15246915183E+04  0.15300718560E+04  0.12500073070E+03 0.  0.
          4    1    3    3  502    0  0.62878401792E+02  0.13327366509E+02  0.10256235353E+04  0.10276363954E+04  0.12700000000E+01 0.  1.
         -4    1    3    3    0  502 -0.45592662488E+02 -0.35947693427E+02  0.49906798297E+03  0.50243546059E+03  0.12700000000E+01 0.  1.
          2    1    1    2  503    0 -0.18604821676E+01  0.38262579686E+02  0.37208730652E+03  0.37405407372E+03  0.00000000000E+00 0. -1.
         -1    1    1    2    0  501 -0.15425257136E+02 -0.15642252767E+02  0.30908687543E+02  0.37920516808E+02  0.00000000000E+00 0.  1.
<mgrwt>
<rscale>  0 0.27569225E+02</rscale>
<asrwt>0</asrwt>
<pdfrwt beam="1">  1        2 0.29767143E+00 0.34597689E+02</pdfrwt>
<pdfrwt beam="2">  1       -1 0.11045349E-02 0.21968583E+02</pdfrwt>
<totfact> 0.12158716E+04</totfact>
</mgrwt>
</event>
<event>
 7    1  0.4251803E-004  0.6543980E+02  0.7546771E-02  0.1399973E+00
          2   -1    0    0  503    0  0.00000000000E+00  0.00000000000E+00  0.39244105305E+04  0.39244105305E+04  0.00000000000E+00 0. -1.
         -1   -1    0    0    0  501 -0.00000000000E+00 -0.00000000000E+00 -0.50567149493E+03  0.50567149493E+03  0.00000000000E+00 0.  1.
         25    2    1    2    0    0 -0.38949098812E+02 -0.10659827754E+03  0.10898183454E+03  0.20094886221E+03  0.12499271935E+03 0.  0.
          4    1    3    3  502    0 -0.78338199370E+02 -0.40478034864E+02  0.37246160243E+02  0.95730006475E+02  0.12700000000E+01 0. -1.
         -4    1    3    3    0  502  0.39389100557E+02 -0.66120242681E+02  0.71735674297E+02  0.10521885573E+03  0.12700000000E+01 0. -1.
          2    1    1    2  503    0  0.38598311596E+02  0.52513449869E+02  0.37675714702E+04  0.37681351190E+04  0.00000000000E+00 0. -1.
         -1    1    1    2    0  501  0.35078721633E+00  0.54084827676E+02 -0.45781426921E+03  0.46099804417E+03  0.00000000000E+00 0.  1.
<mgrwt>
<rscale>  0 0.59492644E+02</rscale>
<asrwt>0</asrwt>
<pdfrwt beam="1">  1        2 0.60375545E+00 0.65439800E+02</pdfrwt>
<pdfrwt beam="2">  1       -1 0.77795617E-01 0.54085965E+02</pdfrwt>
<totfact> 0.14336982E+00</totfact>
</mgrwt>
</event>
<event>
 7    1  0.4251803E-004  0.6960381E+02  0.7546771E-02  0.1423486E+00
          2   -1    0    0  502    0  0.00000000000E+00  0.00000000000E+00  0.15230694331E+03  0.15230694331E+03  0.00000000000E+00 0. -1.
          2   -1    0    0  503    0 -0.00000000000E+00 -0.00000000000E+00 -0.21802719771E+04  0.21802719771E+04  0.00000000000E+00 0. -1.
         25    2    1    2    0    0 -0.30575779772E+02 -0.56971066073E+02 -0.16676622314E+04  0.16735896555E+04  0.12499774548E+03 0.  0.
          4    1    3    3  501    0 -0.17348420062E+02  0.25442934663E+02 -0.12770877458E+03  0.13137524351E+03  0.12700000000E+01 0. -1.
         -4    1    3    3    0  501 -0.13227359710E+02 -0.82414000736E+02 -0.15399534568E+04  0.15422144120E+04  0.12700000000E+01 0. -1.
          2    1    1    2  502    0 -0.10036334334E+02  0.68963390632E+02  0.14027025613E+03  0.15662829249E+03  0.00000000000E+00 0. -1.
          2    1    1    2  503    0  0.40612114106E+02 -0.11992324559E+02 -0.50057305851E+03  0.50236097237E+03  0.00000000000E+00 0. -1.
<mgrwt>
<rscale>  0 0.54290174E+02</rscale>
<asrwt>0</asrwt>
<pdfrwt beam="1">  1        2 0.23431840E-01 0.69603806E+02</pdfrwt>
<pdfrwt beam="2">  1        2 0.33542642E+00 0.42345716E+02</pdfrwt>
<totfact> 0.25649332E+02</totfact>
</mgrwt>
</event>
<event>
 7    1  0.4251803E-004  0.3406471E+02  0.7546771E-02  0.1578322E+00
         -3   -1    0    0    0  501 -0.00000000000E+00  0.00000000000E+00  0.55826214238E+02  0.55826214238E+02  0.00000000000E+00 0.  1.
          2   -1    0    0  503    0  0.00000000000E+00 -0.00000000000E+00 -0.59579408336E+03  0.59579408336E+03  0.00000000000E+00 0. -1.
         25    2    1    2    0    0 -0.24702555324E+02 -0.25345117184E+02 -0.36084208568E+03  0.38351512197E+03  0.12499698706E+03 0.  0.
          4    1    3    3  502    0 -0.68967041907E+02 -0.34516023176E+02 -0.28463006804E+03  0.29489607874E+03  0.12700000000E+01 0. -1.
         -4    1    3    3    0  502  0.44264486582E+02  0.91709059918E+01 -0.76212017641E+02  0.88619043225E+02  0.12700000000E+01 0. -1.
          2    1    1    2  503    0 -0.94439837208E+01  0.28275830678E+02 -0.21583511454E+03  0.21788416211E+03  0.00000000000E+00 0. -1.
         -3    1    1    2    0  501  0.34146539045E+02 -0.29307134940E+01  0.36709331094E+02  0.50221013527E+02  0.00000000000E+00 0.  1.
<mgrwt>
<rscale>  0 0.31867098E+02</rscale>
<asrwt>0</asrwt>
<pdfrwt beam="2">  1        2 0.91660623E-01 0.29811263E+02</pdfrwt>
<pdfrwt beam="1">  1       -3 0.85886489E-02 0.34064706E+02</pdfrwt>
<totfact> 0.24558343E+03</totfact>
</mgrwt>
</event>
<event>
 7    1  0.4251803E-004  0.2861932E+02  0.7546771E-02  0.1636767E+00
         -2   -1    0    0    0  501 -0.00000000000E+00  0.00000000000E+00  0.13505566380E+02  0.13505566380E+02  0.00000000000E+00 0.  1.
          1   -1    0    0  503    0  0.00000000000E+00 -0.00000000000E+00 -0.12981696818E+04  0.12981696818E+04  0.00000000000E+00 0. -1.
         25    2    1    2    0    0  0.24307369438E+02 -0.43369691974E+02 -0.39878293664E+03  0.42088744762E+03  0.12508650852E+03 0.  0.
          4    1    3    3  502    0  0.46343168141E+02  0.26342720037E+02 -0.24320759111E+03  0.24898428345E+03  0.12700000000E+01 0.  1.
         -4    1    3    3    0  502 -0.22035798703E+02 -0.69712412011E+02 -0.15557534553E+03  0.17190316416E+03  0.12700000000E+01 0.  1.
          1    1    1    2  503    0 -0.14964287559E+02  0.20084077721E+02 -0.81856103306E+03  0.81894411587E+03  0.00000000000E+00 0. -1.
         -2    1    1    2    0  501 -0.93430818790E+01  0.23285614253E+02 -0.67320145706E+02  0.71843684677E+02  0.00000000000E+00 0.  1.
<mgrwt>
<rscale>  0 0.26773090E+02</rscale>
<asrwt>0</asrwt>
<pdfrwt beam="2">  1        1 0.19971841E+00 0.25045959E+02</pdfrwt>
<pdfrwt beam="1">  1       -2 0.20777795E-02 0.28619321E+02</pdfrwt>
<totfact> 0.56733735E+03</totfact>
</mgrwt>
</event>
<event>
 7    1  0.4251803E-004  0.4322639E+02  0.7546771E-02  0.1500322E+00
          3   -1    0    0  503    0 -0.00000000000E+00  0.00000000000E+00  0.14345672019E+03  0.14345672019E+03  0.00000000000E+00 0. -1.
          1   -1    0    0  502    0  0.00000000000E+00 -0.00000000000E+00 -0.29021233205E+04  0.29021233205E+04  0.00000000000E+00 0. -1.
         25    2    1    2    0    0 -0.36449119120E+02  0.50036660319E+02 -0.15019180322E+03  0.20497530009E+03  0.12500036093E+03 0.  0.
          4    1    3    3  501    0 -0.38347892901E+02  0.90820534487E+02 -0.10864028341E+03  0.14670805858E+03  0.12700000000E+01 0. -1.
         -4    1    3    3    0  501  0.18987737812E+01 -0.40783874168E+02 -0.41551519807E+02  0.58267241502E+02  0.12700000000E+01 0. -1.
          1    1    1    2  502    0 -0.51430560953E+01 -0.38723974091E+02 -0.27203928753E+04  0.27206733346E+04  0.00000000000E+00 0. -1.
          3    1    1    2  503    0  0.41592175215E+02 -0.11312686227E+02  0.11191807826E+03  0.11993140602E+03  0.00000000000E+00 0. -1.
<mgrwt>
<rscale>  0 0.41092533E+02</rscale>
<asrwt>0</asrwt>
<pdfrwt beam="2">  1        1 0.44648047E+00 0.39064014E+02</pdfrwt>
<pdfrwt beam="1">  1        3 0.22070267E-01 0.43226389E+02</pdfrwt>
<totfact> 0.10460795E+01</totfact>
</mgrwt>
</event>
<event>
 7    1  0.4363562E-004  0.1631447E+03  0.7546771E-02  0.1394375E+00
          2   -1    0    0  503    0  0.00000000000E+00  0.00000000000E+00  0.38044157964E+03  0.38044157964E+03  0.00000000000E+00 0. -1.
         -1   -1    0    0    0  501 -0.00000000000E+00 -0.00000000000E+00 -0.10974593838E+03  0.10974593838E+03  0.00000000000E+00 0.  1.
         25    2    1    2    0    0 -0.17563181677E+03  0.10269989518E+01  0.14412344567E+03  0.25930955984E+03  0.12498916131E+03 0.  0.
          4    1    3    3  502    0 -0.19015789448E+03 -0.98577445975E+01  0.14742391004E+03  0.24081657358E+03  0.12700000000E+01 0. -1.
         -4    1    3    3    0  502  0.14526077710E+02  0.10884743549E+02 -0.33004643652E+01  0.18492986260E+02  0.12700000000E+01 0. -1.
          2    1    1    2  503    0  0.20157276797E+02 -0.10400257322E+02  0.54941563603E+02  0.59439520282E+02  0.00000000000E+00 0. -1.
         -1    1    1    2    0  501  0.15547453997E+03  0.93732583699E+01  0.71630631981E+02  0.17143843790E+03  0.00000000000E+00 0.  1.
<mgrwt>
<rscale>  0 0.60831542E+02</rscale>
<asrwt>0</asrwt>
<pdfrwt beam="1">  1        2 0.58529473E-01 0.22682177E+02</pdfrwt>
<pdfrwt beam="2">  1       -1 0.16883991E-01 0.16314468E+03</pdfrwt>
<totfact> 0.25053729E+03</totfact>
</mgrwt>
</event>
<event>
 7    1  0.4251803E-004  0.1413923E+03  0.7546771E-02  0.1369777E+00
          2   -1    0    0  502    0  0.00000000000E+00  0.00000000000E+00  0.87263658375E+03  0.87263658375E+03  0.00000000000E+00 0. -1.
          1   -1    0    0  503    0 -0.00000000000E+00 -0.00000000000E+00 -0.10464529500E+04  0.10464529500E+04  0.00000000000E+00 0. -1.
         25    2    1    2    0    0  0.12570649654E+03 -0.28677421376E+01 -0.43765449702E+03  0.47220607020E+03  0.12500706683E+03 0.  0.
          4    1    3    3  501    0  0.15276019755E+02  0.50150256631E+02 -0.16877357599E+03  0.17673295638E+03  0.12700000000E+01 0.  1.
         -4    1    3    3    0  501  0.11043047678E+03 -0.53017998769E+02 -0.26888092103E+03  0.29547311382E+03  0.12700000000E+01 0.  1.
          2    1    1    2  502    0 -0.13786562271E+03  0.32431054876E+02  0.84905897080E+03  0.86079024109E+03  0.00000000000E+00 0. -1.
          1    1    1    2  503    0  0.12159126170E+02 -0.29563312738E+02 -0.58522084006E+03  0.58609322249E+03  0.00000000000E+00 0. -1.
<mgrwt>
<rscale>  0 0.67229201E+02</rscale>
<asrwt>0</asrwt>
<pdfrwt beam="1">  1        2 0.13425178E+00 0.14139230E+03</pdfrwt>
<pdfrwt beam="2">  1        1 0.16099276E+00 0.31966135E+02</pdfrwt>
<totfact> 0.76423417E+01</totfact>
</mgrwt>
</event>
<event>
 7    1  0.4251803E-004  0.5550243E+02  0.7546771E-02  0.1467221E+00
         -2   -1    0    0    0  501 -0.00000000000E+00  0.00000000000E+00  0.26977192661E+02  0.26977192661E+02  0.00000000000E+00 0.  1.
          2   -1    0    0  503    0  0.00000000000E+00 -0.00000000000E+00 -0.63581927351E+03  0.63581927351E+03  0.00000000000E+00 0. -1.
         25    2    1    2    0    0 -0.51984893146E+02 -0.42234770510E+02 -0.40244581111E+03  0.42670528507E+03  0.12501425706E+03 0.  0.
          4    1    3    3  502    0 -0.42435246228E+02 -0.12216770355E+02 -0.31105887375E+02  0.54029517208E+02  0.12700000000E+01 0. -1.
         -4    1    3    3    0  502 -0.95496469179E+01 -0.30018000155E+02 -0.37133992374E+03  0.37267576786E+03  0.12700000000E+01 0. -1.
          2    1    1    2  503    0 -0.32138963404E+01  0.38257034895E+02 -0.15792182161E+03  0.16252148039E+03  0.00000000000E+00 0. -1.
         -2    1    1    2    0  501  0.55198789487E+02  0.39777356152E+01 -0.48474448130E+02  0.73569700713E+02  0.00000000000E+00 0.  1.
<mgrwt>
<rscale>  0 0.46160999E+02</rscale>
<asrwt>0</asrwt>
<pdfrwt beam="2">  1        2 0.97818343E-01 0.38391794E+02</pdfrwt>
<pdfrwt beam="1">  1       -2 0.41503376E-02 0.55502430E+02</pdfrwt>
<totfact> 0.10954884E+04</totfact>
</mgrwt>
</event>
<event>
 7    1  0.4251803E-004  0.4701323E+02  0.7546771E-02  0.1487824E+00
          1   -1    0    0  503    0  0.00000000000E+00  0.00000000000E+00  0.57218955424E+02  0.57218955424E+02  0.00000000000E+00 0. -1.
         -2   -1    0    0    0  501 -0.00000000000E+00 -0.00000000000E+00 -0.26304863353E+03  0.26304863353E+03  0.00000000000E+00 0.  1.
         25    2    1    2    0    0  0.58617924944E+02  0.27579077687E+02 -0.13849355590E+03  0.19749594071E+03  0.12501005929E+03 0.  0.
          4    1    3    3  502    0  0.70711513074E+02  0.33541732751E+01 -0.15165159269E+03  0.16736542960E+03  0.12700000000E+01 0. -1.
         -4    1    3    3    0  502 -0.12093588130E+02  0.24224904412E+02  0.13158036795E+02  0.30130511113E+02  0.12700000000E+01 0. -1.
          1    1    1    2  503    0 -0.21684309534E+02 -0.40612358714E+02 -0.13754010885E+01  0.46059360487E+02  0.00000000000E+00 0. -1.
         -2    1    1    2    0  501 -0.36933615410E+02  0.13033281027E+02 -0.65960721119E+02  0.76712287752E+02  0.00000000000E+00 0.  1.
<mgrwt>
<rscale>  0 0.42910485E+02</rscale>
<asrwt>0</asrwt>
<pdfrwt beam="1">  1        1 0.88029162E-02 0.47013226E+02</pdfrwt>
<pdfrwt beam="2">  1       -2 0.40469021E-01 0.39165780E+02</pdfrwt>
<totfact> 0.33957178E+03</totfact>
</mgrwt>
</event>
<event>
 7    1  0.4251803E-004  0.5864014E+02  0.7546771E-02  0.1441572E+00
          2   -1    0    0  503    0  0.00000000000E+00  0.00000000000E+00  0.12316978481E+03  0.12316978481E+03  0.00000000000E+00 0. -1.
         -1   -1    0    0    0  501 -0.00000000000E+00 -0.00000000000E+00 -0.15869557182E+03  0.15869557182E+03  0.00000000000E+00 0.  1.
         25    2    1    2    0    0  0.70570155557E+02 -0.40823047066E+02 -0.58391937001E+02  0.16024288356E+03  0.12498598080E+03 0.  0.
          4    1    3    3  502    0 -0.32157713433E+02 -0.26576179422E+02 -0.10990090917E+01  0.41752036679E+02  0.12700000000E+01 0.  1.
         -4    1    3    3    0  502  0.10272786899E+03 -0.14246867644E+02 -0.57292927909E+02  0.11849084688E+03  0.12700000000E+01 0.  1.
          2    1    1    2  503    0 -0.17366257907E+02  0.40258795946E+02  0.46049757700E+02  0.63584099813E+02  0.00000000000E+00 0. -1.
         -1    1    1    2    0  501 -0.53203897651E+02  0.56425111949E+00 -0.23183607708E+02  0.58038373262E+02  0.00000000000E+00 0.  1.
<mgrwt>
<rscale>  0 0.50705615E+02</rscale>
<asrwt>0</asrwt>
<pdfrwt beam="1">  1        2 0.18949198E-01 0.43844698E+02</pdfrwt>
<pdfrwt beam="2">  1       -1 0.24414703E-01 0.58640142E+02</pdfrwt>
<totfact> 0.43527369E+03</totfact>
</mgrwt>
</event>
<event>
 7    1  0.4251803E-004  0.1055797E+03  0.7546771E-02  0.1274659E+00
          1   -1    0    0  503    0  0.00000000000E+00  0.00000000000E+00  0.18874350145E+03  0.18874350145E+03  0.00000000000E+00 0. -1.
          1   -1    0    0  502    0 -0.00000000000E+00 -0.00000000000E+00 -0.75786428171E+03  0.75786428171E+03  0.00000000000E+00 0. -1.
         25    2    1    2    0    0  0.19725607725E+03  0.21710954398E+02 -0.78671945026E+01  0.23466656171E+03  0.12500070753E+03 0.  0.
          4    1    3    3  501    0  0.29355057461E+02  0.54965551652E+02  0.76666453923E+01  0.62795872624E+02  0.12700000000E+01 0. -1.
         -4    1    3    3    0  501  0.16790101979E+03 -0.33254597255E+02 -0.15533839895E+02  0.17187068908E+03  0.12700000000E+01 0. -1.
          1    1    1    2  502    0 -0.10183471140E+03  0.80540651286E+01 -0.59708244165E+03  0.60575788772E+03  0.00000000000E+00 0. -1.
          1    1    1    2  503    0 -0.95421365851E+02 -0.29765019526E+02  0.35828855890E+02  0.10618333373E+03  0.00000000000E+00 0. -1.
<mgrwt>
<rscale>  0 0.10272938E+03</rscale>
<asrwt>0</asrwt>
<pdfrwt beam="1">  1        1 0.29037461E-01 0.99955958E+02</pdfrwt>
<pdfrwt beam="2">  1        1 0.11659451E+00 0.10557975E+03</pdfrwt>
<totfact> 0.48597480E+02</totfact>
</mgrwt>
</event>
<event>
 7    1  0.4251803E-004  0.7659579E+02  0.7546771E-02  0.1371101E+00
          1   -1    0    0  502    0  0.00000000000E+00  0.00000000000E+00  0.66127028383E+03  0.66127028383E+03  0.00000000000E+00 0. -1.
          3   -1    0    0  503    0 -0.00000000000E+00 -0.00000000000E+00 -0.79221157363E+03  0.79221157363E+03  0.00000000000E+00 0. -1.
         25    2    1    2    0    0 -0.11096042045E+03  0.18346140977E+02  0.12288178423E+03  0.20826287216E+03  0.12499878092E+03 0.  0.
          4    1    3    3  501    0  0.23681331288E+02  0.39499646332E+01 -0.19069542252E+01  0.24117567179E+02  0.12700000000E+01 0.  1.
         -4    1    3    3    0  501 -0.13464175173E+03  0.14396176343E+02  0.12478873845E+03  0.18414530498E+03  0.12700000000E+01 0.  1.
          1    1    1    2  502    0  0.50832979087E+02  0.28679678500E+02  0.49202516798E+03  0.49547480425E+03  0.00000000000E+00 0. -1.
          3    1    1    2  503    0  0.60127441358E+02 -0.47025819477E+02 -0.74584824201E+03  0.74974418104E+03  0.00000000000E+00 0. -1.
<mgrwt>
<rscale>  0 0.66862104E+02</rscale>
<asrwt>0</asrwt>
<pdfrwt beam="1">  1        1 0.10173389E+00 0.58365364E+02</pdfrwt>
<pdfrwt beam="2">  1        3 0.12187870E+00 0.76595785E+02</pdfrwt>
<totfact> 0.10058977E+01</totfact>
</mgrwt>
</event>
<event>
 7    1  0.4251803E-004  0.6063190E+02  0.7546771E-02  0.1457310E+00
         -1   -1    0    0    0  501 -0.00000000000E+00  0.00000000000E+00  0.10823449881E+02  0.10823449881E+02  0.00000000000E+00 0.  1.
          1   -1    0    0  503    0  0.00000000000E+00 -0.00000000000E+00 -0.16572592190E+04  0.16572592190E+04  0.00000000000E+00 0. -1.
         25    2    1    2    0    0  0.32924198620E+02  0.70952998024E+02 -0.84647820226E+03  0.85922188054E+03  0.12497424659E+03 0.  0.
          4    1    3    3  502    0 -0.44979921692E+02  0.48830350326E+02 -0.37162954192E+03  0.37751519942E+03  0.12700000000E+01 0.  1.
         -4    1    3    3    0  502  0.77904120312E+02  0.22122647699E+02 -0.47484866034E+03  0.48170668111E+03  0.12700000000E+01 0.  1.
          1    1    1    2  503    0  0.27337739982E+01 -0.58534212756E+02 -0.69226515842E+03  0.69474079853E+03  0.00000000000E+00 0. -1.
         -1    1    1    2    0  501 -0.35657972618E+02 -0.12418785268E+02 -0.10769240843E+03  0.11411998980E+03  0.00000000000E+00 0.  1.
<mgrwt>
<rscale>  0 0.47847466E+02</rscale>
<asrwt>0</asrwt>
<pdfrwt beam="2">  1        1 0.25496270E+00 0.60631901E+02</pdfrwt>
<pdfrwt beam="1">  1       -1 0.16651478E-02 0.37758671E+02</pdfrwt>
<totfact> 0.44712630E+03</totfact>
</mgrwt>
</event>
<event>
 7    1  0.4251803E-004  0.6199476E+02  0.7546771E-02  0.1501041E+00
          2   -1    0    0  503    0  0.00000000000E+00  0.00000000000E+00  0.46628523145E+03  0.46628523145E+03  0.00000000000E+00 0. -1.
         -1   -1    0    0    0  501 -0.00000000000E+00 -0.00000000000E+00 -0.34038449710E+02  0.34038449710E+02  0.00000000000E+00 0.  1.
         25    2    1    2    0    0 -0.40503257693E+01 -0.68830262263E+02  0.20750239489E+03  0.25186784679E+03  0.12500463279E+03 0.  0.
          4    1    3    3  502    0  0.58543703182E+02 -0.28057068738E+02  0.12289480552E+03  0.13899392221E+03  0.12700000000E+01 0.  1.
         -4    1    3    3    0  502 -0.62594028951E+02 -0.40773193525E+02  0.84607589366E+02  0.11287392457E+03  0.12700000000E+01 0.  1.
          2    1    1    2  503    0 -0.20751818028E+02  0.57900530682E+02  0.20727937775E+03  0.21621251084E+03  0.00000000000E+00 0. -1.
         -1    1    1    2    0  501  0.24802143797E+02  0.10929731580E+02  0.17465009107E+02  0.32243323533E+02  0.00000000000E+00 0.  1.
<mgrwt>
<rscale>  0 0.40991236E+02</rscale>
<asrwt>0</asrwt>
<pdfrwt beam="1">  1        2 0.71736185E-01 0.61994758E+02</pdfrwt>
<pdfrwt beam="2">  1       -1 0.52366849E-02 0.27103604E+02</pdfrwt>
<totfact> 0.10140425E+04</totfact>
</mgrwt>
</event>
<event>
 7    1  0.4251803E-004  0.1274835E+03  0.7546771E-02  0.1415142E+00
          2   -1    0    0  502    0  0.00000000000E+00  0.00000000000E+00  0.57692387268E+03  0.57692387268E+03  0.00000000000E+00 0. -1.
          1   -1    0    0  503    0 -0.00000000000E+00 -0.00000000000E+00 -0.18995312802E+03  0.18995312802E+03  0.00000000000E+00 0. -1.
         25    2    1    2    0    0 -0.14537158443E+03  0.23904775806E+02  0.14501068044E+02  0.19375016872E+03  0.12499804415E+03 0.  0.
          4    1    3    3  501    0 -0.92366825979E+02  0.10706307460E+02  0.69598874615E+02  0.11615451695E+03  0.12700000000E+01 0.  1.
         -4    1    3    3    0  501 -0.53004758447E+02  0.13198468346E+02 -0.55097806570E+02  0.77595651769E+02  0.12700000000E+01 0.  1.
          2    1    1    2  502    0  0.12530961830E+03 -0.95755013837E+01  0.46276492154E+03  0.47952639476E+03  0.00000000000E+00 0. -1.
          1    1    1    2  503    0  0.20061966124E+02 -0.14329274423E+02 -0.90295244928E+02  0.93600437215E+02  0.00000000000E+00 0. -1.
<mgrwt>
<rscale>  0 0.56062070E+02</rscale>
<asrwt>0</asrwt>
<pdfrwt beam="1">  1        2 0.88757518E-01 0.12748355E+03</pdfrwt>
<pdfrwt beam="2">  1        1 0.29223558E-01 0.24653815E+02</pdfrwt>
<totfact> 0.10828790E+03</totfact>
</mgrwt>
</event>
<event>
 7    1  0.4251803E-004  0.4849666E+02  0.7546771E-02  0.1500766E+00
         -3   -1    0    0    0  501 -0.00000000000E+00  0.00000000000E+00  0.36015297246E+03  0.36015297246E+03  0.00000000000E+00 0.  1.
          2   -1    0    0  503    0  0.00000000000E+00 -0.00000000000E+00 -0.28363918961E+04  0.28363918961E+04  0.00000000000E+00 0. -1.
         25    2    1    2    0    0  0.43493017630E+02  0.34936269573E+02 -0.89682672816E+03  0.90721424987E+03  0.12500931685E+03 0.  0.
          4    1    3    3  502    0 -0.19283101944E+02 -0.33070189273E+02 -0.15627338161E+03  0.16089890658E+03  0.12700000000E+01 0.  1.
         -4    1    3    3    0  502  0.62776119574E+02  0.68006458845E+02 -0.74055334655E+03  0.74631534328E+03  0.12700000000E+01 0.  1.
          2    1    1    2  503    0 -0.11111187519E+02 -0.47442371548E+02 -0.19332150101E+04  0.19338289771E+04  0.00000000000E+00 0. -1.
         -3    1    1    2    0  501 -0.32381830110E+02  0.12506101975E+02  0.35380281468E+03  0.35550164161E+03  0.00000000000E+00 0.  1.
<mgrwt>
<rscale>  0 0.41029985E+02</rscale>
<asrwt>0</asrwt>
<pdfrwt beam="2">  1        2 0.43636800E+00 0.48496658E+02</pdfrwt>
<pdfrwt beam="1">  1       -3 0.55408148E-01 0.34712901E+02</pdfrwt>
<totfact> 0.61749322E+00</totfact>
</mgrwt>
</event>
<event>
 7    1  0.4251803E-004  0.6946470E+02  0.7546771E-02  0.1407336E+00
          2   -1    0    0  503    0  0.00000000000E+00  0.00000000000E+00  0.12416843030E+04  0.12416843030E+04  0.00000000000E+00 0. -1.
         -3   -1    0    0    0  501 -0.00000000000E+00 -0.00000000000E+00 -0.20755151115E+03  0.20755151115E+03  0.00000000000E+00 0.  1.
         25    2    1    2    0    0  0.95976155603E+02 -0.60538520984E+02  0.41014020026E+02  0.17374068388E+03  0.12500936136E+03 0.  0.
          4    1    3    3  502    0 -0.14623517572E+02  0.47537223959E+01  0.42581413370E+02  0.45290559804E+02  0.12700000000E+01 0. -1.
         -4    1    3    3    0  502  0.11059967318E+03 -0.65292243380E+02 -0.15673933435E+01  0.12845012407E+03  0.12700000000E+01 0. -1.
          2    1    1    2  503    0 -0.36422588351E+02  0.31388572766E+02  0.11259809452E+04  0.11270070703E+04  0.00000000000E+00 0. -1.
         -3    1    1    2    0  501 -0.59553567252E+02  0.29149948218E+02 -0.13286217338E+03  0.14848806002E+03  0.00000000000E+00 0.  1.
<mgrwt>
<rscale>  0 0.57792554E+02</rscale>
<asrwt>0</asrwt>
<pdfrwt beam="1">  1        2 0.19102835E+00 0.48081675E+02</pdfrwt>
<pdfrwt beam="2">  1       -3 0.31931002E-01 0.69464704E+02</pdfrwt>
<totfact> 0.11677513E+02</totfact>
</mgrwt>
</event>
<event>
 7    1  0.4251803E-004  0.8120104E+02  0.7546771E-02  0.1414993E+00
          2   -1    0    0  502    0  0.00000000000E+00  0.00000000000E+00  0.92884279697E+02  0.92884279697E+02  0.00000000000E+00 0. -1.
          1   -1    0    0  503    0 -0.00000000000E+00 -0.00000000000E+00 -0.15509983314E+04  0.15509983314E+04  0.00000000000E+00 0. -1.
         25    2    1    2    0    0  0.45228437088E+02 -0.46758879645E+02 -0.10237591507E+03  0.17418035605E+03  0.12500385634E+03 0.  0.
          4    1    3    3  501    0 -0.30296278915E+02 -0.47572016686E+02 -0.14399517761E+02  0.58223022074E+02  0.12700000000E+01 0.  1.
         -4    1    3    3    0  501  0.75524716003E+02  0.81313704081E+00 -0.87976397312E+02  0.11595733398E+03  0.12700000000E+01 0.  1.
          2    1    1    2  502    0 -0.22039919426E+02 -0.31872392393E+02  0.49057877195E+02  0.62516259965E+02  0.00000000000E+00 0. -1.
          1    1    1    2  503    0 -0.23188517661E+02  0.78631272038E+02 -0.14047960139E+04  0.14071859951E+04  0.00000000000E+00 0. -1.
<mgrwt>
<rscale>  0 0.56094451E+02</rscale>
<asrwt>0</asrwt>
<pdfrwt beam="1">  1        2 0.14289889E-01 0.38750580E+02</pdfrwt>
<pdfrwt beam="2">  1        1 0.23861513E+00 0.81201040E+02</pdfrwt>
<totfact> 0.37866272E+02</totfact>
</mgrwt>
</event>
<event>
 7    1  0.4251803E-004  0.8817174E+02  0.7546771E-02  0.1331978E+00
          1   -1    0    0  503    0 -0.00000000000E+00  0.00000000000E+00  0.23033541482E+04  0.23033541482E+04  0.00000000000E+00 0. -1.
          2   -1    0    0  502    0  0.00000000000E+00 -0.00000000000E+00 -0.69623528499E+03  0.69623528499E+03  0.00000000000E+00 0.  1.
         25    2    1    2    0    0 -0.13609745935E+03 -0.65328424575E+02 -0.15673407275E+03  0.25095476883E+03  0.12498961931E+03 0.  0.
          4    1    3    3  501    0 -0.79673871842E+02 -0.20728382470E+02 -0.15892618058E+03  0.17898808751E+03  0.12700000000E+01 0.  1.
         -4    1    3    3    0  501 -0.56423587513E+02 -0.44600042104E+02  0.21921078343E+01  0.71966681321E+02  0.12700000000E+01 0.  1.
          2    1    1    2  502    0  0.49401720779E+02  0.50635168125E+02 -0.48898783130E+03  0.49407848508E+03  0.00000000000E+00 0.  1.
          1    1    1    2  503    0  0.86695738576E+02  0.14693256449E+02  0.22528407672E+04  0.22545561793E+04  0.00000000000E+00 0. -1.
<mgrwt>
<rscale>  0 0.78977578E+02</rscale>
<asrwt>0</asrwt>
<pdfrwt beam="2">  1        2 0.10711312E+00 0.70742139E+02</pdfrwt>
<pdfrwt beam="1">  1        1 0.35436217E+00 0.88171744E+02</pdfrwt>
<totfact> 0.14982643E+01</totfact>
</mgrwt>
</event>
<event>
 7    1  0.4251803E-004  0.1440623E+03  0.7546771E-02  0.1263254E+00
          1   -1    0    0  503    0 -0.00000000000E+00  0.00000000000E+00  0.15613488444E+04  0.15613488444E+04  0.00000000000E+00 0. -1.
          2   -1    0    0  502    0  0.00000000000E+00 -0.00000000000E+00 -0.98900425172E+03  0.98900425172E+03  0.00000000000E+00 0.  1.
         25    2    1    2    0    0  0.79187056555E+02 -0.40691606817E+02  0.12786027849E+02  0.15399990086E+03  0.12500436058E+03 0.  0.
          4    1    3    3  501    0  0.97161918084E+02  0.26813699900E+01  0.33293562229E+02  0.10275068008E+03  0.12700000000E+01 0. -1.
         -4    1    3    3    0  501 -0.17974861529E+02 -0.43372976807E+02 -0.20507534380E+02  0.51249220779E+02  0.12700000000E+01 0. -1.
          2    1    1    2  502    0  0.68243155177E+02  0.45122112540E+02 -0.91288349184E+03  0.91654209011E+03  0.00000000000E+00 0.  1.
          1    1    1    2  503    0 -0.14743021173E+03 -0.44305057233E+01  0.14724420566E+04  0.14798111051E+04  0.00000000000E+00 0. -1.
<mgrwt>
<rscale>  0 0.10856319E+03</rscale>
<asrwt>0</asrwt>
<pdfrwt beam="2">  1        2 0.15215450E+00 0.81811572E+02</pdfrwt>
<pdfrwt beam="1">  1        1 0.24020751E+00 0.14406234E+03</pdfrwt>
<totfact> 0.26938412E+01</totfact>
</mgrwt>
</event>
<event>
 7    1  0.4251803E-004  0.5899913E+02  0.7546771E-02  0.1430874E+00
          2   -1    0    0  502    0  0.00000000000E+00  0.00000000000E+00  0.66542194695E+03  0.66542194695E+03  0.00000000000E+00 0. -1.
          2   -1    0    0  503    0 -0.00000000000E+00 -0.00000000000E+00 -0.13858425654E+04  0.13858425654E+04  0.00000000000E+00 0. -1.
         25    2    1    2    0    0 -0.99681442835E+02  0.30730878465E+02 -0.10225063868E+03  0.19225173583E+03  0.12499903953E+03 0.  0.
          4    1    3    3  501    0 -0.94314616143E+02  0.11568936465E+02 -0.73887109837E+01  0.95316803655E+02  0.12700000000E+01 0.  1.
         -4    1    3    3    0  501 -0.53668266920E+01  0.19161942000E+02 -0.94861927697E+02  0.96934932178E+02  0.12700000000E+01 0.  1.
          2    1    1    2  502    0  0.52747556377E+02 -0.25491362992E+02  0.61858675546E+03  0.62135472020E+03  0.00000000000E+00 0. -1.
          2    1    1    2  503    0  0.46933886458E+02 -0.52395154731E+01 -0.12367567352E+04  0.12376580563E+04  0.00000000000E+00 0. -1.
<mgrwt>
<rscale>  0 0.52785036E+02</rscale>
<asrwt>0</asrwt>
<pdfrwt beam="1">  1        2 0.10237261E+00 0.58999134E+02</pdfrwt>
<pdfrwt beam="2">  1        2 0.21320655E+00 0.47225440E+02</pdfrwt>
<totfact> 0.13022518E+02</totfact>
</mgrwt>
</event>
<event>
 7    1  0.4251803E-004  0.1106069E+03  0.7546771E-02  0.1415526E+00
         -3   -1    0    0    0  501 -0.00000000000E+00  0.00000000000E+00  0.34099311849E+02  0.34099311849E+02  0.00000000000E+00 0.  1.
          2   -1    0    0  503    0  0.00000000000E+00 -0.00000000000E+00 -0.19486957116E+04  0.19486957116E+04  0.00000000000E+00 0. -1.
         25    2    1    2    0    0  0.73318026302E+02  0.10329729501E+03 -0.11557667920E+04  0.11693876609E+04  0.12499903934E+03 0.  0.
          4    1    3    3  502    0 -0.95390281390E+01  0.92780405201E+02 -0.67567172991E+03  0.68207997782E+03  0.12700000000E+01 0. -1.
         -4    1    3    3    0  502  0.82857054441E+02  0.10516889807E+02 -0.48009506213E+03  0.48730768311E+03  0.12700000000E+01 0. -1.
          2    1    1    2  503    0 -0.70371494352E+02 -0.75119803591E+02 -0.77431072100E+03  0.78112241343E+03  0.00000000000E+00 0. -1.
         -3    1    1    2    0  501 -0.29465319498E+01 -0.28177491417E+02  0.15481113240E+02  0.32284949128E+02  0.00000000000E+00 0.  1.
<mgrwt>
<rscale>  0 0.55978737E+02</rscale>
<asrwt>0</asrwt>
<pdfrwt beam="2">  1        2 0.29979937E+00 0.11060691E+03</pdfrwt>
<pdfrwt beam="1">  1       -3 0.52460475E-02 0.28331133E+02</pdfrwt>
<totfact> 0.82582270E+02</totfact>
</mgrwt>
</event>
<event>
 7    1  0.4251803E-004  0.5265571E+02  0.7546771E-02  0.1432383E+00
          1   -1    0    0  502    0  0.00000000000E+00  0.00000000000E+00  0.54278057864E+03  0.54278057864E+03  0.00000000000E+00 0. -1.
          3   -1    0    0  503    0 -0.00000000000E+00 -0.00000000000E+00 -0.56168594657E+03  0.56168594657E+03  0.00000000000E+00 0. -1.
         25    2    1    2    0    0 -0.53591406711E+02  0.11095175217E+02 -0.45543115693E+03  0.47543673965E+03  0.12500965132E+03 0.  0.
          4    1    3    3  501    0  0.13678272037E+02  0.99543250610E+01 -0.34968141023E+03  0.35009268098E+03  0.12700000000E+01 0. -1.
         -4    1    3    3    0  501 -0.67269678748E+02  0.11408501557E+01 -0.10574974670E+03  0.12534405867E+03  0.12700000000E+01 0. -1.
          1    1    1    2  502    0  0.60098992030E+01 -0.51967673554E+02  0.52110773033E+03  0.52372705161E+03  0.00000000000E+00 0. -1.
          3    1    1    2  503    0  0.47581507508E+02  0.40872498337E+02 -0.84581941327E+02  0.10530273394E+03  0.00000000000E+00 0. -1.
<mgrwt>
<rscale>  0 0.52484595E+02</rscale>
<asrwt>0</asrwt>
<pdfrwt beam="1">  1        1 0.83504704E-01 0.52314032E+02</pdfrwt>
<pdfrwt beam="2">  1        3 0.86413223E-01 0.52655713E+02</pdfrwt>
<totfact> 0.27953968E+01</totfact>
</mgrwt>
</event>
<event>
 7    1  0.4251803E-004  0.7292594E+02  0.7546771E-02  0.1356591E+00
         -3   -1    0    0    0  501 -0.00000000000E+00  0.00000000000E+00  0.21570748669E+02  0.21570748669E+02  0.00000000000E+00 0.  1.
          2   -1    0    0  503    0  0.00000000000E+00 -0.00000000000E+00 -0.12493719474E+04  0.12493719474E+04  0.00000000000E+00 0. -1.
         25    2    1    2    0    0  0.46247798797E+02  0.17038238053E+02 -0.77288630761E+03  0.78447932046E+03  0.12500159716E+03 0.  0.
          4    1    3    3  502    0  0.36735830667E+02 -0.45731684980E+02 -0.21065041766E+03  0.21866897271E+03  0.12700000000E+01 0.  1.
         -4    1    3    3    0  502  0.95119681301E+01  0.62769923033E+02 -0.56223588995E+03  0.56581034775E+03  0.12700000000E+01 0.  1.
          2    1    1    2  503    0 -0.42041644929E+02  0.59587686876E+02 -0.34363415142E+03  0.35128709392E+03  0.00000000000E+00 0. -1.
         -3    1    1    2    0  501 -0.42061538683E+01 -0.76625924928E+02 -0.11128073971E+03  0.13517628169E+03  0.00000000000E+00 0.  1.
<mgrwt>
<rscale>  0 0.71040350E+02</rscale>
<asrwt>0</asrwt>
<pdfrwt beam="2">  1        2 0.19221111E+00 0.72925937E+02</pdfrwt>
<pdfrwt beam="1">  1       -3 0.33185760E-02 0.69203517E+02</pdfrwt>
<totfact> 0.46722513E+03</totfact>
</mgrwt>
</event>
<event>
 7    1  0.4251803E-004  0.9175495E+02  0.7546771E-02  0.1480761E+00
          1   -1    0    0  503    0 -0.00000000000E+00  0.00000000000E+00  0.23202801529E+03  0.23202801529E+03  0.00000000000E+00 0. -1.
          2   -1    0    0  502    0  0.00000000000E+00 -0.00000000000E+00 -0.12601644868E+04  0.12601644868E+04  0.00000000000E+00 0. -1.
         25    2    1    2    0    0 -0.85817154615E+02  0.46417273314E+01 -0.69793902814E+02  0.16698359300E+03  0.12500480712E+03 0.  0.
          4    1    3    3  501    0 -0.57834413528E+02  0.56532169593E+02 -0.75403615909E+01  0.81235309687E+02  0.12700000000E+01 0.  1.
         -4    1    3    3    0  501 -0.27982741087E+02 -0.51890442262E+02 -0.62253541223E+02  0.85748283316E+02  0.12700000000E+01 0.  1.
          2    1    1    2  502    0 -0.31245844563E+01  0.20855240602E+02 -0.11300037345E+04  0.11302004884E+04  0.00000000000E+00 0. -1.
          1    1    1    2  503    0  0.88941739071E+02 -0.25496967934E+02  0.17166116574E+03  0.19500842071E+03  0.00000000000E+00 0. -1.
<mgrwt>
<rscale>  0 0.43987831E+02</rscale>
<asrwt>0</asrwt>
<pdfrwt beam="2">  1        2 0.19387146E+00 0.21088008E+02</pdfrwt>
<pdfrwt beam="1">  1        1 0.35696617E-01 0.91754955E+02</pdfrwt>
<totfact> 0.36205221E+02</totfact>
</mgrwt>
</event>
<event>
 7    1  0.4251803E-004  0.8556339E+02  0.7546771E-02  0.1370474E+00
          1   -1    0    0  503    0  0.00000000000E+00  0.00000000000E+00  0.27890447608E+03  0.27890447608E+03  0.00000000000E+00 0. -1.
         -1   -1    0    0    0  501 -0.00000000000E+00 -0.00000000000E+00 -0.82260049441E+02  0.82260049441E+02  0.00000000000E+00 0.  1.
         25    2    1    2    0    0 -0.70673105411E+01  0.85630649512E+02  0.11573012334E+03  0.19079044580E+03  0.12499991099E+03 0.  0.
          4    1    3    3  502    0 -0.21681685405E+02  0.60631353835E+02  0.13927636560E+03  0.15344632764E+03  0.12700000000E+01 0.  1.
         -4    1    3    3    0  502  0.14614374864E+02  0.24999295677E+02 -0.23546242265E+02  0.37344118169E+02  0.12700000000E+01 0.  1.
          1    1    1    2  503    0 -0.49934313676E+02 -0.16275934165E+02  0.56922545110E+02  0.77450099141E+02  0.00000000000E+00 0. -1.
         -1    1    1    2    0  501  0.57001624217E+02 -0.69354715347E+02  0.23991758189E+02  0.92923980571E+02  0.00000000000E+00 0.  1.
<mgrwt>
<rscale>  0 0.67035679E+02</rscale>
<asrwt>0</asrwt>
<pdfrwt beam="1">  1        1 0.42908380E-01 0.52519917E+02</pdfrwt>
<pdfrwt beam="2">  1       -1 0.12655392E-01 0.85563392E+02</pdfrwt>
<totfact> 0.37894270E+03</totfact>
</mgrwt>
</event>
<event>
 7    1  0.4251803E-004  0.1767736E+03  0.7546771E-02  0.1192205E+00
          2   -1    0    0  503    0  0.00000000000E+00  0.00000000000E+00  0.47789261203E+03  0.47789261203E+03  0.00000000000E+00 0. -1.
          2   -1    0    0  502    0 -0.00000000000E+00 -0.00000000000E+00 -0.63521559621E+03  0.63521559621E+03  0.00000000000E+00 0. -1.
         25    2    1    2    0    0 -0.29409615991E+03 -0.57543833049E+02 -0.35655566272E+03  0.48224245533E+03  0.12498800387E+03 0.  0.
          4    1    3    3  501    0 -0.19848635224E+02 -0.45035297400E+02 -0.41819330561E+02  0.64595786556E+02  0.12700000000E+01 0. -1.
         -4    1    3    3    0  501 -0.27424752468E+03 -0.12508535649E+02 -0.31473633216E+03  0.41764666878E+03  0.12700000000E+01 0. -1.
          2    1    1    2  502    0  0.13851822395E+03 -0.14889690011E+02 -0.17232158738E+03  0.22159361614E+03  0.00000000000E+00 0. -1.
          2    1    1    2  503    0  0.15557793596E+03  0.72433523060E+02  0.37155426592E+03  0.40927213678E+03  0.00000000000E+00 0. -1.
<mgrwt>
<rscale>  0 0.15693130E+03</rscale>
<asrwt>0</asrwt>
<pdfrwt beam="1">  1        2 0.73521941E-01 0.17677365E+03</pdfrwt>
<pdfrwt beam="2">  1        2 0.97725476E-01 0.13931619E+03</pdfrwt>
<totfact> 0.49111622E+02</totfact>
</mgrwt>
</event>
<event>
 7    1  0.4251803E-004  0.1934093E+03  0.7546771E-02  0.1222018E+00
         -2   -1    0    0    0  501 -0.00000000000E+00  0.00000000000E+00  0.18871852469E+03  0.18871852469E+03  0.00000000000E+00 0.  1.
          2   -1    0    0  503    0  0.00000000000E+00 -0.00000000000E+00 -0.11612290329E+04  0.11612290329E+04  0.00000000000E+00 0. -1.
         25    2    1    2    0    0 -0.96724569182E+02  0.21305844593E+03 -0.52469418611E+03  0.58794238032E+03  0.12499083955E+03 0.  0.
          4    1    3    3  502    0 -0.12481515909E+02  0.16786170483E+03 -0.30554330647E+03  0.34884332474E+03  0.12700000000E+01 0.  1.
         -4    1    3    3    0  502 -0.84243053273E+02  0.45196741096E+02 -0.21915087964E+03  0.23909905558E+03  0.12700000000E+01 0.  1.
          2    1    1    2  503    0  0.10419474397E+02 -0.17985619612E+03 -0.57624417827E+03  0.60375008880E+03  0.00000000000E+00 0. -1.
         -2    1    1    2    0  501  0.86305094785E+02 -0.33202249809E+02  0.12842785619E+03  0.15825508846E+03  0.00000000000E+00 0.  1.
<mgrwt>
<rscale>  0 0.13373418E+03</rscale>
<asrwt>0</asrwt>
<pdfrwt beam="2">  1        2 0.17865063E+00 0.19340934E+03</pdfrwt>
<pdfrwt beam="1">  1       -2 0.29033618E-01 0.92471394E+02</pdfrwt>
<totfact> 0.23042244E+02</totfact>
</mgrwt>
</event>
<event>
 7    1  0.4251803E-004  0.1923373E+03  0.7546771E-02  0.1205283E+00
          2   -1    0    0  503    0  0.00000000000E+00  0.00000000000E+00  0.32902282442E+03  0.32902282442E+03  0.00000000000E+00 0. -1.
         -1   -1    0    0    0  501 -0.00000000000E+00 -0.00000000000E+00 -0.81123608149E+03  0.81123608149E+03  0.00000000000E+00 0.  1.
         25    2    1    2    0    0  0.11541268480E+03  0.51674380635E+01 -0.54413433929E+03  0.57013407242E+03  0.12499556437E+03 0.  0.
          4    1    3    3  502    0  0.18955185972E+02  0.13930741287E+02 -0.73466297704E+01  0.24676922357E+02  0.12700000000E+01 0.  1.
         -4    1    3    3    0  502  0.96457498824E+02 -0.87633032232E+01 -0.53678770952E+03  0.54545715006E+03  0.12700000000E+01 0.  1.
          2    1    1    2  503    0 -0.64437873390E+02  0.18122199625E+03  0.23985416184E+03  0.30744702048E+03  0.00000000000E+00 0. -1.
         -1    1    1    2    0  501 -0.50974811406E+02 -0.18638943431E+03 -0.17793307962E+03  0.26267781300E+03  0.00000000000E+00 0.  1.
<mgrwt>
<rscale>  0 0.14615164E+03</rscale>
<asrwt>0</asrwt>
<pdfrwt beam="1">  1        2 0.50618897E-01 0.19233734E+03</pdfrwt>
<pdfrwt beam="2">  1       -1 0.12480555E+00 0.11105645E+03</pdfrwt>
<totfact> 0.71770401E+01</totfact>
</mgrwt>
</event>
<event>
 7    1  0.4251803E-004  0.8410191E+02  0.7546771E-02  0.1400302E+00
          2   -1    0    0  503    0  0.00000000000E+00  0.00000000000E+00  0.18007981642E+04  0.18007981642E+04  0.00000000000E+00 0. -1.
          2   -1    0    0  502    0 -0.00000000000E+00 -0.00000000000E+00 -0.28916152770E+03  0.28916152770E+03  0.00000000000E+00 0. -1.
         25    2    1    2    0    0 -0.42671967262E+02 -0.12238337349E+02  0.28065037727E+03  0.31042007291E+03  0.12500125485E+03 0.  0.
          4    1    3    3  501    0  0.58721800961E+01  0.49567555492E+02  0.14840586108E+03  0.15658013143E+03  0.12700000000E+01 0. -1.
         -4    1    3    3    0  501 -0.48544147358E+02 -0.61805892841E+02  0.13224451619E+03  0.15383994148E+03  0.12700000000E+01 0. -1.
          2    1    1    2  502    0  0.76453050790E+02  0.37152887845E+02 -0.26738983151E+03  0.28057570823E+03  0.00000000000E+00 0. -1.
          2    1    1    2  503    0 -0.33781083528E+02 -0.24914550495E+02  0.14983760907E+04  0.14989639107E+04  0.00000000000E+00 0. -1.
<mgrwt>
<rscale>  0 0.59415261E+02</rscale>
<asrwt>0</asrwt>
<pdfrwt beam="1">  1        2 0.27704586E+00 0.41974950E+02</pdfrwt>
<pdfrwt beam="2">  1        2 0.44486390E-01 0.84101906E+02</pdfrwt>
<totfact> 0.19950875E+02</totfact>
</mgrwt>
</event>
<event>
 7    1  0.4251803E-004  0.1755409E+03  0.7546771E-02  0.1219324E+00
         -1   -1    0    0    0  501 -0.00000000000E+00  0.00000000000E+00  0.24985196859E+03  0.24985196859E+03  0.00000000000E+00 0.  1.
          2   -1    0    0  503    0  0.00000000000E+00 -0.00000000000E+00 -0.83394545177E+03  0.83394545177E+03  0.00000000000E+00 0. -1.
         25    2    1    2    0    0 -0.51676298277E+02 -0.91737399333E+02 -0.25910400948E+03  0.30634327857E+03  0.12500050542E+03 0.  0.
          4    1    3    3  502    0  0.40709473866E+02 -0.41272403527E+02 -0.85364389099E+02  0.10319575758E+03  0.12700000000E+01 0. -1.
         -4    1    3    3    0  502 -0.92385772143E+02 -0.50464995807E+02 -0.17373962038E+03  0.20314752099E+03  0.12700000000E+01 0. -1.
          2    1    1    2  503    0  0.44289540502E+02 -0.94985455615E+02 -0.50632921038E+03  0.51706195901E+03  0.00000000000E+00 0. -1.
         -1    1    1    2    0  501  0.73867577758E+01  0.18672285495E+03  0.18133973668E+03  0.26039218277E+03  0.00000000000E+00 0.  1.
<mgrwt>
<rscale>  0 0.13563674E+03</rscale>
<asrwt>0</asrwt>
<pdfrwt beam="2">  1        2 0.12829930E+00 0.10480363E+03</pdfrwt>
<pdfrwt beam="1">  1       -1 0.38438765E-01 0.17554092E+03</pdfrwt>
<totfact> 0.26558743E+02</totfact>
</mgrwt>
</event>
<event>
 7    1  0.4251803E-004  0.4871825E+02  0.7546771E-02  0.1536932E+00
         -1   -1    0    0    0  501 -0.00000000000E+00  0.00000000000E+00  0.79037107844E+02  0.79037107844E+02  0.00000000000E+00 0.  1.
          1   -1    0    0  503    0  0.00000000000E+00 -0.00000000000E+00 -0.17183163501E+03  0.17183163501E+03  0.00000000000E+00 0. -1.
         25    2    1    2    0    0 -0.16341690797E+02  0.35499418307E+02 -0.60249561858E+02  0.14416167466E+03  0.12500127671E+03 0.  0.
          4    1    3    3  502    0 -0.70837006006E+02  0.26843098466E+02 -0.33908041551E+02  0.83004828395E+02  0.12700000000E+01 0. -1.
         -4    1    3    3    0  502  0.54495315208E+02  0.86563198407E+01 -0.26341520307E+02  0.61156846264E+02  0.12700000000E+01 0. -1.
          1    1    1    2  503    0  0.22088481364E+02  0.15737043239E+02 -0.46020288051E+02  0.53417435834E+02  0.00000000000E+00 0. -1.
         -1    1    1    2    0  501 -0.57467905665E+01 -0.51236461546E+02  0.13475322747E+02  0.53289632356E+02  0.00000000000E+00 0.  1.
<mgrwt>
<rscale>  0 0.36349605E+02</rscale>
<asrwt>0</asrwt>
<pdfrwt beam="2">  1        1 0.26435636E-01 0.27121127E+02</pdfrwt>
<pdfrwt beam="1">  1       -1 0.12159555E-01 0.48718248E+02</pdfrwt>
<totfact> 0.67859784E+03</totfact>
</mgrwt>
</event>
<event>
 7    1  0.4251803E-004  0.1060703E+03  0.7546771E-02  0.1367947E+00
          1   -1    0    0  502    0  0.00000000000E+00  0.00000000000E+00  0.19391683393E+04  0.19391683393E+04  0.00000000000E+00 0. -1.
          3   -1    0    0  503    0 -0.00000000000E+00 -0.00000000000E+00 -0.38200175038E+03  0.38200175038E+03  0.00000000000E+00 0. -1.
         25    2    1    2    0    0  0.77982185657E+01  0.13269487766E+03  0.37513191067E+03  0.41715423547E+03  0.12499985198E+03 0.  0.
          4    1    3    3  501    0  0.15484037058E+02 -0.17176996866E+02  0.16643833055E+02  0.28520776703E+02  0.12700000000E+01 0.  1.
         -4    1    3    3    0  501 -0.76858184922E+01  0.14987187452E+03  0.35848807762E+03  0.38863345877E+03  0.12700000000E+01 0.  1.
          1    1    1    2  502    0 -0.31433683750E+02 -0.29725038189E+02  0.15349842436E+04  0.15355937882E+04  0.00000000000E+00 0. -1.
          3    1    1    2  503    0  0.23635465184E+02 -0.10296983947E+03 -0.35294956533E+03  0.36842206600E+03  0.00000000000E+00 0. -1.
<mgrwt>
<rscale>  0 0.67741262E+02</rscale>
<asrwt>0</asrwt>
<pdfrwt beam="1">  1        1 0.29833359E+00 0.43262621E+02</pdfrwt>
<pdfrwt beam="2">  1        3 0.58769501E-01 0.10607028E+03</pdfrwt>
<totfact> 0.70462492E+00</totfact>
</mgrwt>
</event>
<event>
 7    1  0.4251803E-004  0.1079846E+03  0.7546771E-02  0.1385257E+00
          1   -1    0    0  502    0  0.00000000000E+00  0.00000000000E+00  0.20117180007E+03  0.20117180007E+03  0.00000000000E+00 0. -1.
          1   -1    0    0  503    0 -0.00000000000E+00 -0.00000000000E+00 -0.18710585854E+04  0.18710585854E+04  0.00000000000E+00 0. -1.
         25    2    1    2    0    0 -0.67088976314E+02 -0.53222828118E+02 -0.97472730630E+03  0.98643274481E+03  0.12499055255E+03 0.  0.
          4    1    3    3  501    0 -0.95838521852E+02 -0.10617442229E+02 -0.52569812067E+03  0.53446971788E+03  0.12700000000E+01 0. -1.
         -4    1    3    3    0  501  0.28749545538E+02 -0.42605385889E+02 -0.44902918562E+03  0.45196302694E+03  0.12700000000E+01 0. -1.
          1    1    1    2  502    0  0.10111899338E+03  0.39021620828E+02  0.17986422231E+03  0.20999732422E+03  0.00000000000E+00 0. -1.
          1    1    1    2  503    0 -0.34030017069E+02  0.14201207289E+02 -0.87502370138E+03  0.87580031646E+03  0.00000000000E+00 0. -1.
<mgrwt>
<rscale>  0 0.63101985E+02</rscale>
<asrwt>0</asrwt>
<pdfrwt beam="1">  1        1 0.30949509E-01 0.10798461E+03</pdfrwt>
<pdfrwt beam="2">  1        1 0.28785515E+00 0.36874332E+02</pdfrwt>
<totfact> 0.89190091E+01</totfact>
</mgrwt>
</event>
<event>
 7    1  0.4251803E-004  0.1512052E+03  0.7546771E-02  0.1249137E+00
          1   -1    0    0  503    0 -0.00000000000E+00  0.00000000000E+00  0.18283943560E+04  0.18283943560E+04  0.00000000000E+00 0. -1.
          2   -1    0    0  502    0  0.00000000000E+00 -0.00000000000E+00 -0.89936440521E+03  0.89936440521E+03  0.00000000000E+00 0. -1.
         25    2    1    2    0    0 -0.13823180889E+03 -0.18590574841E+02  0.10249313824E+03  0.21350484251E+03  0.12500332767E+03 0.  0.
          4    1    3    3  501    0 -0.11493581410E+03 -0.27460634367E+02  0.13045458552E+03  0.17602369041E+03  0.12700000000E+01 0. -1.
         -4    1    3    3    0  501 -0.23295994791E+02  0.88700595262E+01 -0.27961447276E+02  0.37481152104E+02  0.12700000000E+01 0. -1.
          2    1    1    2  502    0  0.11175521160E+03  0.10421451667E+03 -0.83572385873E+03  0.84957887265E+03  0.00000000000E+00 0. -1.
          1    1    1    2  503    0  0.26476597294E+02 -0.85623941834E+02  0.16622606712E+04  0.16646750460E+04  0.00000000000E+00 0. -1.
<mgrwt>
<rscale>  0 0.11641144E+03</rscale>
<asrwt>0</asrwt>
<pdfrwt beam="2">  1        2 0.13836375E+00 0.15120521E+03</pdfrwt>
<pdfrwt beam="1">  1        1 0.28129144E+00 0.89624046E+02</pdfrwt>
<totfact> 0.21115115E+01</totfact>
</mgrwt>
</event>
<event>
 7    1  0.4251803E-004  0.1725728E+03  0.7546771E-02  0.1258567E+00
          2   -1    0    0  502    0  0.00000000000E+00  0.00000000000E+00  0.21022453521E+04  0.21022453521E+04  0.00000000000E+00 0.  1.
          1   -1    0    0  503    0 -0.00000000000E+00 -0.00000000000E+00 -0.15258870343E+03  0.15258870343E+03  0.00000000000E+00 0. -1.
         25    2    1    2    0    0 -0.16882953643E+03  0.57679760875E+02  0.45810156314E+03  0.50725714810E+03  0.12498961942E+03 0.  0.
          4    1    3    3  501    0 -0.88995827574E+02  0.14596959648E+02  0.36985066416E+03  0.38068944724E+03  0.12700000000E+01 0.  1.
         -4    1    3    3    0  501 -0.79833708856E+02  0.43082801227E+02  0.88250898973E+02  0.12656770086E+03  0.12700000000E+01 0.  1.
          2    1    1    2  502    0 -0.40878429440E+01 -0.71392900453E+02  0.15596066919E+04  0.15612452370E+04  0.00000000000E+00 0.  1.
          1    1    1    2  503    0  0.17291737937E+03  0.13713139578E+02 -0.68051606332E+02  0.18633167045E+03  0.00000000000E+00 0. -1.
<mgrwt>
<rscale>  0 0.11108848E+03</rscale>
<asrwt>0</asrwt>
<pdfrwt beam="1">  1        2 0.32342234E+00 0.71509836E+02</pdfrwt>
<pdfrwt beam="2">  1        1 0.23475187E-01 0.17257278E+03</pdfrwt>
<totfact> 0.21276649E+02</totfact>
</mgrwt>
</event>
<event>
 7    1  0.4251803E-004  0.1799880E+03  0.7546771E-02  0.1219629E+00
          2   -1    0    0  502    0  0.00000000000E+00  0.00000000000E+00  0.18945125192E+04  0.18945125192E+04  0.00000000000E+00 0.  1.
          3   -1    0    0  503    0 -0.00000000000E+00 -0.00000000000E+00 -0.12772379152E+04  0.12772379152E+04  0.00000000000E+00 0. -1.
         25    2    1    2    0    0  0.26602582145E+02 -0.14023496940E+03  0.41716396810E+03  0.45828293802E+03  0.12499572387E+03 0.  0.
          4    1    3    3  501    0  0.33159363294E+02 -0.15386054321E+03  0.28777427083E+03  0.32800648466E+03  0.12700000000E+01 0.  1.
         -4    1    3    3    0  501 -0.65567811494E+01  0.13625573809E+02  0.12938969727E+03  0.13027645336E+03  0.12700000000E+01 0.  1.
          2    1    1    2  502    0  0.10115932197E+03  0.12156791541E+02  0.14484796471E+04  0.14520586365E+04  0.00000000000E+00 0.  1.
          3    1    1    2  503    0 -0.12776190412E+03  0.12807817786E+03 -0.12483690112E+04  0.12614088599E+04  0.00000000000E+00 0. -1.
<mgrwt>
<rscale>  0 0.13541962E+03</rscale>
<asrwt>0</asrwt>
<pdfrwt beam="1">  1        2 0.29146347E+00 0.10188717E+03</pdfrwt>
<pdfrwt beam="2">  1        3 0.19649814E+00 0.17998805E+03</pdfrwt>
<totfact> 0.97789606E-01</totfact>
</mgrwt>
</event>
<event>
 7    1  0.4251803E-004  0.3153967E+03  0.7546771E-02  0.1228437E+00
         -3   -1    0    0    0  501 -0.00000000000E+00  0.00000000000E+00  0.21769245726E+04  0.21769245726E+04  0.00000000000E+00 0.  1.
          2   -1    0    0  503    0  0.00000000000E+00 -0.00000000000E+00 -0.98153186694E+03  0.98153186694E+03  0.00000000000E+00 0. -1.
         25    2    1    2    0    0 -0.23468633116E+03 -0.20158696227E+03 -0.17624655884E+02  0.33414046699E+03  0.12499698313E+03 0.  0.
          4    1    3    3  502    0 -0.16010222006E+03 -0.10126232902E+03 -0.65241150990E+02  0.20036167505E+03  0.12700000000E+01 0.  1.
         -4    1    3    3    0  502 -0.74584111099E+02 -0.10032463325E+03  0.47616495106E+02  0.13377879193E+03  0.12700000000E+01 0.  1.
          2    1    1    2  503    0  0.32817751155E+02 -0.41669723724E+02 -0.79238213769E+03  0.79415541477E+03  0.00000000000E+00 0. -1.
         -3    1    1    2    0  501  0.20186858001E+03  0.24325668599E+03  0.20053994992E+04  0.20301605578E+04  0.00000000000E+00 0.  1.
<mgrwt>
<rscale>  0 0.12934072E+03</rscale>
<asrwt>0</asrwt>
<pdfrwt beam="2">  1        2 0.15100490E+00 0.53041217E+02</pdfrwt>
<pdfrwt beam="1">  1       -3 0.33491147E+00 0.31539666E+03</pdfrwt>
<totfact> 0.50129680E-01</totfact>
</mgrwt>
</event>
<event>
 7    1  0.4251803E-004  0.1305099E+03  0.7546771E-02  0.1312825E+00
         -3   -1    0    0    0  501 -0.00000000000E+00  0.00000000000E+00  0.27486191026E+03  0.27486191026E+03  0.00000000000E+00 0.  1.
          1   -1    0    0  503    0  0.00000000000E+00 -0.00000000000E+00 -0.17144777693E+04  0.17144777693E+04  0.00000000000E+00 0. -1.
         25    2    1    2    0    0 -0.80107025452E+02 -0.40587704700E+02 -0.47776449597E+03  0.50194366036E+03  0.12499610903E+03 0.  0.
          4    1    3    3  502    0 -0.11230862963E+03 -0.28171380816E+02 -0.40777342368E+03  0.42389578076E+03  0.12700000000E+01 0.  1.
         -4    1    3    3    0  502  0.32201604180E+02 -0.12416323884E+02 -0.69991072287E+02  0.78047879602E+02  0.12700000000E+01 0.  1.
          1    1    1    2  503    0  0.13570491875E+03  0.51593722694E+02 -0.12172027135E+04  0.12258304054E+04  0.00000000000E+00 0. -1.
         -3    1    1    2    0  501 -0.55597893294E+02 -0.11006017995E+02  0.25535135038E+03  0.26156561378E+03  0.00000000000E+00 0.  1.
<mgrwt>
<rscale>  0 0.86005142E+02</rscale>
<asrwt>0</asrwt>
<pdfrwt beam="2">  1        1 0.26376581E+00 0.13050995E+03</pdfrwt>
<pdfrwt beam="1">  1       -3 0.42286448E-01 0.56676787E+02</pdfrwt>
<totfact> 0.15723403E+01</totfact>
</mgrwt>
</event>
<event>
 7    1  0.4251803E-004  0.9748429E+02  0.7546771E-02  0.1435827E+00
          2   -1    0    0  502    0  0.00000000000E+00  0.00000000000E+00  0.26764936879E+03  0.26764936879E+03  0.00000000000E+00 0. -1.
          1   -1    0    0  503    0 -0.00000000000E+00 -0.00000000000E+00 -0.69838281382E+03  0.69838281382E+03  0.00000000000E+00 0. -1.
         25    2    1    2    0    0 -0.56059105235E+02 -0.64801389357E+02  0.12600025994E+03  0.19708777697E+03  0.12500273191E+03 0.  0.
          4    1    3    3  501    0 -0.32286754991E+02  0.34463507511E+02  0.56237162543E+02  0.73446574111E+02  0.12700000000E+01 0. -1.
         -4    1    3    3    0  501 -0.23772350244E+02 -0.99264896868E+02  0.69763097402E+02  0.12364120286E+03  0.12700000000E+01 0. -1.
          2    1    1    2  502    0  0.54441916122E+02  0.92287201613E+02  0.78680416589E+02  0.13293403540E+03  0.00000000000E+00 0. -1.
          1    1    1    2  503    0  0.16171891131E+01 -0.27485812256E+02 -0.63541412156E+03  0.63601037024E+03  0.00000000000E+00 0. -1.
<mgrwt>
<rscale>  0 0.51808000E+02</rscale>
<asrwt>0</asrwt>
<pdfrwt beam="1">  1        2 0.41176827E-01 0.97484295E+02</pdfrwt>
<pdfrwt beam="2">  1        1 0.10744351E+00 0.27533347E+02</pdfrwt>
<totfact> 0.52050754E+02</totfact>
</mgrwt>
</event>
<event>
 7    1  0.4251803E-004  0.7155995E+02  0.7546771E-02  0.1513843E+00
          1   -1    0    0  503    0  0.00000000000E+00  0.00000000000E+00  0.16406555900E+04  0.16406555900E+04  0.00000000000E+00 0. -1.
         -2   -1    0    0    0  501 -0.00000000000E+00 -0.00000000000E+00 -0.99802264942E+01  0.99802264942E+01  0.00000000000E+00 0.  1.
         25    2    1    2    0    0  0.71782358852E+02 -0.32502178966E+02  0.93779503694E+03  0.94936393686E+03  0.12499301833E+03 0.  0.
          4    1    3    3  502    0  0.65716460469E+02  0.34860745694E+02  0.62004032614E+03  0.62448822544E+03  0.12700000000E+01 0. -1.
         -4    1    3    3    0  502  0.60658983836E+01 -0.67362924661E+02  0.31775471080E+03  0.32487571143E+03  0.12700000000E+01 0. -1.
          1    1    1    2  503    0 -0.28587746230E+01  0.21331890700E+02  0.38380043282E+03  0.38440342661E+03  0.00000000000E+00 0. -1.
         -2    1    1    2    0  501 -0.68923584229E+02  0.11170288267E+02  0.30907989372E+03  0.31686845300E+03  0.00000000000E+00 0.  1.
<mgrwt>
<rscale>  0 0.39244820E+02</rscale>
<asrwt>0</asrwt>
<pdfrwt beam="1">  1        1 0.25240834E+00 0.21522596E+02</pdfrwt>
<pdfrwt beam="2">  1       -2 0.15354208E-02 0.71559950E+02</pdfrwt>
<totfact> 0.63914817E+03</totfact>
</mgrwt>
</event>
<event>
 7    1  0.4251803E-004  0.1841028E+03  0.7546771E-02  0.1265536E+00
         -1   -1    0    0    0  501 -0.00000000000E+00  0.00000000000E+00  0.11894273289E+03  0.11894273289E+03  0.00000000000E+00 0.  1.
          2   -1    0    0  503    0  0.00000000000E+00 -0.00000000000E+00 -0.17834576816E+04  0.17834576816E+04  0.00000000000E+00 0.  1.
         25    2    1    2    0    0  0.27326533176E+01  0.22582340405E+03 -0.53825984148E+03  0.59695143567E+03  0.12499472941E+03 0.  0.
          4    1    3    3  502    0 -0.20404365601E+02  0.14761256697E+03 -0.20248992158E+03  0.25141517318E+03  0.12700000000E+01 0. -1.
         -4    1    3    3    0  502  0.23137018919E+02  0.78210837074E+02 -0.33576991991E+03  0.34553626249E+03  0.12700000000E+01 0. -1.
          2    1    1    2  503    0  0.30797986321E+02 -0.17295078822E+03 -0.11976647218E+04  0.12104797714E+04  0.00000000000E+00 0.  1.
         -1    1    1    2    0  501 -0.33530639639E+02 -0.52872615831E+02  0.71409614593E+02  0.94969207408E+02  0.00000000000E+00 0.  1.
<mgrwt>
<rscale>  0 0.10736104E+03</rscale>
<asrwt>0</asrwt>
<pdfrwt beam="2">  1        2 0.27437812E+00 0.18410284E+03</pdfrwt>
<pdfrwt beam="1">  1       -1 0.18298881E-01 0.62608444E+02</pdfrwt>
<totfact> 0.25307703E+02</totfact>
</mgrwt>
</event>
<event>
 7    1  0.4251803E-004  0.9296849E+02  0.7546771E-02  0.1369056E+00
         -1   -1    0    0    0  501 -0.00000000000E+00  0.00000000000E+00  0.19620153408E+03  0.19620153408E+03  0.00000000000E+00 0.  1.
          2   -1    0    0  503    0  0.00000000000E+00 -0.00000000000E+00 -0.10986100343E+04  0.10986100343E+04  0.00000000000E+00 0. -1.
         25    2    1    2    0    0 -0.43079255972E+02 -0.42269477165E+02 -0.27917476543E+03  0.31177382830E+03  0.12498735681E+03 0.  0.
          4    1    3    3  502    0 -0.38097369674E+02 -0.21646125393E+02 -0.14389876489E+02  0.46137249224E+02  0.12700000000E+01 0.  1.
         -4    1    3    3    0  502 -0.49818862978E+01 -0.20623351772E+02 -0.26478488894E+03  0.26563657908E+03  0.12700000000E+01 0.  1.
          2    1    1    2  503    0  0.40988801813E+02  0.91132335024E+02 -0.79663175348E+03  0.80287442045E+03  0.00000000000E+00 0. -1.
         -1    1    1    2    0  501  0.20904541589E+01 -0.48862857859E+02  0.17339801866E+03  0.18016331966E+03  0.00000000000E+00 0.  1.
<mgrwt>
<rscale>  0 0.67430420E+02</rscale>
<asrwt>0</asrwt>
<pdfrwt beam="2">  1        2 0.16901693E+00 0.92968491E+02</pdfrwt>
<pdfrwt beam="1">  1       -1 0.30184851E-01 0.48907554E+02</pdfrwt>
<totfact> 0.27406967E+02</totfact>
</mgrwt>
</event>
<event>
 7    1  0.4251803E-004  0.3856574E+02  0.7546771E-02  0.1555933E+00
          2   -1    0    0  503    0  0.00000000000E+00  0.00000000000E+00  0.10929958497E+04  0.10929958497E+04  0.00000000000E+00 0.  1.
          2   -1    0    0  502    0 -0.00000000000E+00 -0.00000000000E+00 -0.65175172787E+03  0.65175172787E+03  0.00000000000E+00 0. -1.
         25    2    1    2    0    0  0.47666301337E+02 -0.34786608896E+02 -0.14988899064E+03  0.20389520804E+03  0.12499744758E+03 0.  0.
          4    1    3    3  501    0  0.63404582856E+02  0.22194046713E+02 -0.37610186708E+02  0.76999064156E+02  0.12700000000E+01 0.  1.
         -4    1    3    3    0  501 -0.15738281519E+02 -0.56980655608E+02 -0.11227880393E+03  0.12689614388E+03  0.12700000000E+01 0.  1.
          2    1    1    2  502    0 -0.30304621606E+02  0.38072841344E+00 -0.47402723127E+03  0.47499508527E+03  0.00000000000E+00 0. -1.
          2    1    1    2  503    0 -0.17361679731E+02  0.34405880482E+02  0.10651603438E+04  0.10658572843E+04  0.00000000000E+00 0.  1.
<mgrwt>
<rscale>  0 0.34187899E+02</rscale>
<asrwt>0</asrwt>
<pdfrwt beam="1">  1        2 0.16815321E+00 0.38565742E+02</pdfrwt>
<pdfrwt beam="2">  1        2 0.10026950E+00 0.30307013E+02</pdfrwt>
<totfact> 0.19488394E+02</totfact>
</mgrwt>
</event>
<event>
 7    1  0.4251803E-004  0.4982883E+02  0.7546771E-02  0.1487011E+00
         -1   -1    0    0    0  501 -0.00000000000E+00  0.00000000000E+00  0.25790095536E+03  0.25790095536E+03  0.00000000000E+00 0.  1.
          2   -1    0    0  503    0  0.00000000000E+00 -0.00000000000E+00 -0.93273569818E+03  0.93273569818E+03  0.00000000000E+00 0. -1.
         25    2    1    2    0    0  0.70591967760E+02 -0.41397178895E+02 -0.13744683392E+03  0.20300083493E+03  0.12498301683E+03 0.  0.
          4    1    3    3  502    0  0.36543091430E+02  0.37823909761E+02 -0.90841591807E+02  0.10497548944E+03  0.12700000000E+01 0.  1.
         -4    1    3    3    0  502  0.34048876329E+02 -0.79221088656E+02 -0.46605242109E+02  0.98025345493E+02  0.12700000000E+01 0.  1.
          2    1    1    2  503    0 -0.33888521854E+02  0.35569056353E+02 -0.76017979183E+03  0.76176565004E+03  0.00000000000E+00 0. -1.
         -1    1    1    2    0  501 -0.36703445906E+02  0.58281225423E+01  0.22279188292E+03  0.22587016856E+03  0.00000000000E+00 0.  1.
<mgrwt>
<rscale>  0 0.43032581E+02</rscale>
<asrwt>0</asrwt>
<pdfrwt beam="2">  1        2 0.14349780E+00 0.49828828E+02</pdfrwt>
<pdfrwt beam="1">  1       -1 0.39677071E-01 0.37163288E+02</pdfrwt>
<totfact> 0.22291617E+02</totfact>
</mgrwt>
</event>
<event>
 7    1  0.4251803E-004  0.1915446E+03  0.7546771E-02  0.1252760E+00
          1   -1    0    0  503    0 -0.00000000000E+00  0.00000000000E+00  0.81581849548E+03  0.81581849548E+03  0.00000000000E+00 0. -1.
          2   -1    0    0  502    0  0.00000000000E+00 -0.00000000000E+00 -0.14535843177E+04  0.14535843177E+04  0.00000000000E+00 0. -1.
         25    2    1    2    0    0 -0.91785568627E+02  0.97561288280E+02 -0.39595876148E+03  0.43629384018E+03  0.12500471436E+03 0.  0.
          4    1    3    3  501    0 -0.11477550618E+03  0.56180579516E+02 -0.33859680673E+03  0.36191032696E+03  0.12700000000E+01 0.  1.
         -4    1    3    3    0  501  0.22989937556E+02  0.41380708764E+02 -0.57361954746E+02  0.74383513220E+02  0.12700000000E+01 0.  1.
          2    1    1    2  502    0 -0.67091692627E+02  0.12459745340E+02 -0.10245716858E+04  0.10268416041E+04  0.00000000000E+00 0. -1.
          1    1    1    2  503    0  0.15887726125E+03 -0.11002103362E+03  0.78276462506E+03  0.80626736895E+03  0.00000000000E+00 0. -1.
<mgrwt>
<rscale>  0 0.11432752E+03</rscale>
<asrwt>0</asrwt>
<pdfrwt beam="2">  1        2 0.22362835E+00 0.68238849E+02</pdfrwt>
<pdfrwt beam="1">  1        1 0.12551054E+00 0.19154457E+03</pdfrwt>
<totfact> 0.50310982E+01</totfact>
</mgrwt>
</event>
<event>
 7    1  0.6533090E-004  0.1104295E+03  0.7546771E-02  0.1377514E+00
         -2   -1    0    0    0  501 -0.00000000000E+00  0.00000000000E+00  0.33225208011E+02  0.33225208011E+02  0.00000000000E+00 0.  1.
          1   -1    0    0  503    0  0.00000000000E+00 -0.00000000000E+00 -0.82018240400E+03  0.82018240400E+03  0.00000000000E+00 0. -1.
         25    2    1    2    0    0  0.12574244601E+03  0.22711505812E+02 -0.44398175114E+03  0.47862090683E+03  0.12502480507E+03 0.  0.
          4    1    3    3  502    0  0.74968203844E+02 -0.24613069398E+02 -0.36514689360E+03  0.37357716951E+03  0.12700000000E+01 0.  1.
         -4    1    3    3    0  502  0.50774242167E+02  0.47324575210E+02 -0.78834857539E+02  0.10504373732E+03  0.12700000000E+01 0.  1.
          1    1    1    2  503    0 -0.21942807493E+02 -0.31516853845E+02 -0.15694352978E+03  0.16157373059E+03  0.00000000000E+00 0. -1.
         -2    1    1    2    0  501 -0.10379963852E+03  0.88053480323E+01 -0.18603191506E+03  0.21321297458E+03  0.00000000000E+00 0.  1.
<mgrwt>
<rscale>  0 0.65121690E+02</rscale>
<asrwt>0</asrwt>
<pdfrwt beam="2">  1        1 0.12618192E+00 0.38403110E+02</pdfrwt>
<pdfrwt beam="1">  1       -2 0.51115698E-02 0.11042945E+03</pdfrwt>
<totfact> 0.37781049E+03</totfact>
</mgrwt>
</event>
<event>
 7    1  0.4251803E-004  0.6318966E+02  0.7546771E-02  0.1484758E+00
          1   -1    0    0  503    0  0.00000000000E+00  0.00000000000E+00  0.37105172642E+02  0.37105172642E+02  0.00000000000E+00 0. -1.
         -2   -1    0    0    0  501 -0.00000000000E+00 -0.00000000000E+00 -0.40543503955E+03  0.40543503955E+03  0.00000000000E+00 0.  1.
         25    2    1    2    0    0  0.37131330255E+01  0.53720755084E+02 -0.28176400014E+03  0.31291055800E+03  0.12498943416E+03 0.  0.
          4    1    3    3  502    0  0.44113141700E+02  0.13086073096E+02 -0.30561243528E+02  0.55252303895E+02  0.12700000000E+01 0.  1.
         -4    1    3    3    0  502 -0.40400008675E+02  0.40634681989E+02 -0.25120275661E+03  0.25765825411E+03  0.12700000000E+01 0.  1.
          1    1    1    2  503    0 -0.33195541129E+02 -0.57861104878E+02 -0.60730694298E+02  0.90211244523E+02  0.00000000000E+00 0. -1.
         -2    1    1    2    0  501  0.29482408103E+02  0.41403497940E+01 -0.25835172476E+02  0.39418409669E+02  0.00000000000E+00 0.  1.
<mgrwt>
<rscale>  0 0.43373544E+02</rscale>
<asrwt>0</asrwt>
<pdfrwt beam="1">  1        1 0.57084883E-02 0.63189658E+02</pdfrwt>
<pdfrwt beam="2">  1       -2 0.62374619E-01 0.29771713E+02</pdfrwt>
<totfact> 0.26674432E+03</totfact>
</mgrwt>
</event>
<event>
 7    1  0.4251803E-004  0.1230937E+03  0.7546771E-02  0.1331524E+00
          1   -1    0    0  503    0  0.00000000000E+00  0.00000000000E+00  0.33032597188E+03  0.33032597188E+03  0.00000000000E+00 0. -1.
         -2   -1    0    0    0  501 -0.00000000000E+00 -0.00000000000E+00 -0.78936833594E+03  0.78936833594E+03  0.00000000000E+00 0.  1.
         25    2    1    2    0    0 -0.11776107032E+03  0.84673905156E+02 -0.11449848944E+03  0.22309942746E+03  0.12500444213E+03 0.  0.
          4    1    3    3  502    0 -0.29100838254E+02  0.41434497551E+02  0.21554948308E+02  0.55044573492E+02  0.12700000000E+01 0. -1.
         -4    1    3    3    0  502 -0.88660232063E+02  0.43239407605E+02 -0.13605343775E+03  0.16805485397E+03  0.12700000000E+01 0. -1.
          1    1    1    2  503    0  0.11717484823E+03 -0.33802610859E+02  0.26143709419E+03  0.28848208918E+03  0.00000000000E+00 0. -1.
         -2    1    1    2    0  501  0.58622208993E+00 -0.50871294297E+02 -0.60598096882E+03  0.60811279119E+03  0.00000000000E+00 0.  1.
<mgrwt>
<rscale>  0 0.79135031E+02</rscale>
<asrwt>0</asrwt>
<pdfrwt beam="1">  1        1 0.50819381E-01 0.12309373E+03</pdfrwt>
<pdfrwt beam="2">  1       -2 0.12144128E+00 0.50874672E+02</pdfrwt>
<totfact> 0.39663618E+01</totfact>
</mgrwt>
</event>
<event>
 7    1  0.4251803E-004  0.1060408E+03  0.7546771E-02  0.1328092E+00
          1   -1    0    0  502    0  0.00000000000E+00  0.00000000000E+00  0.57469736590E+03  0.57469736590E+03  0.00000000000E+00 0. -1.
          3   -1    0    0  503    0 -0.00000000000E+00 -0.00000000000E+00 -0.21183816617E+03  0.21183816617E+03  0.00000000000E+00 0. -1.
         25    2    1    2    0    0 -0.89282759188E+02 -0.13566370307E+03  0.84498464450E+01  0.20512008040E+03  0.12500718404E+03 0.  0.
          4    1    3    3  501    0 -0.79232936094E+01 -0.56023490499E+02  0.57919788017E+02  0.80979780275E+02  0.12700000000E+01 0. -1.
         -4    1    3    3    0  501 -0.81359465579E+02 -0.79640212567E+02 -0.49469941572E+02  0.12414030013E+03  0.12700000000E+01 0. -1.
          1    1    1    2  502    0  0.48126315026E+02  0.90820516562E+02  0.45356677576E+03  0.46506701506E+03  0.00000000000E+00 0. -1.
          3    1    1    2  503    0  0.41156444162E+02  0.44843186504E+02 -0.99157422471E+02  0.11634843662E+03  0.00000000000E+00 0. -1.
<mgrwt>
<rscale>  0 0.80339032E+02</rscale>
<asrwt>0</asrwt>
<pdfrwt beam="1">  1        1 0.88414979E-01 0.10604078E+03</pdfrwt>
<pdfrwt beam="2">  1        3 0.32590487E-01 0.60866775E+02</pdfrwt>
<totfact> 0.17680617E+02</totfact>
</mgrwt>
</event>
<event>
 7    1  0.4251803E-004  0.5216562E+02  0.7546771E-02  0.1480375E+00
         -2   -1    0    0    0  501 -0.00000000000E+00  0.00000000000E+00  0.71525223032E+02  0.71525223032E+02  0.00000000000E+00 0.  1.
          1   -1    0    0  503    0  0.00000000000E+00 -0.00000000000E+00 -0.18757081875E+03  0.18757081875E+03  0.00000000000E+00 0. -1.
         25    2    1    2    0    0 -0.41912776201E+01 -0.50428740145E+02 -0.55196171683E+02  0.14570827340E+03  0.12499463560E+03 0.  0.
          4    1    3    3  502    0  0.21233422907E+02 -0.37509406932E+02  0.32168326181E+02  0.53798029388E+02  0.12700000000E+01 0. -1.
         -4    1    3    3    0  502 -0.25424700528E+02 -0.12919333213E+02 -0.87364497864E+02  0.91910244014E+02  0.12700000000E+01 0. -1.
          1    1    1    2  503    0  0.39494648747E+02  0.38723207275E+02 -0.50211942481E+02  0.74703100532E+02  0.00000000000E+00 0. -1.
         -2    1    1    2    0  501 -0.35303371127E+02  0.11705532870E+02 -0.10637481553E+02  0.38684667847E+02  0.00000000000E+00 0.  1.
<mgrwt>
<rscale>  0 0.44047881E+02</rscale>
<asrwt>0</asrwt>
<pdfrwt beam="2">  1        1 0.28857049E-01 0.52165624E+02</pdfrwt>
<pdfrwt beam="1">  1       -2 0.11003881E-01 0.37193380E+02</pdfrwt>
<totfact> 0.67395126E+03</totfact>
</mgrwt>
</event>
<event>
 7    1  0.4251803E-004  0.4728728E+02  0.7546771E-02  0.1528896E+00
         -1   -1    0    0    0  501 -0.00000000000E+00  0.00000000000E+00  0.18279923072E+02  0.18279923072E+02  0.00000000000E+00 0.  1.
          2   -1    0    0  503    0  0.00000000000E+00 -0.00000000000E+00 -0.72243335608E+03  0.72243335608E+03  0.00000000000E+00 0. -1.
         25    2    1    2    0    0  0.37135556604E+02  0.72206811184E+01 -0.30589274118E+03  0.33260684915E+03  0.12500303673E+03 0.  0.
          4    1    3    3  502    0  0.65057682250E+02  0.10875065591E+02 -0.29516132624E+03  0.30244435931E+03  0.12700000000E+01 0. -1.
         -4    1    3    3    0  502 -0.27922125647E+02 -0.36543844723E+01 -0.10731414940E+02  0.30162489836E+02  0.12700000000E+01 0. -1.
          2    1    1    2  503    0 -0.44734561590E+02  0.21239224078E+02 -0.33092173546E+03  0.33460645636E+03  0.00000000000E+00 0. -1.
         -1    1    1    2    0  501  0.75990049866E+01 -0.28459905197E+02 -0.67338956374E+02  0.73499973648E+02  0.00000000000E+00 0.  1.
<mgrwt>
<rscale>  0 0.37322091E+02</rscale>
<asrwt>0</asrwt>
<pdfrwt beam="2">  1        2 0.11114358E+00 0.47287282E+02</pdfrwt>
<pdfrwt beam="1">  1       -1 0.28122962E-02 0.29456936E+02</pdfrwt>
<totfact> 0.15267023E+04</totfact>
</mgrwt>
</event>
<event>
 7    1  0.4251803E-004  0.7035198E+02  0.7546771E-02  0.1486234E+00
         -2   -1    0    0    0  501 -0.00000000000E+00  0.00000000000E+00  0.20131530306E+02  0.20131530306E+02  0.00000000000E+00 0.  1.
          1   -1    0    0  503    0  0.00000000000E+00 -0.00000000000E+00 -0.11063178942E+04  0.11063178942E+04  0.00000000000E+00 0. -1.
         25    2    1    2    0    0 -0.64601404666E+02  0.56926460279E+02 -0.36310394445E+03  0.39355210849E+03  0.12499929705E+03 0.  0.
          4    1    3    3  502    0  0.20274647802E+02 -0.86013366707E+00 -0.19853388123E+03  0.19957233292E+03  0.12700000000E+01 0.  1.
         -4    1    3    3    0  502 -0.84876052468E+02  0.57786593946E+02 -0.16457006322E+03  0.19397977557E+03  0.12700000000E+01 0.  1.
          1    1    1    2  503    0  0.61634746239E+02 -0.30627640492E+02 -0.67056960175E+03  0.67409234167E+03  0.00000000000E+00 0. -1.
         -2    1    1    2    0  501  0.29666584272E+01 -0.26298819787E+02 -0.52512817659E+02  0.58804974304E+02  0.00000000000E+00 0.  1.
<mgrwt>
<rscale>  0 0.43149841E+02</rscale>
<asrwt>0</asrwt>
<pdfrwt beam="2">  1        1 0.17020277E+00 0.70351982E+02</pdfrwt>
<pdfrwt beam="1">  1       -2 0.30971582E-02 0.26465619E+02</pdfrwt>
<totfact> 0.39200331E+03</totfact>
</mgrwt>
</event>
<event>
 7    1  0.4251803E-004  0.5607537E+02  0.7546771E-02  0.1429621E+00
          2   -1    0    0  502    0  0.00000000000E+00  0.00000000000E+00  0.23237263720E+04  0.23237263720E+04  0.00000000000E+00 0. -1.
          2   -1    0    0  503    0 -0.00000000000E+00 -0.00000000000E+00 -0.66512653697E+02  0.66512653697E+02  0.00000000000E+00 0. -1.
         25    2    1    2    0    0 -0.95664766073E+02 -0.42171882951E+02  0.46468271576E+03  0.49242689265E+03  0.12499601234E+03 0.  0.
          4    1    3    3  501    0 -0.42827804538E+02 -0.84601529587E+02  0.28664000309E+03  0.30192009526E+03  0.12700000000E+01 0.  1.
         -4    1    3    3    0  501 -0.52836961535E+02  0.42429646636E+02  0.17804271266E+03  0.19050679739E+03  0.12700000000E+01 0.  1.
          2    1    1    2  502    0  0.44321370572E+02  0.23490474400E+02  0.18305578671E+04  0.18312450112E+04  0.00000000000E+00 0. -1.
          2    1    1    2  503    0  0.51343395502E+02  0.18681408551E+02 -0.38026864530E+02  0.66567121863E+02  0.00000000000E+00 0. -1.
<mgrwt>
<rscale>  0 0.53036121E+02</rscale>
<asrwt>0</asrwt>
<pdfrwt beam="1">  1        2 0.35749630E+00 0.50161602E+02</pdfrwt>
<pdfrwt beam="2">  1        2 0.10232718E-01 0.56075366E+02</pdfrwt>
<totfact> 0.54037097E+02</totfact>
</mgrwt>
</event>
<event>
 7    1  0.4251803E-004  0.4019969E+02  0.7546771E-02  0.1525892E+00
          2   -1    0    0  503    0  0.00000000000E+00  0.00000000000E+00  0.50985592336E+03  0.50985592336E+03  0.00000000000E+00 0. -1.
         -2   -1    0    0    0  501 -0.00000000000E+00 -0.00000000000E+00 -0.25836811574E+02  0.25836811574E+02  0.00000000000E+00 0.  1.
         25    2    1    2    0    0  0.17620421230E+02 -0.24675389252E+02  0.21487980574E+03  0.25042603983E+03  0.12498206444E+03 0.  0.
          4    1    3    3  502    0  0.28362629589E+02  0.35468404293E+02  0.16620054862E+03  0.17229823482E+03  0.12700000000E+01 0. -1.
         -4    1    3    3    0  502 -0.10742208358E+02 -0.60143793545E+02  0.48679257117E+02  0.78127805011E+02  0.12700000000E+01 0. -1.
          2    1    1    2  503    0  0.33753435411E+02  0.10492316154E+02  0.61870168820E+02  0.71255181497E+02  0.00000000000E+00 0. -1.
         -2    1    1    2    0  501 -0.51373856641E+02  0.14183073098E+02  0.20726913722E+03  0.21401151360E+03  0.00000000000E+00 0.  1.
<mgrwt>
<rscale>  0 0.37695132E+02</rscale>
<asrwt>0</asrwt>
<pdfrwt beam="1">  1        2 0.78439365E-01 0.35346614E+02</pdfrwt>
<pdfrwt beam="2">  1       -2 0.39748945E-02 0.40199692E+02</pdfrwt>
<totfact> 0.14169453E+04</totfact>
</mgrwt>
</event>
<event>
 7    1  0.4251803E-004  0.5567384E+02  0.7546771E-02  0.1500721E+00
         -2   -1    0    0    0  501 -0.00000000000E+00  0.00000000000E+00  0.23123076811E+03  0.23123076811E+03  0.00000000000E+00 0. -1.
          1   -1    0    0  503    0  0.00000000000E+00 -0.00000000000E+00 -0.10878957443E+04  0.10878957443E+04  0.00000000000E+00 0. -1.
         25    2    1    2    0    0 -0.31563086843E+02 -0.32094831573E+02 -0.42603845012E+03  0.44627996754E+03  0.12502296502E+03 0.  0.
          4    1    3    3  502    0  0.33493235690E+02 -0.14430546650E+02 -0.38990415559E+02  0.53403210756E+02  0.12700000000E+01 0.  1.
         -4    1    3    3    0  502 -0.65056322533E+02 -0.17664284923E+02 -0.38704803456E+03  0.39287675678E+03  0.12700000000E+01 0.  1.
          1    1    1    2  503    0  0.55992538482E+02  0.14259792541E+02 -0.64941340774E+03  0.65197874214E+03  0.00000000000E+00 0. -1.
         -2    1    1    2    0  501 -0.24429451639E+02  0.17835039032E+02  0.21878688163E+03  0.22086780277E+03  0.00000000000E+00 0. -1.
<mgrwt>
<rscale>  0 0.41036227E+02</rscale>
<asrwt>0</asrwt>
<pdfrwt beam="2">  1        1 0.16736857E+00 0.55673841E+02</pdfrwt>
<pdfrwt beam="1">  1       -2 0.35573965E-01 0.30247094E+02</pdfrwt>
<totfact> 0.98061464E+01</totfact>
</mgrwt>
</event>
<event>
 7    1  0.4251803E-004  0.6646778E+02  0.7546771E-02  0.1438162E+00
          1   -1    0    0  503    0 -0.00000000000E+00  0.00000000000E+00  0.33739549718E+03  0.33739549718E+03  0.00000000000E+00 0. -1.
          2   -1    0    0  502    0  0.00000000000E+00 -0.00000000000E+00 -0.71198676585E+03  0.71198676585E+03  0.00000000000E+00 0.  1.
         25    2    1    2    0    0 -0.21557234045E+02  0.23868816616E+02 -0.13147971595E+02  0.12973772012E+03  0.12499828846E+03 0.  0.
          4    1    3    3  501    0  0.44382986403E+02  0.19993642666E+01  0.24456839010E+02  0.50730629937E+02  0.12700000000E+01 0.  1.
         -4    1    3    3    0  501 -0.65940220447E+02  0.21869452349E+02 -0.37604810605E+02  0.79007090184E+02  0.12700000000E+01 0.  1.
          2    1    1    2  502    0 -0.38638265479E+02  0.90318487686E+01 -0.63570068131E+03  0.63693786673E+03  0.00000000000E+00 0.  1.
          1    1    1    2  503    0  0.60195499524E+02 -0.32900665385E+02  0.27425738424E+03  0.28270667618E+03  0.00000000000E+00 0. -1.
<mgrwt>
<rscale>  0 0.51355926E+02</rscale>
<asrwt>0</asrwt>
<pdfrwt beam="2">  1        2 0.10953643E+00 0.39679842E+02</pdfrwt>
<pdfrwt beam="1">  1        1 0.51906999E-01 0.66467784E+02</pdfrwt>
<totfact> 0.45248240E+02</totfact>
</mgrwt>
</event>
<event>
 7    1  0.4251803E-004  0.1214695E+03  0.7546771E-02  0.1360585E+00
          1   -1    0    0  503    0  0.00000000000E+00  0.00000000000E+00  0.82685499748E+03  0.82685499748E+03  0.00000000000E+00 0. -1.
         -1   -1    0    0    0  501 -0.00000000000E+00 -0.00000000000E+00 -0.20923695869E+03  0.20923695869E+03  0.00000000000E+00 0.  1.
         25    2    1    2    0    0 -0.68894937608E+02 -0.61516795192E+02  0.21912029753E+03  0.26864590364E+03  0.12500435286E+03 0.  0.
          4    1    3    3  502    0 -0.35945426782E+02 -0.34643525160E+01  0.19396259178E+03  0.19729970947E+03  0.12700000000E+01 0. -1.
         -4    1    3    3    0  502 -0.32949510825E+02 -0.58052442676E+02  0.25157705748E+02  0.71346194172E+02  0.12700000000E+01 0. -1.
          1    1    1    2  503    0  0.10701427702E+03  0.74196732509E+02  0.57339426342E+03  0.58799506114E+03  0.00000000000E+00 0. -1.
         -1    1    1    2    0  501 -0.38119339409E+02 -0.12679937317E+02 -0.17489652217E+03  0.17945099140E+03  0.00000000000E+00 0.  1.
<mgrwt>
<rscale>  0 0.69855463E+02</rscale>
<asrwt>0</asrwt>
<pdfrwt beam="1">  1        1 0.12720846E+00 0.12146948E+03</pdfrwt>
<pdfrwt beam="2">  1       -1 0.32190302E-01 0.40172937E+02</pdfrwt>
<totfact> 0.20227868E+02</totfact>
</mgrwt>
</event>
<event>
 7    1  0.4251803E-004  0.1099998E+03  0.7546771E-02  0.1387287E+00
          1   -1    0    0  502    0  0.00000000000E+00  0.00000000000E+00  0.99780336048E+03  0.99780336048E+03  0.00000000000E+00 0. -1.
          3   -1    0    0  503    0 -0.00000000000E+00 -0.00000000000E+00 -0.18602162075E+04  0.18602162075E+04  0.00000000000E+00 0. -1.
         25    2    1    2    0    0  0.13854520761E+03 -0.25035002032E+02  0.50871246493E+03  0.54243486503E+03  0.12500273976E+03 0.  0.
          4    1    3    3  501    0 -0.10932693300E+02 -0.17463442701E+02  0.18084047845E+03  0.18201479928E+03  0.12700000000E+01 0.  1.
         -4    1    3    3    0  501  0.14947790091E+03 -0.75715593309E+01  0.32787198648E+03  0.36042006574E+03  0.12700000000E+01 0.  1.
          1    1    1    2  502    0 -0.34266343757E+02 -0.96886305717E+01  0.46991715610E+03  0.47126445386E+03  0.00000000000E+00 0. -1.
          3    1    1    2  503    0 -0.10427886385E+03  0.34723632604E+02 -0.18410424680E+04  0.18443202491E+04  0.00000000000E+00 0. -1.
<mgrwt>
<rscale>  0 0.62586423E+02</rscale>
<asrwt>0</asrwt>
<pdfrwt beam="1">  1        1 0.15350821E+00 0.35609716E+02</pdfrwt>
<pdfrwt beam="2">  1        3 0.28618710E+00 0.10999977E+03</pdfrwt>
<totfact> 0.55698366E-01</totfact>
</mgrwt>
</event>
<event>
 7    1  0.4251803E-004  0.1402439E+03  0.7546771E-02  0.1345909E+00
          1   -1    0    0  503    0  0.00000000000E+00  0.00000000000E+00  0.87993494172E+03  0.87993494172E+03  0.00000000000E+00 0. -1.
         -1   -1    0    0    0  501 -0.00000000000E+00 -0.00000000000E+00 -0.13878250647E+03  0.13878250647E+03  0.00000000000E+00 0.  1.
         25    2    1    2    0    0  0.10942493212E+03 -0.45229424379E+02  0.96163021157E+02  0.19721159373E+03  0.12500227784E+03 0.  0.
          4    1    3    3  502    0  0.42973248823E+02 -0.78756076939E+02  0.81759899849E+02  0.12138992500E+03  0.12700000000E+01 0.  1.
         -4    1    3    3    0  502  0.66451683299E+02  0.33526652560E+02  0.14403121308E+02  0.75821668727E+02  0.12700000000E+01 0.  1.
          1    1    1    2  503    0  0.37388100539E+02  0.12467287019E+02  0.66814805977E+03  0.66930944494E+03  0.00000000000E+00 0. -1.
         -1    1    1    2    0  501 -0.14681303266E+03  0.32762137360E+02 -0.23158645670E+02  0.15219640953E+03  0.00000000000E+00 0.  1.
<mgrwt>
<rscale>  0 0.74345729E+02</rscale>
<asrwt>0</asrwt>
<pdfrwt beam="1">  1        1 0.13537460E+00 0.39411969E+02</pdfrwt>
<pdfrwt beam="2">  1       -1 0.21351155E-01 0.14024388E+03</pdfrwt>
<totfact> 0.39516174E+02</totfact>
</mgrwt>
</event>
<event>
 7    1  0.4251803E-004  0.1824889E+03  0.7546771E-02  0.1259826E+00
          3   -1    0    0  503    0 -0.00000000000E+00  0.00000000000E+00  0.55803934307E+02  0.55803934307E+02  0.00000000000E+00 0. -1.
          2   -1    0    0  502    0  0.00000000000E+00 -0.00000000000E+00 -0.11616973857E+04  0.11616973857E+04  0.00000000000E+00 0. -1.
         25    2    1    2    0    0 -0.11846544263E+03 -0.14002409917E+03 -0.38382292375E+03  0.44338060119E+03  0.12500204506E+03 0.  0.
          4    1    3    3  501    0 -0.11076972766E+03 -0.34628930589E+02 -0.21058607821E+03  0.24045208387E+03  0.12700000000E+01 0. -1.
         -4    1    3    3    0  501 -0.76957149638E+01 -0.10539516858E+03 -0.17323684554E+03  0.20292851732E+03  0.12700000000E+01 0. -1.
          2    1    1    2  502    0  0.16258453324E+03  0.89877774568E+02 -0.64926129423E+03  0.67531620223E+03  0.00000000000E+00 0. -1.
          3    1    1    2  503    0 -0.44119090612E+02  0.50146324601E+02 -0.72809233391E+02  0.98804516568E+02  0.00000000000E+00 0. -1.
<mgrwt>
<rscale>  0 0.11040275E+03</rscale>
<asrwt>0</asrwt>
<pdfrwt beam="2">  1        2 0.17872267E+00 0.18248889E+03</pdfrwt>
<pdfrwt beam="1">  1        3 0.85852209E-02 0.66791826E+02</pdfrwt>
<totfact> 0.11085673E+03</totfact>
</mgrwt>
</event>
<event>
 7    1  0.4251803E-004  0.1378453E+03  0.7546771E-02  0.1327515E+00
          2   -1    0    0  502    0  0.00000000000E+00  0.00000000000E+00  0.15100807695E+04  0.15100807695E+04  0.00000000000E+00 0. -1.
          2   -1    0    0  503    0 -0.00000000000E+00 -0.00000000000E+00 -0.18591941528E+03  0.18591941528E+03  0.00000000000E+00 0. -1.
         25    2    1    2    0    0  0.12249108799E+03 -0.12870480435E+03  0.71119261079E+03  0.74363215250E+03  0.12499942115E+03 0.  0.
          4    1    3    3  501    0  0.13643781597E+03 -0.89003098042E+02  0.43995698682E+03  0.46914879541E+03  0.12700000000E+01 0. -1.
         -4    1    3    3    0  501 -0.13946727982E+02 -0.39701706308E+02  0.27123562398E+03  0.27448335709E+03  0.12700000000E+01 0. -1.
          2    1    1    2  502    0 -0.15127858919E+02  0.44564435259E+02  0.75440529998E+03  0.75587181297E+03  0.00000000000E+00 0. -1.
          2    1    1    2  503    0 -0.10736322907E+03  0.84140369091E+02 -0.14143655656E+03  0.19649621930E+03  0.00000000000E+00 0. -1.
<mgrwt>
<rscale>  0 0.80543719E+02</rscale>
<asrwt>0</asrwt>
<pdfrwt beam="1">  1        2 0.23232011E+00 0.47062097E+02</pdfrwt>
<pdfrwt beam="2">  1        2 0.28602988E-01 0.13784534E+03</pdfrwt>
<totfact> 0.43997774E+02</totfact>
</mgrwt>
</event>
<event>
 7    1  0.4251803E-004  0.1409586E+03  0.7546771E-02  0.1268530E+00
         -3   -1    0    0    0  501 -0.00000000000E+00  0.00000000000E+00  0.53272839048E+03  0.53272839048E+03  0.00000000000E+00 0.  1.
          1   -1    0    0  503    0  0.00000000000E+00 -0.00000000000E+00 -0.23349091532E+03  0.23349091532E+03  0.00000000000E+00 0. -1.
         25    2    1    2    0    0  0.14071732281E+02  0.13738377033E+03  0.32348235168E+02  0.18905876919E+03  0.12499798354E+03 0.  0.
          4    1    3    3  502    0 -0.32581693187E+02  0.95940695232E+02 -0.24922182699E+02  0.10434994884E+03  0.12700000000E+01 0.  1.
         -4    1    3    3    0  502  0.46653425468E+02  0.41443075100E+02  0.57270417867E+02  0.84708820346E+02  0.12700000000E+01 0.  1.
          1    1    1    2  503    0 -0.90579388945E+02 -0.11604631391E+03 -0.11518380599E+03  0.18691891781E+03  0.00000000000E+00 0. -1.
         -3    1    1    2    0  501  0.76507656664E+02 -0.21337456418E+02  0.38207304598E+03  0.39024161880E+03  0.00000000000E+00 0.  1.
<mgrwt>
<rscale>  0 0.10581103E+03</rscale>
<asrwt>0</asrwt>
<pdfrwt beam="2">  1        1 0.35921679E-01 0.14095862E+03</pdfrwt>
<pdfrwt beam="1">  1       -3 0.81958214E-01 0.79427379E+02</pdfrwt>
<totfact> 0.89519661E+01</totfact>
</mgrwt>
</event>
<event>
 7    1  0.4251803E-004  0.1321683E+03  0.7546771E-02  0.1272862E+00
          2   -1    0    0  503    0  0.00000000000E+00  0.00000000000E+00  0.50941699897E+03  0.50941699897E+03  0.00000000000E+00 0.  1.
          2   -1    0    0  502    0 -0.00000000000E+00 -0.00000000000E+00 -0.80880456552E+03  0.80880456552E+03  0.00000000000E+00 0. -1.
         25    2    1    2    0    0  0.90555585529E+02 -0.12480995380E+03  0.21817556898E+03  0.29496068194E+03  0.12499354524E+03 0.  0.
          4    1    3    3  501    0  0.94830908457E+02 -0.12317670694E+03  0.23260395586E+03  0.27977064805E+03  0.12700000000E+01 0. -1.
         -4    1    3    3    0  501 -0.42753229283E+01 -0.16332468615E+01 -0.14428386880E+02  0.15190033884E+02  0.12700000000E+01 0. -1.
          2    1    1    2  502    0 -0.96205817847E+01  0.13183006678E+03 -0.75801643343E+03  0.76945476504E+03  0.00000000000E+00 0. -1.
          2    1    1    2  503    0 -0.80935003744E+02 -0.70201129794E+01  0.24045329790E+03  0.25380611752E+03  0.00000000000E+00 0.  1.
<mgrwt>
<rscale>  0 0.10362049E+03</rscale>
<asrwt>0</asrwt>
<pdfrwt beam="1">  1        2 0.78371846E-01 0.81238887E+02</pdfrwt>
<pdfrwt beam="2">  1        2 0.12443147E+00 0.13216829E+03</pdfrwt>
<totfact> 0.34726183E+02</totfact>
</mgrwt>
</event>
<event>
 7    1  0.4251803E-004  0.9367139E+02  0.7546771E-02  0.1448773E+00
          2   -1    0    0  502    0  0.00000000000E+00  0.00000000000E+00  0.12522931803E+04  0.12522931803E+04  0.00000000000E+00 0. -1.
          1   -1    0    0  503    0 -0.00000000000E+00 -0.00000000000E+00 -0.11665579510E+03  0.11665579510E+03  0.00000000000E+00 0. -1.
         25    2    1    2    0    0 -0.32155712930E+02 -0.85293122822E+02  0.53337315279E+02  0.16363406573E+03  0.12498932591E+03 0.  0.
          4    1    3    3  501    0 -0.10870048132E+02 -0.82646654984E+02  0.89032000026E+02  0.12197105171E+03  0.12700000000E+01 0.  1.
         -4    1    3    3    0  501 -0.21285664797E+02 -0.26464678377E+01 -0.35694684747E+02  0.41663014018E+02  0.12700000000E+01 0.  1.
          2    1    1    2  502    0  0.74909146641E+01  0.93581081010E+02  0.11390352598E+04  0.11428975700E+04  0.00000000000E+00 0. -1.
          1    1    1    2  503    0  0.24664798266E+02 -0.82879581883E+01 -0.56735189848E+02  0.62417339671E+02  0.00000000000E+00 0. -1.
<mgrwt>
<rscale>  0 0.49369356E+02</rscale>
<asrwt>0</asrwt>
<pdfrwt beam="1">  1        2 0.19266048E+00 0.93671386E+02</pdfrwt>
<pdfrwt beam="2">  1        1 0.17947046E-01 0.26020041E+02</pdfrwt>
<totfact> 0.72381373E+02</totfact>
</mgrwt>
</event>
<event>
 7    1  0.4251803E-004  0.1122454E+03  0.7546771E-02  0.1423398E+00
          1   -1    0    0  503    0  0.00000000000E+00  0.00000000000E+00  0.38157783717E+03  0.38157783717E+03  0.00000000000E+00 0. -1.
         -2   -1    0    0    0  501 -0.00000000000E+00 -0.00000000000E+00 -0.22742358053E+03  0.22742358053E+03  0.00000000000E+00 0.  1.
         25    2    1    2    0    0 -0.96988783690E+02  0.93977694985E+02  0.32718907497E+03  0.37538730637E+03  0.12499723073E+03 0.  0.
          4    1    3    3  502    0 -0.21916836617E+02 -0.15194138779E+01  0.19351012595E+03  0.19475738264E+03  0.12700000000E+01 0. -1.
         -4    1    3    3    0  502 -0.75071947074E+02  0.95497108863E+02  0.13367894902E+03  0.18062992374E+03  0.12700000000E+01 0. -1.
          1    1    1    2  503    0  0.24423041607E+02 -0.96933930046E+01  0.18701731993E+01  0.26342824014E+02  0.00000000000E+00 0. -1.
         -2    1    1    2    0  501  0.72565742084E+02 -0.84284301980E+02 -0.17490499153E+03  0.20727128732E+03  0.00000000000E+00 0.  1.
<mgrwt>
<rscale>  0 0.54308378E+02</rscale>
<asrwt>0</asrwt>
<pdfrwt beam="1">  1        1 0.58704283E-01 0.26276355E+02</pdfrwt>
<pdfrwt beam="2">  1       -2 0.34988243E-01 0.11224540E+03</pdfrwt>
<totfact> 0.44272105E+02</totfact>
</mgrwt>
</event>
<event>
 7    1  0.4251803E-004  0.3941002E+02  0.7546771E-02  0.1541870E+00
          2   -1    0    0  503    0  0.00000000000E+00  0.00000000000E+00  0.19947577602E+03  0.19947577602E+03  0.00000000000E+00 0. -1.
         -1   -1    0    0    0  501 -0.00000000000E+00 -0.00000000000E+00 -0.65338441213E+02  0.65338441213E+02  0.00000000000E+00 0.  1.
         25    2    1    2    0    0  0.40116998472E+01 -0.28644734574E+02  0.12448915362E+03  0.17877067392E+03  0.12499915972E+03 0.  0.
          4    1    3    3  502    0 -0.20213437693E+02 -0.96902445417E+01  0.14172248895E+03  0.14348993232E+03  0.12700000000E+01 0. -1.
         -4    1    3    3    0  502  0.24225137540E+02 -0.18954490032E+02 -0.17233335333E+02  0.35280741601E+02  0.12700000000E+01 0. -1.
          2    1    1    2  503    0  0.22553332760E+02  0.47307781842E+02  0.88549664275E+00  0.52416248871E+02  0.00000000000E+00 0. -1.
         -1    1    1    2    0  501 -0.26565032608E+02 -0.18663047268E+02  0.87626845436E+01  0.33627294438E+02  0.00000000000E+00 0.  1.
<mgrwt>
<rscale>  0 0.35769639E+02</rscale>
<asrwt>0</asrwt>
<pdfrwt beam="1">  1        2 0.30688581E-01 0.39410024E+02</pdfrwt>
<pdfrwt beam="2">  1       -1 0.10052068E-01 0.32465525E+02</pdfrwt>
<totfact> 0.96761657E+03</totfact>
</mgrwt>
</event>
<event>
 7    1  0.4251803E-004  0.5302517E+02  0.7546771E-02  0.1536937E+00
          2   -1    0    0  503    0  0.00000000000E+00  0.00000000000E+00  0.18014869205E+04  0.18014869205E+04  0.00000000000E+00 0. -1.
         -3   -1    0    0    0  501 -0.00000000000E+00 -0.00000000000E+00 -0.28893041981E+02  0.28893041981E+02  0.00000000000E+00 0.  1.
         25    2    1    2    0    0 -0.30802401807E+02  0.33515313813E+02  0.47094754591E+03  0.48937855465E+03  0.12501085768E+03 0.  0.
          4    1    3    3  502    0 -0.35045939061E+02  0.46339854078E+02  0.47219106762E+03  0.47575373584E+03  0.12700000000E+01 0.  1.
         -4    1    3    3    0  502  0.42435372542E+01 -0.12824540265E+02 -0.12435217140E+01  0.13624818813E+02  0.12700000000E+01 0.  1.
          2    1    1    2  503    0 -0.19900207994E+02 -0.14995514095E+02  0.12839555986E+04  0.12841973614E+04  0.00000000000E+00 0. -1.
         -3    1    1    2    0  501  0.50702609801E+02 -0.18519799718E+02  0.17690733952E+02  0.56804046423E+02  0.00000000000E+00 0.  1.
<mgrwt>
<rscale>  0 0.36349095E+02</rscale>
<asrwt>0</asrwt>
<pdfrwt beam="1">  1        2 0.27715175E+00 0.24917538E+02</pdfrwt>
<pdfrwt beam="2">  1       -3 0.44450848E-02 0.53025169E+02</pdfrwt>
<totfact> 0.16782623E+03</totfact>
</mgrwt>
</event>
<event>
 7    1  0.4251803E-004  0.5688484E+02  0.7546771E-02  0.1522285E+00
          2   -1    0    0  503    0  0.00000000000E+00  0.00000000000E+00  0.14247543440E+04  0.14247543440E+04  0.00000000000E+00 0. -1.
         -1   -1    0    0    0  501 -0.00000000000E+00 -0.00000000000E+00 -0.13761291524E+02  0.13761291524E+02  0.00000000000E+00 0.  1.
         25    2    1    2    0    0  0.60848225473E+02  0.22316688870E+02  0.10783356009E+04  0.10874889422E+04  0.12499596022E+03 0.  0.
          4    1    3    3  502    0 -0.35766248256E+02 -0.12283209904E+02  0.32469947605E+03  0.32689671826E+03  0.12700000000E+01 0.  1.
         -4    1    3    3    0  502  0.96614473729E+02  0.34599898774E+02  0.75363612487E+03  0.76059222395E+03  0.12700000000E+01 0.  1.
          2    1    1    2  503    0 -0.39921175681E+02 -0.37036202431E+02  0.31563050667E+03  0.32029361108E+03  0.00000000000E+00 0. -1.
         -1    1    1    2    0  501 -0.20927049792E+02  0.14719513562E+02  0.17026944925E+02  0.30733082273E+02  0.00000000000E+00 0.  1.
<mgrwt>
<rscale>  0 0.38149882E+02</rscale>
<asrwt>0</asrwt>
<pdfrwt beam="1">  1        2 0.21919286E+00 0.56884845E+02</pdfrwt>
<pdfrwt beam="2">  1       -1 0.21171229E-02 0.25585259E+02</pdfrwt>
<totfact> 0.87409471E+03</totfact>
</mgrwt>
</event>
<event>
 7    1  0.4251803E-004  0.1224799E+03  0.7546771E-02  0.1269236E+00
         -1   -1    0    0    0  501 -0.00000000000E+00  0.00000000000E+00  0.23094993063E+04  0.23094993063E+04  0.00000000000E+00 0.  1.
          3   -1    0    0  503    0  0.00000000000E+00 -0.00000000000E+00 -0.64688329941E+02  0.64688329941E+02  0.00000000000E+00 0. -1.
         25    2    1    2    0    0 -0.28630900806E+02 -0.71936957210E+02  0.23698858711E+03  0.27889709887E+03  0.12500138818E+03 0.  0.
          4    1    3    3  502    0 -0.13107679344E+02  0.32134852404E+02  0.26902531969E+02  0.43929706614E+02  0.12700000000E+01 0.  1.
         -4    1    3    3    0  502 -0.15523221462E+02 -0.10407180961E+03  0.21008605514E+03  0.23496739226E+03  0.12700000000E+01 0.  1.
          3    1    1    2  503    0  0.11689344172E+03  0.93201005595E+02  0.88315712846E+02  0.17363804104E+03  0.00000000000E+00 0. -1.
         -1    1    1    2    0  501 -0.88262540914E+02 -0.21264048385E+02  0.19195066764E+04  0.19216524963E+04  0.00000000000E+00 0.  1.
<mgrwt>
<rscale>  0 0.10544994E+03</rscale>
<asrwt>0</asrwt>
<pdfrwt beam="2">  1        3 0.99520525E-02 0.12247991E+03</pdfrwt>
<pdfrwt beam="1">  1       -1 0.35530752E+00 0.90787862E+02</pdfrwt>
<totfact> 0.65208139E+00</totfact>
</mgrwt>
</event>
<event>
 7    1  0.4251803E-004  0.3024406E+03  0.7546771E-02  0.1089795E+00
          2   -1    0    0  503    0  0.00000000000E+00  0.00000000000E+00  0.32068740908E+03  0.32068740908E+03  0.00000000000E+00 0. -1.
          2   -1    0    0  502    0 -0.00000000000E+00 -0.00000000000E+00 -0.12917137831E+04  0.12917137831E+04  0.00000000000E+00 0. -1.
         25    2    1    2    0    0  0.16968593583E+03 -0.35099921753E+02 -0.84280796448E+02  0.22969242289E+03  0.12502013900E+03 0.  0.
          4    1    3    3  501    0  0.10811448576E+03 -0.57271256212E+02 -0.10479678345E+03  0.16109847156E+03  0.12700000000E+01 0.  1.
         -4    1    3    3    0  501  0.61571450077E+02  0.22171334459E+02  0.20515987000E+02  0.68593951328E+02  0.12700000000E+01 0.  1.
          2    1    1    2  502    0 -0.22588556907E+03  0.30951890654E+03 -0.10073256983E+04  0.10777436180E+04  0.00000000000E+00 0. -1.
          2    1    1    2  503    0  0.56199633234E+02 -0.27441898478E+03  0.12058012068E+03  0.30496515127E+03  0.00000000000E+00 0. -1.
<mgrwt>
<rscale>  0 0.29106359E+03</rscale>
<asrwt>0</asrwt>
<pdfrwt beam="1">  1        2 0.49336525E-01 0.28011458E+03</pdfrwt>
<pdfrwt beam="2">  1        2 0.19872520E+00 0.30244058E+03</pdfrwt>
<totfact> 0.27862205E+02</totfact>
</mgrwt>
</event>
<event>
 7    1  0.4251803E-004  0.1397867E+03  0.7546771E-02  0.1224842E+00
          1   -1    0    0  503    0 -0.00000000000E+00  0.00000000000E+00  0.11928932606E+03  0.11928932606E+03  0.00000000000E+00 0. -1.
          2   -1    0    0  502    0  0.00000000000E+00 -0.00000000000E+00 -0.11570859542E+04  0.11570859542E+04  0.00000000000E+00 0. -1.
         25    2    1    2    0    0  0.28015602997E+02 -0.74865067311E+02 -0.16048627563E+03  0.21855673398E+03  0.12498619520E+03 0.  0.
          4    1    3    3  501    0  0.37714298918E+02  0.24887453893E+02 -0.71127751218E+02  0.84276471197E+02  0.12700000000E+01 0.  1.
         -4    1    3    3    0  501 -0.96986959209E+01 -0.99752521204E+02 -0.89358524408E+02  0.13428026278E+03  0.12700000000E+01 0.  1.
          2    1    1    2  502    0 -0.84694614556E+02 -0.90879358201E+02 -0.87383021884E+03  0.88261627383E+03  0.00000000000E+00 0. -1.
          1    1    1    2  503    0  0.56679011559E+02  0.16574442551E+03 -0.34801336761E+01  0.17520227245E+03  0.00000000000E+00 0. -1.
<mgrwt>
<rscale>  0 0.13177715E+03</rscale>
<asrwt>0</asrwt>
<pdfrwt beam="2">  1        2 0.17801323E+00 0.12422655E+03</pdfrwt>
<pdfrwt beam="1">  1        1 0.18352203E-01 0.13978668E+03</pdfrwt>
<totfact> 0.84182945E+02</totfact>
</mgrwt>
</event>
<event>
 7    1  0.4251803E-004  0.9802639E+02  0.7546771E-02  0.1304729E+00
         -1   -1    0    0    0  501 -0.00000000000E+00  0.00000000000E+00  0.55181403786E+03  0.55181403786E+03  0.00000000000E+00 0.  1.
          2   -1    0    0  503    0  0.00000000000E+00 -0.00000000000E+00 -0.26284656575E+03  0.26284656575E+03  0.00000000000E+00 0. -1.
         25    2    1    2    0    0 -0.13746337518E+03  0.76448015346E+02  0.31415981581E+03  0.37290818122E+03  0.12499457264E+03 0.  0.
          4    1    3    3  502    0 -0.31438654825E+02  0.88640913607E+02  0.14081406243E+03  0.16933934469E+03  0.12700000000E+01 0.  1.
         -4    1    3    3    0  502 -0.10602472035E+03 -0.12192898261E+02  0.17334575338E+03  0.20356883654E+03  0.12700000000E+01 0.  1.
          2    1    1    2  503    0  0.79045142431E+02 -0.18678027629E+02 -0.21774723095E+03  0.23240236626E+03  0.00000000000E+00 0. -1.
         -1    1    1    2    0  501  0.58418232744E+02 -0.57769987718E+02  0.19255488725E+03  0.20935005613E+03  0.00000000000E+00 0.  1.
<mgrwt>
<rscale>  0 0.89229441E+02</rscale>
<asrwt>0</asrwt>
<pdfrwt beam="2">  1        2 0.40437933E-01 0.81221938E+02</pdfrwt>
<pdfrwt beam="1">  1       -1 0.84894467E-01 0.98026387E+02</pdfrwt>
<totfact> 0.21337685E+02</totfact>
</mgrwt>
</event>
<event>
 7    1  0.4251803E-004  0.5558034E+02  0.7546771E-02  0.1449391E+00
         -1   -1    0    0    0  501 -0.00000000000E+00  0.00000000000E+00  0.18560122612E+02  0.18560122612E+02  0.00000000000E+00 0.  1.
          2   -1    0    0  503    0  0.00000000000E+00 -0.00000000000E+00 -0.10796071817E+04  0.10796071817E+04  0.00000000000E+00 0. -1.
         25    2    1    2    0    0 -0.78451320766E+02 -0.27294337414E+02 -0.78561443529E+03  0.79982225881E+03  0.12500405660E+03 0.  0.
          4    1    3    3  502    0  0.19500170346E+00 -0.19123263449E+02 -0.12972157406E+02  0.23143616796E+02  0.12700000000E+01 0.  1.
         -4    1    3    3    0  502 -0.78646322469E+02 -0.81710739651E+01 -0.77264227789E+03  0.77667864202E+03  0.12700000000E+01 0.  1.
          2    1    1    2  503    0  0.47541990593E+02 -0.35309601652E+01 -0.23170168396E+03  0.23655523435E+03  0.00000000000E+00 0. -1.
         -1    1    1    2    0  501  0.30909330173E+02  0.30825297580E+02 -0.43730939832E+02  0.61789811144E+02  0.00000000000E+00 0.  1.
<mgrwt>
<rscale>  0 0.49256974E+02</rscale>
<asrwt>0</asrwt>
<pdfrwt beam="2">  1        2 0.16609348E+00 0.55580343E+02</pdfrwt>
<pdfrwt beam="1">  1       -1 0.28554023E-02 0.43653014E+02</pdfrwt>
<totfact> 0.95663743E+03</totfact>
</mgrwt>
</event>
<event>
 7    1  0.4251803E-004  0.6799996E+02  0.7546771E-02  0.1409509E+00
          2   -1    0    0  503    0  0.00000000000E+00  0.00000000000E+00  0.12525939564E+03  0.12525939564E+03  0.00000000000E+00 0. -1.
         -1   -1    0    0    0  501 -0.00000000000E+00 -0.00000000000E+00 -0.17246237037E+03  0.17246237037E+03  0.00000000000E+00 0.  1.
         25    2    1    2    0    0  0.10399995061E+03 -0.56770412306E+01 -0.27257346967E+02  0.16496965517E+03  0.12499522246E+03 0.  0.
          4    1    3    3  502    0 -0.12320065834E+02 -0.20051646226E+02  0.26974142342E+02  0.35819963618E+02  0.12700000000E+01 0.  1.
         -4    1    3    3    0  502  0.11632001645E+03  0.14374604996E+02 -0.54231489310E+02  0.12914969155E+03  0.12700000000E+01 0.  1.
          2    1    1    2  503    0 -0.46335152925E+02 -0.13598918606E+02  0.27552851046E+02  0.55597091512E+02  0.00000000000E+00 0. -1.
         -1    1    1    2    0  501 -0.57664797687E+02  0.19275959837E+02 -0.47498478806E+02  0.77155019336E+02  0.00000000000E+00 0.  1.
<mgrwt>
<rscale>  0 0.57303448E+02</rscale>
<asrwt>0</asrwt>
<pdfrwt beam="1">  1        2 0.19270676E-01 0.48289512E+02</pdfrwt>
<pdfrwt beam="2">  1       -1 0.26532672E-01 0.67999965E+02</pdfrwt>
<totfact> 0.37720680E+03</totfact>
</mgrwt>
</event>
<event>
 7    1  0.4251803E-004  0.1280942E+03  0.7546771E-02  0.1331007E+00
          1   -1    0    0  503    0 -0.00000000000E+00  0.00000000000E+00  0.63464091884E+03  0.63464091884E+03  0.00000000000E+00 0. -1.
          2   -1    0    0  502    0  0.00000000000E+00 -0.00000000000E+00 -0.49091709704E+03  0.49091709704E+03  0.00000000000E+00 0. -1.
         25    2    1    2    0    0 -0.80134424061E+02 -0.70702060479E+01 -0.20050943751E+03  0.24960233309E+03  0.12500310565E+03 0.  0.
          4    1    3    3  501    0 -0.57441179558E+02 -0.46211544475E+02 -0.18903882897E+03  0.20290955549E+03  0.12700000000E+01 0.  1.
         -4    1    3    3    0  501 -0.22693244503E+02  0.39141338427E+02 -0.11470608544E+02  0.46692777603E+02  0.12700000000E+01 0.  1.
          2    1    1    2  502    0 -0.48952284578E+02 -0.39464256704E+01 -0.25662845610E+03  0.26128540893E+03  0.00000000000E+00 0. -1.
          1    1    1    2  503    0  0.12908670864E+03  0.11016631718E+02  0.60086171540E+03  0.61467027385E+03  0.00000000000E+00 0. -1.
<mgrwt>
<rscale>  0 0.79314856E+02</rscale>
<asrwt>0</asrwt>
<pdfrwt beam="2">  1        2 0.75525707E-01 0.49111103E+02</pdfrwt>
<pdfrwt beam="1">  1        1 0.97637065E-01 0.12809418E+03</pdfrwt>
<totfact> 0.29665360E+02</totfact>
</mgrwt>
</event>
<event>
 7    1  0.4251803E-004  0.8002806E+02  0.7546771E-02  0.1387737E+00
          2   -1    0    0  503    0  0.00000000000E+00  0.00000000000E+00  0.84579337955E+03  0.84579337955E+03  0.00000000000E+00 0. -1.
         -1   -1    0    0    0  501 -0.00000000000E+00 -0.00000000000E+00 -0.29618827717E+02  0.29618827717E+02  0.00000000000E+00 0.  1.
         25    2    1    2    0    0 -0.72170564325E+02  0.94119345402E+02  0.44790559423E+03  0.47990574139E+03  0.12499223076E+03 0.  0.
          4    1    3    3  502    0 -0.72772338005E+02  0.85402139064E+01  0.30185564027E+03  0.31062387046E+03  0.12700000000E+01 0. -1.
         -4    1    3    3    0  502  0.60177367976E+00  0.85579131496E+02  0.14604995395E+03  0.16928187094E+03  0.12700000000E+01 0. -1.
          2    1    1    2  503    0  0.35734951038E+02 -0.33187548978E+02  0.26945613145E+03  0.27383390387E+03  0.00000000000E+00 0. -1.
         -1    1    1    2    0  501  0.36435613287E+02 -0.60931796424E+02  0.98812826158E+02  0.12167256200E+03  0.00000000000E+00 0.  1.
<mgrwt>
<rscale>  0 0.62473002E+02</rscale>
<asrwt>0</asrwt>
<pdfrwt beam="1">  1        2 0.13012204E+00 0.48768844E+02</pdfrwt>
<pdfrwt beam="2">  1       -1 0.45567434E-02 0.80028060E+02</pdfrwt>
<totfact> 0.72785865E+03</totfact>
</mgrwt>
</event>
<event>
 7    1  0.4251803E-004  0.3158178E+02  0.7546771E-02  0.1640769E+00
          2   -1    0    0  502    0  0.00000000000E+00  0.00000000000E+00  0.28723787762E+03  0.28723787762E+03  0.00000000000E+00 0. -1.
          2   -1    0    0  503    0 -0.00000000000E+00 -0.00000000000E+00 -0.21557986079E+03  0.21557986079E+03  0.00000000000E+00 0.  1.
         25    2    1    2    0    0  0.18021270630E+02  0.26765902061E+02  0.16099712528E+03  0.20637580372E+03  0.12501887180E+03 0.  0.
          4    1    3    3  501    0 -0.79485327185E+01 -0.46809841138E+02  0.85446957972E+02  0.97760605186E+02  0.12700000000E+01 0.  1.
         -4    1    3    3    0  501  0.25969803349E+02  0.73575743199E+02  0.75550167307E+02  0.10861519854E+03  0.12700000000E+01 0.  1.
          2    1    1    2  502    0 -0.21688927808E+02  0.46525186012E+01  0.10104335319E+03  0.10344957585E+03  0.00000000000E+00 0. -1.
          2    1    1    2  503    0  0.36676571774E+01 -0.31418420662E+02 -0.19038246165E+03  0.19299235884E+03  0.00000000000E+00 0.  1.
<mgrwt>
<rscale>  0 0.26468043E+02</rscale>
<asrwt>0</asrwt>
<pdfrwt beam="1">  1        2 0.44190443E-01 0.22182324E+02</pdfrwt>
<pdfrwt beam="2">  1        2 0.33166132E-01 0.31581780E+02</pdfrwt>
<totfact> 0.25788581E+03</totfact>
</mgrwt>
</event>
<event>
 7    1  0.4251803E-004  0.1222620E+03  0.7546771E-02  0.1385282E+00
          1   -1    0    0  503    0  0.00000000000E+00  0.00000000000E+00  0.41499780960E+02  0.41499780960E+02  0.00000000000E+00 0. -1.
         -1   -1    0    0    0  501 -0.00000000000E+00 -0.00000000000E+00 -0.72711898827E+03  0.72711898827E+03  0.00000000000E+00 0.  1.
         25    2    1    2    0    0 -0.22930620051E+02 -0.12891517879E+03 -0.28619873200E+03  0.33864383252E+03  0.12499997778E+03 0.  0.
          4    1    3    3  502    0 -0.69837074398E+02 -0.10583162724E+03 -0.22382725141E+03  0.25725046484E+03  0.12700000000E+01 0.  1.
         -4    1    3    3    0  502  0.46906454347E+02 -0.23083551549E+02 -0.62371480588E+02  0.81393367680E+02  0.12700000000E+01 0.  1.
          1    1    1    2  503    0  0.47022006969E+02  0.10700923734E+03 -0.23620236943E+03  0.26354051935E+03  0.00000000000E+00 0. -1.
         -1    1    1    2    0  501 -0.24091386917E+02  0.21905941448E+02 -0.16321810588E+03  0.16643441736E+03  0.00000000000E+00 0.  1.
<mgrwt>
<rscale>  0 0.63095632E+02</rscale>
<asrwt>0</asrwt>
<pdfrwt beam="1">  1        1 0.63845817E-02 0.12226195E+03</pdfrwt>
<pdfrwt beam="2">  1       -1 0.11186446E+00 0.32561714E+02</pdfrwt>
<totfact> 0.96896797E+02</totfact>
</mgrwt>
</event>
<event>
 7    1  0.4251803E-004  0.6931203E+02  0.7546771E-02  0.1489730E+00
          1   -1    0    0  503    0  0.00000000000E+00  0.00000000000E+00  0.73788832146E+02  0.73788832146E+02  0.00000000000E+00 0. -1.
          1   -1    0    0  502    0 -0.00000000000E+00 -0.00000000000E+00 -0.41063278828E+03  0.41063278828E+03  0.00000000000E+00 0. -1.
         25    2    1    2    0    0  0.33362482006E+02 -0.42588627764E+02 -0.23493389349E+03  0.27156320392E+03  0.12500317192E+03 0.  0.
          4    1    3    3  501    0 -0.46096808890E+01 -0.43438115710E+02 -0.22896060444E+03  0.23309373723E+03  0.12700000000E+01 0.  1.
         -4    1    3    3    0  501  0.37972162895E+02  0.84948794606E+00 -0.59732890541E+01  0.38469466682E+02  0.12700000000E+01 0.  1.
          1    1    1    2  502    0  0.25957388162E+02  0.36633300098E+01 -0.13288127678E+03  0.13544238518E+03  0.00000000000E+00 0. -1.
          1    1    1    2  503    0 -0.59319870168E+02  0.38925297754E+02  0.30971214129E+02  0.77416031328E+02  0.00000000000E+00 0. -1.
<mgrwt>
<rscale>  0 0.42626144E+02</rscale>
<asrwt>0</asrwt>
<pdfrwt beam="1">  1        1 0.11352128E-01 0.69312030E+02</pdfrwt>
<pdfrwt beam="2">  1        1 0.63174276E-01 0.26214614E+02</pdfrwt>
<totfact> 0.35974643E+03</totfact>
</mgrwt>
</event>
<event>
 7    1  0.4251803E-004  0.3887683E+02  0.7546771E-02  0.1603328E+00
          1   -1    0    0  503    0  0.00000000000E+00  0.00000000000E+00  0.93592248382E+03  0.93592248382E+03  0.00000000000E+00 0. -1.
         -2   -1    0    0    0  501 -0.00000000000E+00 -0.00000000000E+00 -0.75445351351E+02  0.75445351351E+02  0.00000000000E+00 0.  1.
         25    2    1    2    0    0  0.49003754972E+02  0.25727760183E+02  0.15106029009E+03  0.20373395877E+03  0.12500011628E+03 0.  0.
          4    1    3    3  502    0  0.85895186862E+02  0.35961504852E+02  0.78987611383E+02  0.12211416220E+03  0.12700000000E+01 0.  1.
         -4    1    3    3    0  502 -0.36891431890E+02 -0.10233744669E+02  0.72072678706E+02  0.81619796573E+02  0.12700000000E+01 0.  1.
          1    1    1    2  503    0 -0.38135751464E+02 -0.61038553028E+01  0.75544434314E+03  0.75643092756E+03  0.00000000000E+00 0. -1.
         -2    1    1    2    0  501 -0.10868003508E+02 -0.19623904880E+02 -0.46027500762E+02  0.51202948835E+02  0.00000000000E+00 0.  1.
<mgrwt>
<rscale>  0 0.29531327E+02</rscale>
<asrwt>0</asrwt>
<pdfrwt beam="1">  1        1 0.14398807E+00 0.38876825E+02</pdfrwt>
<pdfrwt beam="2">  1       -2 0.11606978E-01 0.22432368E+02</pdfrwt>
<totfact> 0.78051438E+02</totfact>
</mgrwt>
</event>
<event>
 7    1  0.4251803E-004  0.2693212E+03  0.7546771E-02  0.1177685E+00
          2   -1    0    0  503    0  0.00000000000E+00  0.00000000000E+00  0.58563715643E+03  0.58563715643E+03  0.00000000000E+00 0. -1.
          2   -1    0    0  502    0 -0.00000000000E+00 -0.00000000000E+00 -0.63895721520E+03  0.63895721520E+03  0.00000000000E+00 0. -1.
         25    2    1    2    0    0 -0.12510012743E+03  0.12127208690E+03 -0.32582286793E+03  0.39004899194E+03  0.12498285444E+03 0.  0.
          4    1    3    3  501    0 -0.11476284736E+03  0.10394215654E+03 -0.15876158024E+03  0.22176865266E+03  0.12700000000E+01 0. -1.
         -4    1    3    3    0  501 -0.10337280071E+02  0.17329930364E+02 -0.16706128769E+03  0.16828033929E+03  0.12700000000E+01 0. -1.
          2    1    1    2  502    0 -0.95324577873E+02  0.49702588924E+02 -0.23332153966E+03  0.25689698979E+03  0.00000000000E+00 0. -1.
          2    1    1    2  503    0  0.22042470531E+03 -0.17097467582E+03  0.50582434883E+03  0.57764838990E+03  0.00000000000E+00 0. -1.
<mgrwt>
<rscale>  0 0.17015618E+03</rscale>
<asrwt>0</asrwt>
<pdfrwt beam="1">  1        2 0.90098024E-01 0.26932124E+03</pdfrwt>
<pdfrwt beam="2">  1        2 0.98301110E-01 0.10750406E+03</pdfrwt>
<totfact> 0.38738879E+02</totfact>
</mgrwt>
</event>
<event>
 7    1  0.4251803E-004  0.6394999E+02  0.7546771E-02  0.1398822E+00
          2   -1    0    0  502    0  0.00000000000E+00  0.00000000000E+00  0.19233067433E+03  0.19233067433E+03  0.00000000000E+00 0. -1.
          2   -1    0    0  503    0 -0.00000000000E+00 -0.00000000000E+00 -0.61941576557E+03  0.61941576557E+03  0.00000000000E+00 0. -1.
         25    2    1    2    0    0  0.87517435525E+02  0.16035149998E+02 -0.44484542969E+01  0.15349413720E+03  0.12499693537E+03 0.  0.
          4    1    3    3  501    0  0.11797823246E+03  0.26850370681E+02 -0.14966596836E+01  0.12101098557E+03  0.12700000000E+01 0. -1.
         -4    1    3    3    0  501 -0.30460796932E+02 -0.10815220683E+02 -0.29517946133E+01  0.32483151626E+02  0.12700000000E+01 0. -1.
          2    1    1    2  502    0 -0.41425543353E+02 -0.47580679110E+02  0.10778916980E+03  0.12489396220E+03  0.00000000000E+00 0. -1.
          2    1    1    2  503    0 -0.46091892173E+02  0.31545529112E+02 -0.53042580674E+03  0.53335834051E+03  0.00000000000E+00 0. -1.
<mgrwt>
<rscale>  0 0.59764651E+02</rscale>
<asrwt>0</asrwt>
<pdfrwt beam="1">  1        2 0.29589334E-01 0.63949994E+02</pdfrwt>
<pdfrwt beam="2">  1        2 0.95294734E-01 0.55853227E+02</pdfrwt>
<totfact> 0.13477446E+03</totfact>
</mgrwt>
</event>
<event>
 7    1  0.4251803E-004  0.5256588E+02  0.7546771E-02  0.1513301E+00
         -1   -1    0    0    0  501 -0.00000000000E+00  0.00000000000E+00  0.67189334652E+02  0.67189334652E+02  0.00000000000E+00 0.  1.
          2   -1    0    0  503    0  0.00000000000E+00 -0.00000000000E+00 -0.25002753651E+03  0.25002753651E+03  0.00000000000E+00 0. -1.
         25    2    1    2    0    0  0.73654974126E+02 -0.14134803076E+02 -0.11789814709E+03  0.18748167935E+03  0.12499823652E+03 0.  0.
          4    1    3    3  502    0 -0.69333634400E+01  0.99487350574E+01 -0.10093499680E+03  0.10166875300E+03  0.12700000000E+01 0. -1.
         -4    1    3    3    0  502  0.80588337566E+02 -0.24083538133E+02 -0.16963150291E+02  0.85812926349E+02  0.12700000000E+01 0. -1.
          2    1    1    2  503    0 -0.48531967321E+02 -0.11491824398E+01 -0.82326028798E+02  0.95573257190E+02  0.00000000000E+00 0. -1.
         -1    1    1    2    0  501 -0.25123006805E+02  0.15283985516E+02  0.17385974030E+02  0.34161934623E+02  0.00000000000E+00 0.  1.
<mgrwt>
<rscale>  0 0.39316657E+02</rscale>
<asrwt>0</asrwt>
<pdfrwt beam="2">  1        2 0.38465775E-01 0.52565881E+02</pdfrwt>
<pdfrwt beam="1">  1       -1 0.10336821E-01 0.29406899E+02</pdfrwt>
<totfact> 0.73445285E+03</totfact>
</mgrwt>
</event>
<event>
 7    1  0.4251803E-004  0.3212665E+02  0.7546771E-02  0.1648562E+00
         -3   -1    0    0    0  501 -0.00000000000E+00  0.00000000000E+00  0.11940066389E+03  0.11940066389E+03  0.00000000000E+00 0.  1.
          2   -1    0    0  503    0  0.00000000000E+00 -0.00000000000E+00 -0.45734920894E+03  0.45734920894E+03  0.00000000000E+00 0.  1.
         25    2    1    2    0    0  0.43710737958E+02 -0.18281028845E+02  0.60609978248E+01  0.13381293431E+03  0.12499736423E+03 0.  0.
          4    1    3    3  502    0 -0.27689313147E+02 -0.43249076766E+02  0.23009800086E+02  0.56287161091E+02  0.12700000000E+01 0. -1.
         -4    1    3    3    0  502  0.71400051105E+02  0.24968047922E+02 -0.16948802261E+02  0.77525773217E+02  0.12700000000E+01 0. -1.
          2    1    1    2  503    0 -0.31996320538E+02  0.10194131053E+01 -0.39058934721E+03  0.39189902001E+03  0.00000000000E+00 0.  1.
         -3    1    1    2    0  501 -0.11714417420E+02  0.17261615739E+02  0.46579804335E+02  0.51037918505E+02  0.00000000000E+00 0.  1.
<mgrwt>
<rscale>  0 0.25888249E+02</rscale>
<asrwt>0</asrwt>
<pdfrwt beam="2">  1        2 0.70361417E-01 0.32126649E+02</pdfrwt>
<pdfrwt beam="1">  1       -3 0.18369333E-01 0.20861231E+02</pdfrwt>
<totfact> 0.86681106E+02</totfact>
</mgrwt>
</event>
<event>
 7    1  0.4251803E-004  0.9922358E+02  0.7546771E-02  0.1408185E+00
         -1   -1    0    0    0  501 -0.00000000000E+00  0.00000000000E+00  0.24937893290E+03  0.24937893290E+03  0.00000000000E+00 0.  1.
          2   -1    0    0  503    0  0.00000000000E+00 -0.00000000000E+00 -0.10680543998E+03  0.10680543998E+03  0.00000000000E+00 0. -1.
         25    2    1    2    0    0 -0.10150257154E+03 -0.47111061584E+02  0.14486885105E+03  0.22166250967E+03  0.12500024014E+03 0.  0.
          4    1    3    3  502    0 -0.91707242643E+01 -0.41764811959E+02  0.11774048190E+03  0.12527104885E+03  0.12700000000E+01 0.  1.
         -4    1    3    3    0  502 -0.92331847277E+02 -0.53462496243E+01  0.27128369154E+02  0.96391460823E+02  0.12700000000E+01 0.  1.
          2    1    1    2  503    0  0.96168412309E+02  0.14101090167E+02 -0.15775761924E+02  0.98468669810E+02  0.00000000000E+00 0. -1.
         -1    1    1    2    0  501  0.53341592325E+01  0.33009971416E+02  0.13480403787E+02  0.36053193394E+02  0.00000000000E+00 0.  1.
<mgrwt>
<rscale>  0 0.57600826E+02</rscale>
<asrwt>0</asrwt>
<pdfrwt beam="2">  1        2 0.16431606E-01 0.99223576E+02</pdfrwt>
<pdfrwt beam="1">  1       -1 0.38365990E-01 0.33438174E+02</pdfrwt>
<totfact> 0.24992659E+03</totfact>
</mgrwt>
</event>
<event>
 7    1  0.4251803E-004  0.7007292E+02  0.7546771E-02  0.1444847E+00
          1   -1    0    0  502    0  0.00000000000E+00  0.00000000000E+00  0.40715276064E+03  0.40715276064E+03  0.00000000000E+00 0. -1.
          1   -1    0    0  503    0 -0.00000000000E+00 -0.00000000000E+00 -0.15838024458E+04  0.15838024458E+04  0.00000000000E+00 0. -1.
         25    2    1    2    0    0 -0.16624146262E+02 -0.90693603011E+02  0.90052574559E+02  0.17957146655E+03  0.12503900810E+03 0.  0.
          4    1    3    3  501    0  0.17528058318E+01  0.13119752521E+02 -0.22004464420E+02  0.25710106746E+02  0.12700000000E+01 0. -1.
         -4    1    3    3    0  501 -0.18376952094E+02 -0.10381335553E+03  0.11205703898E+03  0.15386135980E+03  0.12700000000E+01 0. -1.
          1    1    1    2  502    0 -0.18906547385E+02  0.30410072997E+02  0.27036424722E+03  0.27272523947E+03  0.00000000000E+00 0. -1.
          1    1    1    2  503    0  0.35530693647E+02  0.60283530013E+02 -0.15370665069E+04  0.15386585004E+04  0.00000000000E+00 0. -1.
<mgrwt>
<rscale>  0 0.50091794E+02</rscale>
<asrwt>0</asrwt>
<pdfrwt beam="1">  1        1 0.62638885E-01 0.35808240E+02</pdfrwt>
<pdfrwt beam="2">  1        1 0.24366192E+00 0.70072916E+02</pdfrwt>
<totfact> 0.52691573E+01</totfact>
</mgrwt>
</event>
<event>
 7    1  0.4251803E-004  0.6770627E+02  0.7546771E-02  0.1387945E+00
          2   -1    0    0  502    0  0.00000000000E+00  0.00000000000E+00  0.65288616949E+03  0.65288616949E+03  0.00000000000E+00 0. -1.
          1   -1    0    0  503    0 -0.00000000000E+00 -0.00000000000E+00 -0.78336250346E+03  0.78336250346E+03  0.00000000000E+00 0. -1.
         25    2    1    2    0    0 -0.10772302652E+03 -0.53384131874E+02 -0.18679289364E+03  0.25489526114E+03  0.12500357218E+03 0.  0.
          4    1    3    3  501    0 -0.86389824947E+02  0.25965252111E+02 -0.11163782488E+03  0.14353401345E+03  0.12700000000E+01 0. -1.
         -4    1    3    3    0  501 -0.21333201576E+02 -0.79349383985E+02 -0.75155068760E+02  0.11136124770E+03  0.12700000000E+01 0. -1.
          2    1    1    2  502    0  0.45346192933E+02  0.35432981290E+02  0.61561609799E+03  0.61830005134E+03  0.00000000000E+00 0. -1.
          1    1    1    2  503    0  0.62376833590E+02  0.17951150584E+02 -0.55929953832E+03  0.56305336048E+03  0.00000000000E+00 0. -1.
<mgrwt>
<rscale>  0 0.62420840E+02</rscale>
<asrwt>0</asrwt>
<pdfrwt beam="1">  1        2 0.10044403E+00 0.57548009E+02</pdfrwt>
<pdfrwt beam="2">  1        1 0.12051731E+00 0.67706274E+02</pdfrwt>
<totfact> 0.16584519E+02</totfact>
</mgrwt>
</event>
<event>
 7    1  0.4251803E-004  0.1250782E+03  0.7546771E-02  0.1264412E+00
          2   -1    0    0  503    0  0.00000000000E+00  0.00000000000E+00  0.79182671109E+03  0.79182671109E+03  0.00000000000E+00 0. -1.
          2   -1    0    0  502    0 -0.00000000000E+00 -0.00000000000E+00 -0.40386132409E+04  0.40386132409E+04  0.00000000000E+00 0. -1.
         25    2    1    2    0    0 -0.10870624409E+03  0.97653165382E+00 -0.13958434190E+03  0.21662737500E+03  0.12500251990E+03 0.  0.
          4    1    3    3  501    0 -0.97010386792E+02 -0.18692386361E+02 -0.15859249335E+03  0.18685184586E+03  0.12700000000E+01 0. -1.
         -4    1    3    3    0  501 -0.11695857294E+02  0.19668918015E+02  0.19008151459E+02  0.29775529140E+02  0.12700000000E+01 0. -1.
          2    1    1    2  502    0  0.88715882684E+02  0.90022582351E+02 -0.38565873687E+04  0.38586578892E+04  0.00000000000E+00 0. -1.
          2    1    1    2  503    0  0.19990361402E+02 -0.90999114005E+02  0.74938518081E+03  0.75515468781E+03  0.00000000000E+00 0. -1.
<mgrwt>
<rscale>  0 0.10795093E+03</rscale>
<asrwt>0</asrwt>
<pdfrwt beam="1">  1        2 0.12181949E+00 0.93168950E+02</pdfrwt>
<pdfrwt beam="2">  1        2 0.62132512E+00 0.12507819E+03</pdfrwt>
<totfact> 0.28616647E+00</totfact>
</mgrwt>
</event>
<event>
 7    1  0.4251803E-004  0.4814074E+02  0.7546771E-02  0.1512007E+00
          1   -1    0    0  503    0  0.00000000000E+00  0.00000000000E+00  0.10830334517E+04  0.10830334517E+04  0.00000000000E+00 0. -1.
         -3   -1    0    0    0  501 -0.00000000000E+00 -0.00000000000E+00 -0.12886123480E+03  0.12886123480E+03  0.00000000000E+00 0.  1.
         25    2    1    2    0    0  0.65587880231E+02 -0.20017990728E+01  0.15921794709E+03  0.21279879632E+03  0.12500878292E+03 0.  0.
          4    1    3    3  502    0  0.42730637800E+02  0.26406360141E+01  0.17784045827E+03  0.18292545439E+03  0.12700000000E+01 0.  1.
         -4    1    3    3    0  502  0.22857242431E+02 -0.46424350868E+01 -0.18622511186E+02  0.29873341928E+02  0.12700000000E+01 0.  1.
          1    1    1    2  503    0 -0.22673120823E+02  0.23133528985E+02  0.89111010471E+03  0.89169863143E+03  0.00000000000E+00 0. -1.
         -3    1    1    2    0  501 -0.42914759408E+02 -0.21131729912E+02 -0.96155834942E+02  0.10739725871E+03  0.00000000000E+00 0.  1.
<mgrwt>
<rscale>  0 0.39488818E+02</rscale>
<asrwt>0</asrwt>
<pdfrwt beam="1">  1        1 0.16662052E+00 0.32391829E+02</pdfrwt>
<pdfrwt beam="2">  1       -3 0.19824806E-01 0.48140744E+02</pdfrwt>
<totfact> 0.17522760E+02</totfact>
</mgrwt>
</event>
<event>
 7    1  0.4251803E-004  0.8508802E+02  0.7546771E-02  0.1465939E+00
          1   -1    0    0  503    0 -0.00000000000E+00  0.00000000000E+00  0.13164014197E+04  0.13164014197E+04  0.00000000000E+00 0. -1.
          2   -1    0    0  502    0  0.00000000000E+00 -0.00000000000E+00 -0.16633821838E+04  0.16633821838E+04  0.00000000000E+00 0. -1.
         25    2    1    2    0    0  0.63533473481E+02 -0.14287467377E+02 -0.61847013629E+03  0.63432815518E+03  0.12500505988E+03 0.  0.
          4    1    3    3  501    0 -0.23044725593E+02  0.29046358580E+02 -0.95166623319E+02  0.10214229985E+03  0.12700000000E+01 0.  1.
         -4    1    3    3    0  501  0.86578199074E+02 -0.43333825957E+02 -0.52330351297E+03  0.53218585533E+03  0.12700000000E+01 0.  1.
          2    1    1    2  502    0 -0.88802691767E+02  0.14820747147E+02 -0.10349064473E+04  0.10388151554E+04  0.00000000000E+00 0. -1.
          1    1    1    2  503    0  0.25269218285E+02 -0.53327976975E+00  0.13063958194E+04  0.13066402928E+04  0.00000000000E+00 0. -1.
<mgrwt>
<rscale>  0 0.46374416E+02</rscale>
<asrwt>0</asrwt>
<pdfrwt beam="2">  1        2 0.25590495E+00 0.85088017E+02</pdfrwt>
<pdfrwt beam="1">  1        1 0.20252330E+00 0.25274845E+02</pdfrwt>
<totfact> 0.19941929E+01</totfact>
</mgrwt>
</event>
<event>
 7    1  0.4251803E-004  0.6579149E+02  0.7546771E-02  0.1380168E+00
          2   -1    0    0  503    0  0.00000000000E+00  0.00000000000E+00  0.94855705483E+03  0.94855705483E+03  0.00000000000E+00 0. -1.
         -2   -1    0    0    0  501 -0.00000000000E+00 -0.00000000000E+00 -0.43374165353E+02  0.43374165353E+02  0.00000000000E+00 0. -1.
         25    2    1    2    0    0  0.30897505754E+02  0.35209356614E+02  0.13269661337E+03  0.18822198135E+03  0.12499907363E+03 0.  0.
          4    1    3    3  502    0  0.38868888459E+02 -0.25616410919E+02  0.53635013418E+01  0.46876124467E+02  0.12700000000E+01 0.  1.
         -4    1    3    3    0  502 -0.79713827046E+01  0.60825767533E+02  0.12733311203E+03  0.14134585688E+03  0.12700000000E+01 0.  1.
          2    1    1    2  503    0 -0.42646754857E+02  0.50097650375E+02  0.65365170145E+03  0.65695438737E+03  0.00000000000E+00 0. -1.
         -2    1    1    2    0  501  0.11749249103E+02 -0.85307006989E+02  0.11883457465E+03  0.14675485147E+03  0.00000000000E+00 0. -1.
<mgrwt>
<rscale>  0 0.64419542E+02</rscale>
<asrwt>0</asrwt>
<pdfrwt beam="1">  1        2 0.14593184E+00 0.65791491E+02</pdfrwt>
<pdfrwt beam="2">  1       -2 0.66729492E-02 0.63076202E+02</pdfrwt>
<totfact> 0.33786556E+03</totfact>
</mgrwt>
</event>
<event>
 7    1  0.4251803E-004  0.5531613E+02  0.7546771E-02  0.1453245E+00
          2   -1    0    0  503    0  0.00000000000E+00  0.00000000000E+00  0.71065540269E+02  0.71065540269E+02  0.00000000000E+00 0. -1.
          2   -1    0    0  502    0 -0.00000000000E+00 -0.00000000000E+00 -0.23765331205E+04  0.23765331205E+04  0.00000000000E+00 0. -1.
         25    2    1    2    0    0 -0.17217012246E+02  0.46684277098E+02 -0.25511613036E+03  0.28841893642E+03  0.12500158270E+03 0.  0.
          4    1    3    3  501    0 -0.88146745230E+00  0.84875561302E+02 -0.21280762498E+03  0.22911424234E+03  0.12700000000E+01 0. -1.
         -4    1    3    3    0  501 -0.16335544794E+02 -0.38191284204E+02 -0.42308505378E+02  0.59304694082E+02  0.12700000000E+01 0. -1.
          2    1    1    2  502    0  0.42467647359E+02  0.37842434437E+01 -0.20898578389E+04  0.20902927088E+04  0.00000000000E+00 0. -1.
          2    1    1    2  503    0 -0.25250635113E+02 -0.50468520542E+02  0.39506389032E+02  0.68887015566E+02  0.00000000000E+00 0. -1.
<mgrwt>
<rscale>  0 0.48563916E+02</rscale>
<asrwt>0</asrwt>
<pdfrwt beam="1">  1        2 0.10933162E-01 0.55316128E+02</pdfrwt>
<pdfrwt beam="2">  1        2 0.36562042E+00 0.42635919E+02</pdfrwt>
<totfact> 0.48056217E+02</totfact>
</mgrwt>
</event>
<event>
 7    1  0.4251803E-004  0.3073251E+02  0.7546771E-02  0.1622581E+00
         -2   -1    0    0    0  501 -0.00000000000E+00  0.00000000000E+00  0.70999300575E+02  0.70999300575E+02  0.00000000000E+00 0.  1.
          2   -1    0    0  503    0  0.00000000000E+00 -0.00000000000E+00 -0.23790591027E+03  0.23790591027E+03  0.00000000000E+00 0. -1.
         25    2    1    2    0    0  0.63638198427E+01  0.76419434938E+01 -0.28573555955E+02  0.12861746982E+03  0.12500843147E+03 0.  0.
          4    1    3    3  502    0  0.61571577630E+01  0.47532035391E+02  0.30865751243E+02  0.57022035038E+02  0.12700000000E+01 0. -1.
         -4    1    3    3    0  502  0.20666207962E+00 -0.39890091897E+02 -0.59439307198E+02  0.71595434777E+02  0.12700000000E+01 0. -1.
          2    1    1    2  503    0  0.21905202650E+02  0.12702054461E+02 -0.14293147322E+03  0.14515710843E+03  0.00000000000E+00 0. -1.
         -2    1    1    2    0  501 -0.28269022493E+02 -0.20343997955E+02  0.45984194761E+01  0.35130632604E+02  0.00000000000E+00 0.  1.
<mgrwt>
<rscale>  0 0.27896133E+02</rscale>
<asrwt>0</asrwt>
<pdfrwt beam="2">  1        2 0.36600910E-01 0.25321534E+02</pdfrwt>
<pdfrwt beam="1">  1       -2 0.10922969E-01 0.30732508E+02</pdfrwt>
<totfact> 0.66769769E+03</totfact>
</mgrwt>
</event>
<event>
 7    1  0.4251803E-004  0.7207762E+02  0.7546771E-02  0.1501959E+00
          1   -1    0    0  502    0  0.00000000000E+00  0.00000000000E+00  0.17561821019E+04  0.17561821019E+04  0.00000000000E+00 0. -1.
          1   -1    0    0  503    0 -0.00000000000E+00 -0.00000000000E+00 -0.28266533452E+03  0.28266533452E+03  0.00000000000E+00 0. -1.
         25    2    1    2    0    0  0.30995629634E+01 -0.50163538169E+02  0.47332748505E+02  0.14280181253E+03  0.12500392285E+03 0.  0.
          4    1    3    3  501    0  0.24868307194E+02 -0.30196717248E+02  0.85787878549E+02  0.94294471954E+02  0.12700000000E+01 0.  1.
         -4    1    3    3    0  501 -0.21768744231E+02 -0.19966820921E+02 -0.38455130044E+02  0.48507340576E+02  0.12700000000E+01 0.  1.
          1    1    1    2  502    0 -0.15926791444E-01 -0.23165871988E+02  0.16552995639E+04  0.16554616590E+04  0.00000000000E+00 0. -1.
          1    1    1    2  503    0 -0.30836361719E+01  0.73329410157E+02 -0.22911554506E+03  0.24058396495E+03  0.00000000000E+00 0. -1.
<mgrwt>
<rscale>  0 0.40862469E+02</rscale>
<asrwt>0</asrwt>
<pdfrwt beam="1">  1        1 0.27018185E+00 0.23165877E+02</pdfrwt>
<pdfrwt beam="2">  1        1 0.43486976E-01 0.72077624E+02</pdfrwt>
<totfact> 0.73063878E+01</totfact>
</mgrwt>
</event>
<event>
 7    1  0.4251803E-004  0.7830609E+02  0.7546771E-02  0.1466752E+00
          1   -1    0    0  503    0  0.00000000000E+00  0.00000000000E+00  0.33723858987E+03  0.33723858987E+03  0.00000000000E+00 0. -1.
         -2   -1    0    0    0  501 -0.00000000000E+00 -0.00000000000E+00 -0.57342847936E+02  0.57342847936E+02  0.00000000000E+00 0.  1.
         25    2    1    2    0    0 -0.69339509180E+01 -0.75548054431E+02  0.23265188433E+03  0.27478023664E+03  0.12498676314E+03 0.  0.
          4    1    3    3  502    0  0.57490922831E+02 -0.21886731260E+02  0.11306822853E+03  0.12872557017E+03  0.12700000000E+01 0.  1.
         -4    1    3    3    0  502 -0.64424873749E+02 -0.53661323170E+02  0.11958365580E+03  0.14605466646E+03  0.12700000000E+01 0.  1.
          1    1    1    2  503    0 -0.27068901334E+02  0.35727660845E+01  0.25313561269E+02  0.37232599439E+02  0.00000000000E+00 0. -1.
         -2    1    1    2    0  501  0.34002852252E+02  0.71975288346E+02  0.21930296335E+02  0.82568601727E+02  0.00000000000E+00 0.  1.
<mgrwt>
<rscale>  0 0.46238980E+02</rscale>
<asrwt>0</asrwt>
<pdfrwt beam="1">  1        1 0.51882859E-01 0.27303664E+02</pdfrwt>
<pdfrwt beam="2">  1       -2 0.88219768E-02 0.78306095E+02</pdfrwt>
<totfact> 0.49676521E+03</totfact>
</mgrwt>
</event>
<event>
 7    1  0.4251803E-004  0.1173049E+03  0.7546771E-02  0.1318216E+00
         -2   -1    0    0    0  501 -0.00000000000E+00  0.00000000000E+00  0.34969616023E+03  0.34969616023E+03  0.00000000000E+00 0. -1.
          2   -1    0    0  503    0  0.00000000000E+00 -0.00000000000E+00 -0.19442545525E+03  0.19442545525E+03  0.00000000000E+00 0. -1.
         25    2    1    2    0    0 -0.95257694171E+02  0.26323066504E+02  0.15496784012E+03  0.22227685425E+03  0.12500014534E+03 0.  0.
          4    1    3    3  502    0 -0.64202576531E+02 -0.46484228971E+02  0.65672694610E+02  0.10294304296E+03  0.12700000000E+01 0.  1.
         -4    1    3    3    0  502 -0.31055117641E+02  0.72807295474E+02  0.89295145507E+02  0.11933381129E+03  0.12700000000E+01 0.  1.
          2    1    1    2  503    0  0.85655327373E+02 -0.85621947534E+02 -0.13041931492E+03  0.17798075939E+03  0.00000000000E+00 0. -1.
         -2    1    1    2    0  501  0.96023667985E+01  0.59298881031E+02  0.13072217979E+03  0.14386400185E+03  0.00000000000E+00 0. -1.
<mgrwt>
<rscale>  0 0.83944400E+02</rscale>
<asrwt>0</asrwt>
<pdfrwt beam="2">  1        2 0.29911609E-01 0.11730495E+03</pdfrwt>
<pdfrwt beam="1">  1       -2 0.53799409E-01 0.60071314E+02</pdfrwt>
<totfact> 0.57877303E+02</totfact>
</mgrwt>
</event>
<event>
 7    1  0.4251803E-004  0.1331641E+03  0.7546771E-02  0.1225627E+00
          3   -1    0    0  503    0 -0.00000000000E+00  0.00000000000E+00  0.12619194519E+04  0.12619194519E+04  0.00000000000E+00 0. -1.
          2   -1    0    0  502    0  0.00000000000E+00 -0.00000000000E+00 -0.62941554889E+02  0.62941554889E+02  0.00000000000E+00 0. -1.
         25    2    1    2    0    0 -0.81057024056E+02 -0.32161328165E+02  0.28663243228E+03  0.32463472594E+03  0.12499984750E+03 0.  0.
          4    1    3    3  501    0 -0.35808493488E+01  0.12644038769E+02  0.19877495723E+03  0.19921292810E+03  0.12700000000E+01 0. -1.
         -4    1    3    3    0  501 -0.77476174707E+02 -0.44805366934E+02  0.87857475048E+02  0.12542179785E+03  0.12700000000E+01 0. -1.
          2    1    1    2  502    0  0.71711796817E+02  0.16116752102E+03  0.16424619761E+03  0.24102772675E+03  0.00000000000E+00 0. -1.
          3    1    1    2  503    0  0.93452272387E+01 -0.12900619286E+03  0.74809926715E+03  0.75919855412E+03  0.00000000000E+00 0. -1.
<mgrwt>
<rscale>  0 0.13124028E+03</rscale>
<asrwt>0</asrwt>
<pdfrwt beam="2">  1        2 0.96833171E-02 0.13316413E+03</pdfrwt>
<pdfrwt beam="1">  1        3 0.19414144E+00 0.12934423E+03</pdfrwt>
<totfact> 0.69454763E+01</totfact>
</mgrwt>
</event>
<event>
 7    1  0.4251803E-004  0.2580101E+02  0.7546771E-02  0.1650634E+00
         -3   -1    0    0    0  501 -0.00000000000E+00  0.00000000000E+00  0.16968422854E+04  0.16968422854E+04  0.00000000000E+00 0.  1.
          1   -1    0    0  503    0  0.00000000000E+00 -0.00000000000E+00 -0.16354278447E+03  0.16354278447E+03  0.00000000000E+00 0. -1.
         25    2    1    2    0    0 -0.23982816191E+02 -0.78491634179E+01 -0.10599567064E+03  0.16582296040E+03  0.12500154863E+03 0.  0.
          4    1    3    3  502    0  0.17757012908E+02 -0.54820762795E+02 -0.23818196966E+02  0.62366232430E+02  0.12700000000E+01 0. -1.
         -4    1    3    3    0  502 -0.41739829099E+02  0.46971599377E+02 -0.82177473678E+02  0.10345672797E+03  0.12700000000E+01 0. -1.
          1    1    1    2  503    0  0.70154549376E+01  0.27286257245E+02 -0.20325930082E+02  0.34740464535E+02  0.00000000000E+00 0. -1.
         -3    1    1    2    0  501  0.16967361253E+02 -0.19437093827E+02  0.16596211017E+04  0.16598216450E+04  0.00000000000E+00 0.  1.
<mgrwt>
<rscale>  0 0.25737143E+02</rscale>
<asrwt>0</asrwt>
<pdfrwt beam="2">  1        1 0.25160430E-01 0.25673437E+02</pdfrwt>
<pdfrwt beam="1">  1       -3 0.26105265E+00 0.25801007E+02</pdfrwt>
<totfact> 0.77791733E+00</totfact>
</mgrwt>
</event>
<event>
 7    1  0.4251803E-004  0.8157425E+02  0.7546771E-02  0.1339964E+00
          3   -1    0    0  502    0  0.00000000000E+00  0.00000000000E+00  0.13637559060E+04  0.13637559060E+04  0.00000000000E+00 0. -1.
          3   -1    0    0  503    0 -0.00000000000E+00 -0.00000000000E+00 -0.68800034789E+03  0.68800034789E+03  0.00000000000E+00 0. -1.
         25    2    1    2    0    0 -0.39673044625E+02  0.35899449890E+02  0.35469360395E+03  0.37986182532E+03  0.12499893071E+03 0.  0.
          4    1    3    3  501    0 -0.31635173604E+02 -0.31046484794E+02  0.46020030854E+02  0.63907155835E+02  0.12700000000E+01 0. -1.
         -4    1    3    3    0  501 -0.80378710203E+01  0.66945934684E+02  0.30867357309E+03  0.31595466948E+03  0.12700000000E+01 0. -1.
          3    1    1    2  502    0 -0.38664191036E+02 -0.59932658402E+02  0.99270882070E+03  0.99526762527E+03  0.00000000000E+00 0. -1.
          3    1    1    2  503    0  0.78337235661E+02  0.24033208511E+02 -0.67164686655E+03  0.67662680330E+03  0.00000000000E+00 0. -1.
<mgrwt>
<rscale>  0 0.76276126E+02</rscale>
<asrwt>0</asrwt>
<pdfrwt beam="1">  1        3 0.20980860E+00 0.71322109E+02</pdfrwt>
<pdfrwt beam="2">  1        3 0.10584621E+00 0.81574248E+02</pdfrwt>
<totfact> 0.28332767E-01</totfact>
</mgrwt>
</event>
<event>
 7    1  0.4251803E-004  0.1049735E+03  0.7546771E-02  0.1334639E+00
          2   -1    0    0  503    0  0.00000000000E+00  0.00000000000E+00  0.93735459888E+03  0.93735459888E+03  0.00000000000E+00 0. -1.
         -1   -1    0    0    0  501 -0.00000000000E+00 -0.00000000000E+00 -0.75530478517E+02  0.75530478517E+02  0.00000000000E+00 0.  1.
         25    2    1    2    0    0  0.91738527897E+02 -0.34791372275E+02  0.80615673462E+02  0.17818790392E+03  0.12500258082E+03 0.  0.
          4    1    3    3  502    0  0.41927105883E+02 -0.35515975622E+02 -0.25773988165E+02  0.60705667759E+02  0.12700000000E+01 0.  1.
         -4    1    3    3    0  502  0.49811422013E+02  0.72460334631E+00  0.10638966163E+03  0.11748223616E+03  0.12700000000E+01 0.  1.
          2    1    1    2  503    0 -0.14341187428E+02 -0.56252387091E+02  0.66660400685E+03  0.66912697050E+03  0.00000000000E+00 0. -1.
         -1    1    1    2    0  501 -0.77397340468E+02  0.91043759367E+02  0.11460444005E+03  0.16557020297E+03  0.00000000000E+00 0.  1.
<mgrwt>
<rscale>  0 0.78063374E+02</rscale>
<asrwt>0</asrwt>
<pdfrwt beam="1">  1        2 0.14420839E+00 0.58051707E+02</pdfrwt>
<pdfrwt beam="2">  1       -1 0.11620074E-01 0.10497349E+03</pdfrwt>
<totfact> 0.16135186E+03</totfact>
</mgrwt>
</event>
<event>
 7    1  0.4251803E-004  0.7776739E+02  0.7546771E-02  0.1467265E+00
         -1   -1    0    0    0  501 -0.00000000000E+00  0.00000000000E+00  0.19109935212E+03  0.19109935212E+03  0.00000000000E+00 0.  1.
          2   -1    0    0  503    0  0.00000000000E+00 -0.00000000000E+00 -0.60274018517E+03  0.60274018517E+03  0.00000000000E+00 0. -1.
         25    2    1    2    0    0 -0.66320731762E+02 -0.42609777229E+02  0.83557369367E+02  0.16976655989E+03  0.12499927321E+03 0.  0.
          4    1    3    3  502    0 -0.30920093473E+00 -0.65988379017E+02  0.73868023219E+02  0.99058868986E+02  0.12700000000E+01 0. -1.
         -4    1    3    3    0  502 -0.66011530827E+02  0.23378601788E+02  0.96893461479E+01  0.70707690900E+02  0.12700000000E+01 0. -1.
          2    1    1    2  503    0  0.18535362226E+02 -0.20167786583E+02 -0.53500391416E+03  0.53570466438E+03  0.00000000000E+00 0. -1.
         -1    1    1    2    0  501  0.47785369536E+02  0.62777563812E+02  0.39805711742E+02  0.88368313027E+02  0.00000000000E+00 0.  1.
<mgrwt>
<rscale>  0 0.46153792E+02</rscale>
<asrwt>0</asrwt>
<pdfrwt beam="2">  1        2 0.92729258E-01 0.27391591E+02</pdfrwt>
<pdfrwt beam="1">  1       -1 0.29399901E-01 0.77767388E+02</pdfrwt>
<totfact> 0.62695447E+02</totfact>
</mgrwt>
</event>
<event>
 7    1  0.4251803E-004  0.1229594E+03  0.7546771E-02  0.1248965E+00
         -1   -1    0    0    0  501 -0.00000000000E+00  0.00000000000E+00  0.84160460946E+02  0.84160460946E+02  0.00000000000E+00 0.  1.
          2   -1    0    0  503    0  0.00000000000E+00 -0.00000000000E+00 -0.22025278368E+04  0.22025278368E+04  0.00000000000E+00 0. -1.
         25    2    1    2    0    0  0.19463662324E+02  0.93724099713E+02 -0.99310904143E+03  0.10055117053E+04  0.12500072096E+03 0.  0.
          4    1    3    3  502    0 -0.20757932215E+02  0.51865816971E+02 -0.14465302012E+03  0.15507115738E+03  0.12700000000E+01 0. -1.
         -4    1    3    3    0  502  0.40221594539E+02  0.41858282742E+02 -0.84845602131E+03  0.85044054789E+03  0.12700000000E+01 0. -1.
          2    1    1    2  503    0 -0.11027238767E+03 -0.53638414030E+01 -0.11472747490E+04  0.11525745616E+04  0.00000000000E+00 0. -1.
         -1    1    1    2    0  501  0.90808725350E+02 -0.88360258310E+02  0.22016414561E+02  0.12860203093E+03  0.00000000000E+00 0.  1.
<mgrwt>
<rscale>  0 0.11651206E+03</rscale>
<asrwt>0</asrwt>
<pdfrwt beam="2">  1        2 0.33885047E+00 0.11040276E+03</pdfrwt>
<pdfrwt beam="1">  1       -1 0.12947762E-01 0.12295942E+03</pdfrwt>
<totfact> 0.28745861E+02</totfact>
</mgrwt>
</event>
<event>
 7    1  0.4251803E-004  0.2714416E+03  0.7546771E-02  0.1169527E+00
          2   -1    0    0  503    0  0.00000000000E+00  0.00000000000E+00  0.15881719633E+04  0.15881719633E+04  0.00000000000E+00 0.  1.
          2   -1    0    0  502    0 -0.00000000000E+00 -0.00000000000E+00 -0.31781490072E+03  0.31781490072E+03  0.00000000000E+00 0. -1.
         25    2    1    2    0    0 -0.34303260557E+03 -0.69749697669E+01  0.14255271191E+03  0.39200304751E+03  0.12500037958E+03 0.  0.
          4    1    3    3  501    0 -0.23130229730E+03 -0.44733530179E+02  0.47057059742E+02  0.24024533550E+03  0.12700000000E+01 0. -1.
         -4    1    3    3    0  501 -0.11173030826E+03  0.37758560412E+02  0.95495652167E+02  0.15175771200E+03  0.12700000000E+01 0. -1.
          2    1    1    2  502    0  0.87569839071E+02  0.77631977771E+02 -0.16053477047E+03  0.19866205782E+03  0.00000000000E+00 0. -1.
          2    1    1    2  503    0  0.25546276650E+03 -0.70657008004E+02  0.12883391211E+04  0.13153217587E+04  0.00000000000E+00 0.  1.
<mgrwt>
<rscale>  0 0.17822979E+03</rscale>
<asrwt>0</asrwt>
<pdfrwt beam="1">  1        2 0.24433414E+00 0.27144158E+03</pdfrwt>
<pdfrwt beam="2">  1        2 0.48894601E-01 0.11702650E+03</pdfrwt>
<totfact> 0.19546024E+02</totfact>
</mgrwt>
</event>
<event>
 7    1  0.4251803E-004  0.5332758E+02  0.7546771E-02  0.1478868E+00
          1   -1    0    0  502    0  0.00000000000E+00  0.00000000000E+00  0.51017386544E+03  0.51017386544E+03  0.00000000000E+00 0. -1.
          3   -1    0    0  503    0 -0.00000000000E+00 -0.00000000000E+00 -0.10842844271E+03  0.10842844271E+03  0.00000000000E+00 0. -1.
         25    2    1    2    0    0 -0.41969414895E+02 -0.39814748448E+02  0.11677409897E+03  0.18056932479E+03  0.12498977912E+03 0.  0.
          4    1    3    3  501    0 -0.42737091545E+02  0.37275178519E+02  0.28890751551E+02  0.63656785596E+02  0.12700000000E+01 0. -1.
         -4    1    3    3    0  501  0.76767664958E+00 -0.77089926967E+02  0.87883347419E+02  0.11691253919E+03  0.12700000000E+01 0. -1.
          1    1    1    2  502    0 -0.11594215498E+02  0.34896806930E+02  0.35097019996E+03  0.35289133487E+03  0.00000000000E+00 0. -1.
          3    1    1    2  503    0  0.53563630393E+02  0.49179415177E+01 -0.65998876199E+02  0.85141648499E+02  0.00000000000E+00 0. -1.
<mgrwt>
<rscale>  0 0.44283017E+02</rscale>
<asrwt>0</asrwt>
<pdfrwt beam="1">  1        1 0.78488286E-01 0.36772448E+02</pdfrwt>
<pdfrwt beam="2">  1        3 0.16681299E-01 0.53327578E+02</pdfrwt>
<totfact> 0.67764472E+02</totfact>
</mgrwt>
</event>
<event>
 7    1  0.4251803E-004  0.9625525E+02  0.7546771E-02  0.1386169E+00
         -1   -1    0    0    0  501 -0.00000000000E+00  0.00000000000E+00  0.92848256017E+01  0.92848256017E+01  0.00000000000E+00 0.  1.
          2   -1    0    0  503    0  0.00000000000E+00 -0.00000000000E+00 -0.30765564186E+04  0.30765564186E+04  0.00000000000E+00 0. -1.
         25    2    1    2    0    0  0.12722443816E+02 -0.12173669523E+03 -0.21295864439E+04  0.21367603341E+04  0.12499847943E+03 0.  0.
          4    1    3    3  502    0  0.49955593621E+01 -0.33876441102E+02 -0.10921859391E+03  0.11446782531E+03  0.12700000000E+01 0. -1.
         -4    1    3    3    0  502  0.77268844543E+01 -0.87860254127E+02 -0.20203678500E+04  0.20222925088E+04  0.12700000000E+01 0. -1.
          2    1    1    2  503    0 -0.43577632037E+01  0.81533985354E+02 -0.82705376678E+03  0.83107443349E+03  0.00000000000E+00 0. -1.
         -1    1    1    2    0  501 -0.83646806127E+01  0.40202709875E+02 -0.11063138228E+03  0.11800647655E+03  0.00000000000E+00 0.  1.
<mgrwt>
<rscale>  0 0.62869665E+02</rscale>
<asrwt>0</asrwt>
<pdfrwt beam="2">  1        2 0.47331653E+00 0.96255252E+02</pdfrwt>
<pdfrwt beam="1">  1       -1 0.14284342E-02 0.41063679E+02</pdfrwt>
<totfact> 0.21429880E+03</totfact>
</mgrwt>
</event>
<event>
 7    1  0.4251803E-004  0.1139751E+03  0.7546771E-02  0.1295169E+00
          2   -1    0    0  502    0  0.00000000000E+00  0.00000000000E+00  0.54394308366E+03  0.54394308366E+03  0.00000000000E+00 0. -1.
          3   -1    0    0  503    0 -0.00000000000E+00 -0.00000000000E+00 -0.20986911513E+03  0.20986911513E+03  0.00000000000E+00 0. -1.
         25    2    1    2    0    0 -0.12450147819E+03 -0.21033734219E+02  0.85099082599E+02  0.19699149465E+03  0.12498303508E+03 0.  0.
          4    1    3    3  501    0 -0.95507963207E+02 -0.26617696010E+02  0.11709329636E+03  0.15343638985E+03  0.12700000000E+01 0. -1.
         -4    1    3    3    0  501 -0.28993514982E+02  0.55839617907E+01 -0.31994213761E+02  0.43555104803E+02  0.12700000000E+01 0. -1.
          2    1    1    2  502    0  0.80068639307E+02  0.83051737994E+02  0.38442549247E+03  0.40136210265E+03  0.00000000000E+00 0. -1.
          3    1    1    2  503    0  0.44432838883E+02 -0.62018003775E+02 -0.13545060654E+03  0.15545860149E+03  0.00000000000E+00 0. -1.
<mgrwt>
<rscale>  0 0.93249221E+02</rscale>
<asrwt>0</asrwt>
<pdfrwt beam="1">  1        2 0.83683551E-01 0.11397508E+03</pdfrwt>
<pdfrwt beam="2">  1        3 0.32287556E-01 0.76292267E+02</pdfrwt>
<totfact> 0.31126084E+02</totfact>
</mgrwt>
</event>
<event>
 7    1  0.4251803E-004  0.9529878E+02  0.7546771E-02  0.1324439E+00
          2   -1    0    0  502    0  0.00000000000E+00  0.00000000000E+00  0.25774795231E+04  0.25774795231E+04  0.00000000000E+00 0. -1.
          1   -1    0    0  503    0 -0.00000000000E+00 -0.00000000000E+00 -0.27398358519E+04  0.27398358519E+04  0.00000000000E+00 0. -1.
         25    2    1    2    0    0 -0.13653156973E+03  0.19093113958E+02 -0.84018489471E+03  0.86054690092E+03  0.12499957944E+03 0.  0.
          4    1    3    3  501    0 -0.48816565843E+02  0.68764930225E+02 -0.42614706088E+03  0.43441294079E+03  0.12700000000E+01 0.  1.
         -4    1    3    3    0  501 -0.87715003883E+02 -0.49671816267E+02 -0.41403783383E+03  0.42613396013E+03  0.12700000000E+01 0.  1.
          2    1    1    2  502    0  0.61219972580E+02  0.33844676609E+02  0.25657002749E+04  0.25666537062E+04  0.00000000000E+00 0. -1.
          1    1    1    2  503    0  0.75311597147E+02 -0.52937790567E+02 -0.18878717090E+04  0.18901147679E+04  0.00000000000E+00 0. -1.
<mgrwt>
<rscale>  0 0.81647931E+02</rscale>
<asrwt>0</asrwt>
<pdfrwt beam="1">  1        2 0.39653531E+00 0.69952464E+02</pdfrwt>
<pdfrwt beam="2">  1        1 0.42151321E+00 0.95298783E+02</pdfrwt>
<totfact> 0.77124041E-01</totfact>
</mgrwt>
</event>
<event>
 7    1  0.4251803E-004  0.3819551E+02  0.7546771E-02  0.1620498E+00
         -1   -1    0    0    0  501 -0.00000000000E+00  0.00000000000E+00  0.21927671642E+03  0.21927671642E+03  0.00000000000E+00 0.  1.
          1   -1    0    0  503    0  0.00000000000E+00 -0.00000000000E+00 -0.12435413595E+04  0.12435413595E+04  0.00000000000E+00 0. -1.
         25    2    1    2    0    0  0.33364402527E+02 -0.44321737127E+02 -0.40095560103E+03  0.42363745428E+03  0.12500279572E+03 0.  0.
          4    1    3    3  502    0  0.75755408873E+02 -0.36754122832E+02 -0.18273193095E+03  0.20120218440E+03  0.12700000000E+01 0. -1.
         -4    1    3    3    0  502 -0.42391006347E+02 -0.75676142954E+01 -0.21822367008E+03  0.22243526988E+03  0.12700000000E+01 0. -1.
          1    1    1    2  503    0 -0.28757523832E+02  0.24219047814E+02 -0.83030700299E+03  0.83115779289E+03  0.00000000000E+00 0. -1.
         -1    1    1    2    0  501 -0.46068786946E+01  0.20102689313E+02  0.20699796094E+03  0.20802282875E+03  0.00000000000E+00 0.  1.
<mgrwt>
<rscale>  0 0.28066650E+02</rscale>
<asrwt>0</asrwt>
<pdfrwt beam="2">  1        1 0.19131406E+00 0.38195509E+02</pdfrwt>
<pdfrwt beam="1">  1       -1 0.33734879E-01 0.20623808E+02</pdfrwt>
<totfact> 0.10101473E+02</totfact>
</mgrwt>
</event>
<event>
 7    1  0.4251803E-004  0.2153853E+03  0.7546771E-02  0.1217941E+00
          2   -1    0    0  503    0  0.00000000000E+00  0.00000000000E+00  0.33149371790E+04  0.33149371790E+04  0.00000000000E+00 0. -1.
         -2   -1    0    0    0  501 -0.00000000000E+00 -0.00000000000E+00 -0.30895739870E+03  0.30895739870E+03  0.00000000000E+00 0.  1.
         25    2    1    2    0    0  0.13663025891E+03  0.12123382269E+02  0.13549982794E+03  0.22978347242E+03  0.12500174711E+03 0.  0.
          4    1    3    3  502    0  0.78409988047E+01 -0.20764678413E+02 -0.16627425613E+02  0.27762156155E+02  0.12700000000E+01 0. -1.
         -4    1    3    3    0  502  0.12878926010E+03  0.32888060681E+02  0.15212725355E+03  0.20202131627E+03  0.12700000000E+01 0. -1.
          2    1    1    2  503    0 -0.22196218747E+03  0.30343005660E+01  0.31210714763E+04  0.31289556692E+04  0.00000000000E+00 0. -1.
         -2    1    1    2    0  501  0.85331928566E+02 -0.15157682835E+02 -0.25059152397E+03  0.26515543605E+03  0.00000000000E+00 0.  1.
<mgrwt>
<rscale>  0 0.13662705E+03</rscale>
<asrwt>0</asrwt>
<pdfrwt beam="1">  1        2 0.50999031E+00 0.21538528E+03</pdfrwt>
<pdfrwt beam="2">  1       -2 0.47531910E-01 0.86667718E+02</pdfrwt>
<totfact> 0.59847901E+00</totfact>
</mgrwt>
</event>
<event>
 7    1  0.4251803E-004  0.1551919E+03  0.7546771E-02  0.1310785E+00
          1   -1    0    0  503    0  0.00000000000E+00  0.00000000000E+00  0.58015968208E+03  0.58015968208E+03  0.00000000000E+00 0. -1.
          1   -1    0    0  502    0 -0.00000000000E+00 -0.00000000000E+00 -0.17637893413E+04  0.17637893413E+04  0.00000000000E+00 0. -1.
         25    2    1    2    0    0  0.33130065460E+02  0.18020253669E+03 -0.37113987588E+03  0.43236578016E+03  0.12499921966E+03 0.  0.
          4    1    3    3  501    0 -0.23062250567E+02  0.10728971772E+03 -0.28843889267E+03  0.30861231122E+03  0.12700000000E+01 0.  1.
         -4    1    3    3    0  501  0.56192316027E+02  0.72912818971E+02 -0.82700983210E+02  0.12375346894E+03  0.12700000000E+01 0.  1.
          1    1    1    2  502    0  0.29220356866E+02 -0.38773139460E+02 -0.13507237609E+04  0.13515960432E+04  0.00000000000E+00 0. -1.
          1    1    1    2  503    0 -0.62350422326E+02 -0.14142939723E+03  0.53823397759E+03  0.55998720003E+03  0.00000000000E+00 0. -1.
<mgrwt>
<rscale>  0 0.86802651E+02</rscale>
<asrwt>0</asrwt>
<pdfrwt beam="1">  1        1 0.89255334E-01 0.15519191E+03</pdfrwt>
<pdfrwt beam="2">  1        1 0.27135221E+00 0.48550856E+02</pdfrwt>
<totfact> 0.26283087E+01</totfact>
</mgrwt>
</event>
<event>
 7    1  0.4251803E-004  0.7383665E+02  0.7546771E-02  0.1383452E+00
          2   -1    0    0  502    0  0.00000000000E+00  0.00000000000E+00  0.12797908273E+04  0.12797908273E+04  0.00000000000E+00 0.  1.
          1   -1    0    0  503    0 -0.00000000000E+00 -0.00000000000E+00 -0.72847016822E+03  0.72847016822E+03  0.00000000000E+00 0. -1.
         25    2    1    2    0    0 -0.64281851148E+02 -0.97831293078E+02 -0.15861328798E+03  0.23342439225E+03  0.12500261389E+03 0.  0.
          4    1    3    3  501    0 -0.36164395539E+01 -0.85784569189E+02 -0.30445304843E+02  0.91107631036E+02  0.12700000000E+01 0.  1.
         -4    1    3    3    0  501 -0.60665411594E+02 -0.12046723889E+02 -0.12816798314E+03  0.14231676121E+03  0.12700000000E+01 0.  1.
          2    1    1    2  502    0  0.16120117949E+02  0.71851266882E+02  0.12398840026E+04  0.12420687592E+04  0.00000000000E+00 0.  1.
          1    1    1    2  503    0  0.48161733199E+02  0.25980026196E+02 -0.52995005553E+03  0.53276784405E+03  0.00000000000E+00 0. -1.
<mgrwt>
<rscale>  0 0.63564931E+02</rscale>
<asrwt>0</asrwt>
<pdfrwt beam="1">  1        2 0.19689090E+00 0.73836645E+02</pdfrwt>
<pdfrwt beam="2">  1        1 0.11207233E+00 0.54722156E+02</pdfrwt>
<totfact> 0.76961061E+01</totfact>
</mgrwt>
</event>
<event>
 7    1  0.4251803E-004  0.1358212E+03  0.7546771E-02  0.1386258E+00
          2   -1    0    0  503    0  0.00000000000E+00  0.00000000000E+00  0.15982252044E+04  0.15982252044E+04  0.00000000000E+00 0. -1.
          2   -1    0    0  502    0 -0.00000000000E+00 -0.00000000000E+00 -0.53555098947E+03  0.53555098947E+03  0.00000000000E+00 0. -1.
         25    2    1    2    0    0  0.48725665212E+02 -0.13316310344E+03 -0.35707308741E+03  0.40402049030E+03  0.12499905703E+03 0.  0.
          4    1    3    3  501    0  0.75871699679E+02 -0.36729151508E+02 -0.12007087314E+03  0.14671118859E+03  0.12700000000E+01 0.  1.
         -4    1    3    3    0  501 -0.27146034467E+02 -0.96433951933E+02 -0.23700221428E+03  0.25730930171E+03  0.12700000000E+01 0.  1.
          2    1    1    2  502    0  0.22970122150E+02  0.17834001894E+02 -0.15068375386E+03  0.15346423626E+03  0.00000000000E+00 0. -1.
          2    1    1    2  503    0 -0.71695787362E+02  0.11532910155E+03  0.15704310562E+04  0.15762914673E+04  0.00000000000E+00 0. -1.
<mgrwt>
<rscale>  0 0.62847076E+02</rscale>
<asrwt>0</asrwt>
<pdfrwt beam="1">  1        2 0.24588080E+00 0.13582121E+03</pdfrwt>
<pdfrwt beam="2">  1        2 0.82392460E-01 0.29080546E+02</pdfrwt>
<totfact> 0.11935264E+02</totfact>
</mgrwt>
</event>
<event>
 7    1  0.4251803E-004  0.1370678E+03  0.7546771E-02  0.1348094E+00
         -3   -1    0    0    0  501 -0.00000000000E+00  0.00000000000E+00  0.26237944732E+02  0.26237944732E+02  0.00000000000E+00 0.  1.
          2   -1    0    0  503    0  0.00000000000E+00 -0.00000000000E+00 -0.22871142267E+04  0.22871142267E+04  0.00000000000E+00 0. -1.
         25    2    1    2    0    0  0.97158395375E+02 -0.12999329304E+03 -0.65342599893E+03  0.68478373887E+03  0.12500089165E+03 0.  0.
          4    1    3    3  502    0  0.89146899622E+02 -0.13555389957E+03 -0.40679025307E+03  0.43795199770E+03  0.12700000000E+01 0. -1.
         -4    1    3    3    0  502  0.80114957530E+01  0.55606065327E+01 -0.24663574586E+03  0.24683174117E+03  0.12700000000E+01 0. -1.
          2    1    1    2  503    0 -0.19346025876E+02  0.34526424253E+02 -0.12475568120E+04  0.12481844182E+04  0.00000000000E+00 0. -1.
         -3    1    1    2    0  501 -0.77812369499E+02  0.95466868782E+02 -0.35989347103E+03  0.38038401434E+03  0.00000000000E+00 0.  1.
<mgrwt>
<rscale>  0 0.73652838E+02</rscale>
<asrwt>0</asrwt>
<pdfrwt beam="2">  1        2 0.35186384E+00 0.39577048E+02</pdfrwt>
<pdfrwt beam="1">  1       -3 0.40366055E-02 0.13706784E+03</pdfrwt>
<totfact> 0.12538165E+03</totfact>
</mgrwt>
</event>
<event>
 7    1  0.4251803E-004  0.9531300E+02  0.7546771E-02  0.1391030E+00
         -2   -1    0    0    0  501 -0.00000000000E+00  0.00000000000E+00  0.10219091596E+04  0.10219091596E+04  0.00000000000E+00 0. -1.
          2   -1    0    0  503    0  0.00000000000E+00 -0.00000000000E+00 -0.36798167810E+03  0.36798167810E+03  0.00000000000E+00 0. -1.
         25    2    1    2    0    0 -0.45945897348E+02  0.85311062154E+02 -0.14688644366E+03  0.21585137275E+03  0.12500873961E+03 0.  0.
          4    1    3    3  502    0 -0.37426431279E+00 -0.10847130327E+02 -0.98232762605E+02  0.98838701221E+02  0.12700000000E+01 0.  1.
         -4    1    3    3    0  502 -0.45571633035E+02  0.96158192481E+02 -0.48653681051E+02  0.11701267153E+03  0.12700000000E+01 0.  1.
          2    1    1    2  503    0 -0.29460085633E+02 -0.26876287693E+02 -0.18214650179E+03  0.18646066502E+03  0.00000000000E+00 0. -1.
         -2    1    1    2    0  501  0.75405982980E+02 -0.58434774461E+02  0.98296042699E+03  0.98757879998E+03  0.00000000000E+00 0. -1.
<mgrwt>
<rscale>  0 0.61651148E+02</rscale>
<asrwt>0</asrwt>
<pdfrwt beam="2">  1        2 0.56612566E-01 0.39877707E+02</pdfrwt>
<pdfrwt beam="1">  1       -2 0.15721679E+00 0.95313005E+02</pdfrwt>
<totfact> 0.26218038E+01</totfact>
</mgrwt>
</event>
<event>
 7    1  0.4251803E-004  0.3545527E+03  0.7546771E-02  0.1214594E+00
          2   -1    0    0  502    0  0.00000000000E+00  0.00000000000E+00  0.26394090766E+04  0.26394090766E+04  0.00000000000E+00 0. -1.
          1   -1    0    0  503    0 -0.00000000000E+00 -0.00000000000E+00 -0.13788311542E+04  0.13788311542E+04  0.00000000000E+00 0. -1.
         25    2    1    2    0    0  0.34495242133E+03 -0.85002644951E+02 -0.11961209243E+02  0.37680984132E+03  0.12499985344E+03 0.  0.
          4    1    3    3  501    0  0.23798095182E+02  0.28613330117E+01  0.33023861490E+02  0.40825542110E+02  0.12700000000E+01 0. -1.
         -4    1    3    3    0  501  0.32115432615E+03 -0.87863977962E+02 -0.44985070733E+02  0.33598429921E+03  0.12700000000E+01 0. -1.
          2    1    1    2  502    0 -0.32739348247E+03  0.13664356746E+03  0.24435404939E+04  0.24691593919E+04  0.00000000000E+00 0. -1.
          1    1    1    2  503    0 -0.17558938858E+02 -0.51640922508E+02 -0.11710013624E+04  0.11722709976E+04  0.00000000000E+00 0. -1.
<mgrwt>
<rscale>  0 0.13906436E+03</rscale>
<asrwt>0</asrwt>
<pdfrwt beam="1">  1        2 0.40606293E+00 0.35455272E+03</pdfrwt>
<pdfrwt beam="2">  1        1 0.21212787E+00 0.54544488E+02</pdfrwt>
<totfact> 0.44497075E+00</totfact>
</mgrwt>
</event>
<event>
 7    1  0.4251803E-004  0.1314259E+03  0.7546771E-02  0.1305015E+00
          1   -1    0    0  502    0  0.00000000000E+00  0.00000000000E+00  0.47116356295E+03  0.47116356295E+03  0.00000000000E+00 0. -1.
          1   -1    0    0  503    0 -0.00000000000E+00 -0.00000000000E+00 -0.88549188728E+02  0.88549188728E+02  0.00000000000E+00 0. -1.
         25    2    1    2    0    0  0.62915287141E+02  0.57846177804E+02  0.27031518340E+03  0.30983583220E+03  0.12499372342E+03 0.  0.
          4    1    3    3  501    0 -0.56651020870E+01  0.62991959244E+02  0.20662843027E+03  0.21609488982E+03  0.12700000000E+01 0.  1.
         -4    1    3    3    0  501  0.68580389228E+02 -0.51457814407E+01  0.63686753134E+02  0.93740942379E+02  0.12700000000E+01 0.  1.
          1    1    1    2  502    0  0.41039170493E+02  0.44347092471E+02  0.80536802739E+02  0.10068294156E+03  0.00000000000E+00 0. -1.
          1    1    1    2  503    0 -0.10395445763E+03 -0.10219327027E+03  0.31762388082E+02  0.14919397792E+03  0.00000000000E+00 0. -1.
<mgrwt>
<rscale>  0 0.89112736E+02</rscale>
<asrwt>0</asrwt>
<pdfrwt beam="1">  1        1 0.72486701E-01 0.60422497E+02</pdfrwt>
<pdfrwt beam="2">  1        1 0.13622952E-01 0.13142588E+03</pdfrwt>
<totfact> 0.24593950E+03</totfact>
</mgrwt>
</event>
<event>
 7    1  0.4251803E-004  0.6439738E+02  0.7546771E-02  0.1505998E+00
          2   -1    0    0  502    0  0.00000000000E+00  0.00000000000E+00  0.20767733044E+04  0.20767733044E+04  0.00000000000E+00 0. -1.
          1   -1    0    0  503    0 -0.00000000000E+00 -0.00000000000E+00 -0.29085184630E+03  0.29085184630E+03  0.00000000000E+00 0. -1.
         25    2    1    2    0    0  0.87189898767E+02  0.55052756872E+00  0.18542811310E+03  0.24002707709E+03  0.12500812405E+03 0.  0.
          4    1    3    3  501    0  0.11071965323E+02  0.55787247063E+02  0.54218873179E+02  0.78588195422E+02  0.12700000000E+01 0.  1.
         -4    1    3    3    0  501  0.76117933445E+02 -0.55236719494E+02  0.13120923992E+03  0.16143888166E+03  0.12700000000E+01 0.  1.
          2    1    1    2  502    0 -0.63453931314E+02  0.79813941321E+01  0.18628922445E+04  0.18639897045E+04  0.00000000000E+00 0. -1.
          1    1    1    2  503    0 -0.23735967453E+02 -0.85319217008E+01 -0.26239889945E+03  0.26360836912E+03  0.00000000000E+00 0. -1.
<mgrwt>
<rscale>  0 0.40302388E+02</rscale>
<asrwt>0</asrwt>
<pdfrwt beam="1">  1        2 0.31950358E+00 0.64397379E+02</pdfrwt>
<pdfrwt beam="2">  1        1 0.44746439E-01 0.25222804E+02</pdfrwt>
<totfact> 0.98048847E+01</totfact>
</mgrwt>
</event>
<event>
 7    1  0.4251803E-004  0.1915158E+03  0.7546771E-02  0.1205448E+00
          2   -1    0    0  502    0  0.00000000000E+00  0.00000000000E+00  0.14469544814E+04  0.14469544814E+04  0.00000000000E+00 0. -1.
          1   -1    0    0  503    0 -0.00000000000E+00 -0.00000000000E+00 -0.14827731836E+03  0.14827731836E+03  0.00000000000E+00 0. -1.
         25    2    1    2    0    0 -0.28845619296E+01  0.27441856715E+03  0.54864412855E+03  0.62605494069E+03  0.12498215186E+03 0.  0.
          4    1    3    3  501    0 -0.61168980499E+02  0.95880525462E+02  0.20729281555E+03  0.23644585768E+03  0.12700000000E+01 0.  1.
         -4    1    3    3    0  501  0.58284418570E+02  0.17853804169E+03  0.34135131300E+03  0.38960908301E+03  0.12700000000E+01 0.  1.
          2    1    1    2  502    0  0.50626230452E+02 -0.99158804531E+02  0.77753076969E+03  0.78546138131E+03  0.00000000000E+00 0. -1.
          1    1    1    2  503    0 -0.47741668523E+02 -0.17525976262E+03 -0.27497735241E+02  0.18371547771E+03  0.00000000000E+00 0. -1.
<mgrwt>
<rscale>  0 0.14602194E+03</rscale>
<asrwt>0</asrwt>
<pdfrwt beam="1">  1        2 0.22260837E+00 0.11133501E+03</pdfrwt>
<pdfrwt beam="2">  1        1 0.22811896E-01 0.19151576E+03</pdfrwt>
<totfact> 0.45303848E+02</totfact>
</mgrwt>
</event>
<event>
 7    1  0.4251803E-004  0.6925026E+02  0.7546771E-02  0.1440325E+00
          2   -1    0    0  502    0  0.00000000000E+00  0.00000000000E+00  0.11541793003E+04  0.11541793003E+04  0.00000000000E+00 0. -1.
          3   -1    0    0  503    0 -0.00000000000E+00 -0.00000000000E+00 -0.33745165318E+02  0.33745165318E+02  0.00000000000E+00 0. -1.
         25    2    1    2    0    0  0.35954331841E+02  0.67145981193E+02  0.42027917546E+03  0.44504097876E+03  0.12500236271E+03 0.  0.
          4    1    3    3  501    0  0.70291908875E+02  0.40324364802E+02  0.36873207333E+03  0.37753405363E+03  0.12700000000E+01 0.  1.
         -4    1    3    3    0  501 -0.34337577034E+02  0.26821616391E+02  0.51547102133E+02  0.67506925131E+02  0.12700000000E+01 0.  1.
          2    1    1    2  502    0 -0.58616058683E+02 -0.37300227116E+02  0.70193678372E+03  0.70536685322E+03  0.00000000000E+00 0. -1.
          3    1    1    2  503    0  0.22661726842E+02 -0.29845754077E+02 -0.17818242267E+01  0.37516633611E+02  0.00000000000E+00 0. -1.
<mgrwt>
<rscale>  0 0.50942172E+02</rscale>
<asrwt>0</asrwt>
<pdfrwt beam="1">  1        2 0.17756602E+00 0.69250263E+02</pdfrwt>
<pdfrwt beam="2">  1        3 0.51915648E-02 0.37474297E+02</pdfrwt>
<totfact> 0.23668009E+03</totfact>
</mgrwt>
</event>
<event>
 7    1  0.4251803E-004  0.6023418E+02  0.7546771E-02  0.1515660E+00
          2   -1    0    0  502    0  0.00000000000E+00  0.00000000000E+00  0.13208880018E+03  0.13208880018E+03  0.00000000000E+00 0. -1.
          1   -1    0    0  503    0 -0.00000000000E+00 -0.00000000000E+00 -0.70655583762E+03  0.70655583762E+03  0.00000000000E+00 0. -1.
         25    2    1    2    0    0  0.52096690390E+02 -0.52072932905E+02  0.12869618100E+02  0.14565677147E+03  0.12499845005E+03 0.  0.
          4    1    3    3  501    0  0.68198349968E+02  0.97263838882E+01  0.35980607728E+02  0.77729238478E+02  0.12700000000E+01 0. -1.
         -4    1    3    3    0  501 -0.16101659578E+02 -0.61799316794E+02 -0.23110989628E+02  0.67927532996E+02  0.12700000000E+01 0. -1.
          2    1    1    2  502    0  0.16196672661E+01  0.25206577501E+02  0.48307537710E+02  0.54512503804E+02  0.00000000000E+00 0. -1.
          1    1    1    2  503    0 -0.53716357656E+02  0.26866355404E+02 -0.63564419325E+03  0.63847536252E+03  0.00000000000E+00 0. -1.
<mgrwt>
<rscale>  0 0.39005494E+02</rscale>
<asrwt>0</asrwt>
<pdfrwt beam="1">  1        2 0.20321354E-01 0.25258560E+02</pdfrwt>
<pdfrwt beam="2">  1        1 0.10870090E+00 0.60234176E+02</pdfrwt>
<totfact> 0.99724285E+02</totfact>
</mgrwt>
</event>
<event>
 7    1  0.4251803E-004  0.3977561E+02  0.7546771E-02  0.1561076E+00
          2   -1    0    0  503    0  0.00000000000E+00  0.00000000000E+00  0.40348631806E+03  0.40348631806E+03  0.00000000000E+00 0. -1.
         -1   -1    0    0    0  501 -0.00000000000E+00 -0.00000000000E+00 -0.29804017767E+02  0.29804017767E+02  0.00000000000E+00 0.  1.
         25    2    1    2    0    0 -0.31052905800E-01 -0.74859031619E+00  0.28216118962E+03  0.30860940129E+03  0.12499705709E+03 0.  0.
          4    1    3    3  502    0 -0.56433362790E+02  0.22011951212E+02  0.17745837241E+03  0.18751623201E+03  0.12700000000E+01 0. -1.
         -4    1    3    3    0  502  0.56402309884E+02 -0.22760541528E+02  0.10470281722E+03  0.12109316927E+03  0.12700000000E+01 0. -1.
          2    1    1    2  503    0 -0.21710961476E+02  0.34056002880E+02  0.66143018005E+02  0.77498877483E+02  0.00000000000E+00 0. -1.
         -1    1    1    2    0  501  0.21742014381E+02 -0.33307412564E+02  0.25378092668E+02  0.47182057061E+02  0.00000000000E+00 0.  1.
<mgrwt>
<rscale>  0 0.33634024E+02</rscale>
<asrwt>0</asrwt>
<pdfrwt beam="1">  1        2 0.62074814E-01 0.28440736E+02</pdfrwt>
<pdfrwt beam="2">  1       -1 0.45852338E-02 0.39775607E+02</pdfrwt>
<totfact> 0.14957658E+04</totfact>
</mgrwt>
</event>
<event>
 7    1  0.4251803E-004  0.3810518E+02  0.7546771E-02  0.1531220E+00
         -1   -1    0    0    0  501 -0.00000000000E+00  0.00000000000E+00  0.40241645883E+01  0.40241645883E+01  0.00000000000E+00 0.  1.
          2   -1    0    0  503    0  0.00000000000E+00 -0.00000000000E+00 -0.29667711004E+04  0.29667711004E+04  0.00000000000E+00 0. -1.
         25    2    1    2    0    0 -0.24670247756E+02 -0.16471572132E+02 -0.17785426824E+04  0.17831767799E+04  0.12500168558E+03 0.  0.
          4    1    3    3  502    0  0.32246665241E+02 -0.50831962900E+02 -0.69922271403E+03  0.70181033947E+03  0.12700000000E+01 0.  1.
         -4    1    3    3    0  502 -0.56916912997E+02  0.34360390768E+02 -0.10793199684E+04  0.10813664404E+04  0.12700000000E+01 0.  1.
          2    1    1    2  503    0  0.39053222385E+02 -0.16529524688E+02 -0.91951844814E+03  0.92049582065E+03  0.00000000000E+00 0. -1.
         -1    1    1    2    0  501 -0.14382974629E+02  0.33001096820E+02 -0.26468580520E+03  0.26712266438E+03  0.00000000000E+00 0.  1.
<mgrwt>
<rscale>  0 0.37037225E+02</rscale>
<asrwt>0</asrwt>
<pdfrwt beam="2">  1        2 0.45642587E+00 0.38105182E+02</pdfrwt>
<pdfrwt beam="1">  1       -1 0.61910286E-03 0.35999199E+02</pdfrwt>
<totfact> 0.89005654E+03</totfact>
</mgrwt>
</event>
<event>
 7    1  0.4251803E-004  0.7378872E+02  0.7546771E-02  0.1495854E+00
          2   -1    0    0  502    0  0.00000000000E+00  0.00000000000E+00  0.59001985919E+03  0.59001985919E+03  0.00000000000E+00 0. -1.
          1   -1    0    0  503    0 -0.00000000000E+00 -0.00000000000E+00 -0.34142913443E+03  0.34142913443E+03  0.00000000000E+00 0. -1.
         25    2    1    2    0    0  0.42197744396E+02  0.49034943703E+02  0.23366553086E+03  0.27278144633E+03  0.12500024727E+03 0.  0.
          4    1    3    3  501    0  0.60485971331E+02  0.82654528725E+02  0.17236876633E+03  0.20050667907E+03  0.12700000000E+01 0.  1.
         -4    1    3    3    0  501 -0.18288226935E+02 -0.33619585021E+02  0.61296764525E+02  0.72274767261E+02  0.12700000000E+01 0.  1.
          2    1    1    2  502    0 -0.13668452690E+02  0.19238386223E+02  0.33211951784E+03  0.33295692849E+03  0.00000000000E+00 0. -1.
          1    1    1    2  503    0 -0.28529291706E+02 -0.68273329926E+02 -0.31719432393E+03  0.32571061880E+03  0.00000000000E+00 0. -1.
<mgrwt>
<rscale>  0 0.41729914E+02</rscale>
<asrwt>0</asrwt>
<pdfrwt beam="1">  1        2 0.90772286E-01 0.23599621E+02</pdfrwt>
<pdfrwt beam="2">  1        1 0.52527559E-01 0.73788717E+02</pdfrwt>
<totfact> 0.55318130E+02</totfact>
</mgrwt>
</event>
<event>
 7    1  0.4251803E-004  0.5763080E+02  0.7546771E-02  0.1434023E+00
         -1   -1    0    0    0  501 -0.00000000000E+00  0.00000000000E+00  0.18555155832E+03  0.18555155832E+03  0.00000000000E+00 0.  1.
          2   -1    0    0  503    0  0.00000000000E+00 -0.00000000000E+00 -0.90275126950E+02  0.90275126950E+02  0.00000000000E+00 0. -1.
         25    2    1    2    0    0  0.33159247408E+02  0.63786737904E+02  0.27740572753E+02  0.14684252700E+03  0.12499961895E+03 0.  0.
          4    1    3    3  502    0 -0.23803412376E+02  0.49646165328E+02 -0.31497361363E+02  0.63443209608E+02  0.12700000000E+01 0.  1.
         -4    1    3    3    0  502  0.56962659783E+02  0.14140572576E+02  0.59237934116E+02  0.83399317388E+02  0.12700000000E+01 0.  1.
          2    1    1    2  503    0 -0.46572692174E+02 -0.77321840291E+01  0.11485639423E+02  0.48587264166E+02  0.00000000000E+00 0. -1.
         -1    1    1    2    0  501  0.13413444766E+02 -0.56054553875E+02  0.56050219190E+02  0.80396894106E+02  0.00000000000E+00 0.  1.
<mgrwt>
<rscale>  0 0.52160914E+02</rscale>
<asrwt>0</asrwt>
<pdfrwt beam="2">  1        2 0.13888481E-01 0.47210193E+02</pdfrwt>
<pdfrwt beam="1">  1       -1 0.28546393E-01 0.57630796E+02</pdfrwt>
<totfact> 0.48037861E+03</totfact>
</mgrwt>
</event>
<event>
 7    1  0.4251803E-004  0.3069067E+02  0.7546771E-02  0.1595941E+00
         -1   -1    0    0    0  501 -0.00000000000E+00  0.00000000000E+00  0.31553092038E+02  0.31553092038E+02  0.00000000000E+00 0.  1.
          2   -1    0    0  503    0  0.00000000000E+00 -0.00000000000E+00 -0.33841546419E+03  0.33841546419E+03  0.00000000000E+00 0. -1.
         25    2    1    2    0    0  0.35433455362E+01 -0.10572940352E+02 -0.17924955516E+03  0.21881853628E+03  0.12500722550E+03 0.  0.
          4    1    3    3  502    0  0.34973579059E+02 -0.57636702399E+02 -0.11387374862E+03  0.13234041038E+03  0.12700000000E+01 0. -1.
         -4    1    3    3    0  502 -0.31430233523E+02  0.47063762047E+02 -0.65375806548E+02  0.86478125900E+02  0.12700000000E+01 0. -1.
          2    1    1    2  503    0 -0.32725038079E+02  0.10678779866E+01 -0.11205609045E+03  0.11674174869E+03  0.00000000000E+00 0. -1.
         -1    1    1    2    0  501  0.29181692542E+02  0.95050623649E+01 -0.15556726536E+02  0.34408271254E+02  0.00000000000E+00 0.  1.
<mgrwt>
<rscale>  0 0.30195237E+02</rscale>
<asrwt>0</asrwt>
<pdfrwt beam="2">  1        2 0.52063916E-01 0.29707799E+02</pdfrwt>
<pdfrwt beam="1">  1       -1 0.48543220E-02 0.30690673E+02</pdfrwt>
<totfact> 0.15911072E+04</totfact>
</mgrwt>
</event>
<event>
 7    1  0.4251803E-004  0.2976611E+03  0.7546771E-02  0.1318421E+00
          2   -1    0    0  503    0  0.00000000000E+00  0.00000000000E+00  0.66959059618E+03  0.66959059618E+03  0.00000000000E+00 0. -1.
          2   -1    0    0  502    0 -0.00000000000E+00 -0.00000000000E+00 -0.35564095346E+03  0.35564095346E+03  0.00000000000E+00 0. -1.
         25    2    1    2    0    0 -0.22231718554E+03  0.18911833134E+03 -0.16807119382E+03  0.35925214111E+03  0.12499400170E+03 0.  0.
          4    1    3    3  501    0 -0.52394084852E+02 -0.96519634920E+01 -0.47099340962E+02  0.71121454891E+02  0.12700000000E+01 0.  1.
         -4    1    3    3    0  501 -0.16992310069E+03  0.19877029483E+03 -0.12097185286E+03  0.28813068621E+03  0.12700000000E+01 0.  1.
          2    1    1    2  502    0  0.24460369239E+03 -0.19697265557E+03  0.17789594689E+03  0.36093789119E+03  0.00000000000E+00 0. -1.
          2    1    1    2  503    0 -0.22286506852E+02  0.78543242382E+01  0.30412488965E+03  0.30504151734E+03  0.00000000000E+00 0. -1.
<mgrwt>
<rscale>  0 0.83867411E+02</rscale>
<asrwt>0</asrwt>
<pdfrwt beam="1">  1        2 0.10301394E+00 0.23630040E+02</pdfrwt>
<pdfrwt beam="2">  1        2 0.54713993E-01 0.29766106E+03</pdfrwt>
<totfact> 0.66642895E+02</totfact>
</mgrwt>
</event>
<event>
 7    1  0.4251803E-004  0.1252864E+03  0.7546771E-02  0.1299281E+00
          1   -1    0    0  503    0  0.00000000000E+00  0.00000000000E+00  0.66358563367E+03  0.66358563367E+03  0.00000000000E+00 0. -1.
         -3   -1    0    0    0  501 -0.00000000000E+00 -0.00000000000E+00 -0.51040651473E+03  0.51040651473E+03  0.00000000000E+00 0.  1.
         25    2    1    2    0    0 -0.12002543098E+03  0.85902590472E+02  0.58251160125E+03  0.61378393724E+03  0.12500238751E+03 0.  0.
          4    1    3    3  502    0  0.25903395471E+02  0.10663547683E+02  0.11164399071E+03  0.11511164453E+03  0.12700000000E+01 0.  1.
         -4    1    3    3    0  502 -0.14592882645E+03  0.75239042789E+02  0.47086761055E+03  0.49867229270E+03  0.12700000000E+01 0.  1.
          1    1    1    2  503    0  0.78697189800E+02 -0.33407492389E+02  0.34056185160E+02  0.92027886957E+02  0.00000000000E+00 0. -1.
         -3    1    1    2    0  501  0.41328241179E+02 -0.52495098083E+02 -0.46338866747E+03  0.46818032422E+03  0.00000000000E+00 0.  1.
<mgrwt>
<rscale>  0 0.91490758E+02</rscale>
<asrwt>0</asrwt>
<pdfrwt beam="1">  1        1 0.10209010E+00 0.12528645E+03</pdfrwt>
<pdfrwt beam="2">  1       -3 0.78524080E-01 0.66811368E+02</pdfrwt>
<totfact> 0.25700819E+01</totfact>
</mgrwt>
</event>
<event>
 7    1  0.4251803E-004  0.9542279E+02  0.7546771E-02  0.1393258E+00
         -2   -1    0    0    0  501 -0.00000000000E+00  0.00000000000E+00  0.15466674910E+03  0.15466674910E+03  0.00000000000E+00 0.  1.
          2   -1    0    0  503    0  0.00000000000E+00 -0.00000000000E+00 -0.18214543100E+03  0.18214543100E+03  0.00000000000E+00 0. -1.
         25    2    1    2    0    0 -0.71894466750E+02 -0.22434234908E+02 -0.15705898631E+02  0.14679540096E+03  0.12502041932E+03 0.  0.
          4    1    3    3  502    0  0.57440517851E+01 -0.54745469167E+02 -0.28045326129E+02  0.61791696391E+02  0.12700000000E+01 0. -1.
         -4    1    3    3    0  502 -0.77638518535E+02  0.32311234258E+02  0.12339427497E+02  0.85003704570E+02  0.12700000000E+01 0. -1.
          2    1    1    2  503    0 -0.32635935884E+02  0.21583575205E+02 -0.62568024080E+02  0.73795072104E+02  0.00000000000E+00 0. -1.
         -2    1    1    2    0  501  0.10453040263E+03  0.85065970367E+00  0.50795240811E+02  0.11622170703E+03  0.00000000000E+00 0.  1.
<mgrwt>
<rscale>  0 0.61103582E+02</rscale>
<asrwt>0</asrwt>
<pdfrwt beam="2">  1        2 0.28022374E-01 0.39127420E+02</pdfrwt>
<pdfrwt beam="1">  1       -2 0.23794885E-01 0.95422794E+02</pdfrwt>
<totfact> 0.27126219E+03</totfact>
</mgrwt>
</event>
<event>
 7    1  0.4251803E-004  0.7302334E+02  0.7546771E-02  0.1484838E+00
          2   -1    0    0  502    0  0.00000000000E+00  0.00000000000E+00  0.27320915025E+04  0.27320915025E+04  0.00000000000E+00 0. -1.
          3   -1    0    0  503    0 -0.00000000000E+00 -0.00000000000E+00 -0.96486612365E+01  0.96486612365E+01  0.00000000000E+00 0. -1.
         25    2    1    2    0    0 -0.20038212523E+02 -0.86518689553E+02  0.15345080000E+04  0.15421499438E+04  0.12499853287E+03 0.  0.
          4    1    3    3  501    0  0.45461063495E+01 -0.91967960456E+02  0.57637772350E+03  0.58368798675E+03  0.12700000000E+01 0.  1.
         -4    1    3    3    0  501 -0.24584318873E+02  0.54492709032E+01  0.95813027655E+03  0.95846195701E+03  0.12700000000E+01 0.  1.
          2    1    1    2  502    0 -0.11668688544E+02  0.22952226575E+02  0.97059102869E+03  0.97093249403E+03  0.00000000000E+00 0. -1.
          3    1    1    2  503    0  0.31706901067E+02  0.63566462979E+02  0.21734381253E+03  0.22865772595E+03  0.00000000000E+00 0. -1.
<mgrwt>
<rscale>  0 0.43361388E+02</rscale>
<asrwt>0</asrwt>
<pdfrwt beam="1">  1        2 0.42032115E+00 0.25748068E+02</pdfrwt>
<pdfrwt beam="2">  1        3 0.14844116E-02 0.73023343E+02</pdfrwt>
<totfact> 0.33187297E+03</totfact>
</mgrwt>
</event>
<event>
 7    1  0.4251803E-004  0.9504361E+02  0.7546771E-02  0.1408159E+00
          2   -1    0    0  503    0  0.00000000000E+00  0.00000000000E+00  0.30402997397E+04  0.30402997397E+04  0.00000000000E+00 0. -1.
          2   -1    0    0  502    0 -0.00000000000E+00 -0.00000000000E+00 -0.33923854658E+04  0.33923854658E+04  0.00000000000E+00 0. -1.
         25    2    1    2    0    0 -0.43751747940E+02  0.10151828341E+03 -0.16746254170E+04  0.16829187594E+04  0.12500034505E+03 0.  0.
          4    1    3    3  501    0  0.14696432273E+02  0.71361511549E+02 -0.39908621436E+03  0.40568444614E+03  0.12700000000E+01 0. -1.
         -4    1    3    3    0  501 -0.58448180212E+02  0.30156771863E+02 -0.12755392027E+04  0.12772343133E+04  0.12700000000E+01 0. -1.
          2    1    1    2  502    0  0.34215297378E+02 -0.69589239355E+01 -0.17126916611E+04  0.17130475298E+04  0.00000000000E+00 0. -1.
          2    1    1    2  503    0  0.95364505615E+01 -0.94559359476E+02  0.30352313521E+04  0.30367189163E+04  0.00000000000E+00 0. -1.
<mgrwt>
<rscale>  0 0.57606631E+02</rscale>
<asrwt>0</asrwt>
<pdfrwt beam="1">  1        2 0.46773842E+00 0.95043613E+02</pdfrwt>
<pdfrwt beam="2">  1        2 0.52190546E+00 0.34915802E+02</pdfrwt>
<totfact> 0.63435156E-01</totfact>
</mgrwt>
</event>
<event>
 7    1  0.4251803E-004  0.1246985E+03  0.7546771E-02  0.1277840E+00
          2   -1    0    0  503    0  0.00000000000E+00  0.00000000000E+00  0.21133138029E+04  0.21133138029E+04  0.00000000000E+00 0. -1.
          2   -1    0    0  502    0 -0.00000000000E+00 -0.00000000000E+00 -0.18399600709E+03  0.18399600709E+03  0.00000000000E+00 0. -1.
         25    2    1    2    0    0  0.11129244218E+02  0.15790918291E+03  0.10789410958E+04  0.10976327262E+04  0.12499817350E+03 0.  0.
          4    1    3    3  501    0  0.29125311560E+02  0.17009803786E+03  0.83061598537E+03  0.84835496952E+03  0.12700000000E+01 0. -1.
         -4    1    3    3    0  501 -0.17996067343E+02 -0.12188854948E+02  0.24832511040E+03  0.24927775669E+03  0.12700000000E+01 0. -1.
          2    1    1    2  502    0 -0.63288648213E+02 -0.52285516495E+02 -0.16139357793E+03  0.18107212713E+03  0.00000000000E+00 0. -1.
          2    1    1    2  503    0  0.52159403995E+02 -0.10562366642E+03  0.10117702780E+04  0.10186049567E+04  0.00000000000E+00 0. -1.
<mgrwt>
<rscale>  0 0.10117730E+03</rscale>
<asrwt>0</asrwt>
<pdfrwt beam="1">  1        2 0.32512518E+00 0.12469847E+03</pdfrwt>
<pdfrwt beam="2">  1        2 0.28307080E-01 0.82092803E+02</pdfrwt>
<totfact> 0.19922656E+02</totfact>
</mgrwt>
</event>
<event>
 7    1  0.4251803E-004  0.4447369E+02  0.7546771E-02  0.1572009E+00
          2   -1    0    0  503    0  0.00000000000E+00  0.00000000000E+00  0.13697894888E+02  0.13697894888E+02  0.00000000000E+00 0. -1.
         -1   -1    0    0    0  501 -0.00000000000E+00 -0.00000000000E+00 -0.88294588849E+03  0.88294588849E+03  0.00000000000E+00 0.  1.
         25    2    1    2    0    0 -0.23110616244E+02 -0.14097193383E+02 -0.43524269938E+03  0.45364462137E+03  0.12499761474E+03 0.  0.
          4    1    3    3  502    0  0.20307907151E+02 -0.49198922372E+02 -0.95461508950E+02  0.10930442647E+03  0.12700000000E+01 0.  1.
         -4    1    3    3    0  502 -0.43418523396E+02  0.35101728990E+02 -0.33978119043E+03  0.34434019490E+03  0.12700000000E+01 0.  1.
          2    1    1    2  503    0  0.43035091595E+02  0.27018333127E+02 -0.15790455943E+03  0.16587905028E+03  0.00000000000E+00 0. -1.
         -1    1    1    2    0  501 -0.19924475351E+02 -0.12921139744E+02 -0.27610073479E+03  0.27712011172E+03  0.00000000000E+00 0.  1.
<mgrwt>
<rscale>  0 0.32498244E+02</rscale>
<asrwt>0</asrwt>
<pdfrwt beam="1">  1        2 0.21073688E-02 0.44473686E+02</pdfrwt>
<pdfrwt beam="2">  1       -1 0.13583780E+00 0.23747433E+02</pdfrwt>
<totfact> 0.26243807E+03</totfact>
</mgrwt>
</event>
<event>
 7    1  0.5961397E-004  0.4828699E+03  0.7546771E-02  0.1018349E+00
         -1   -1    0    0    0  501 -0.00000000000E+00  0.00000000000E+00  0.23017736619E+02  0.23017736619E+02  0.00000000000E+00 0.  1.
          2   -1    0    0  503    0  0.00000000000E+00 -0.00000000000E+00 -0.25324307796E+04  0.25324307796E+04  0.00000000000E+00 0. -1.
         25    2    1    2    0    0  0.11090256752E+03  0.12371728439E+03 -0.56094111107E+03  0.59823565923E+03  0.12500251175E+03 0.  0.
          4    1    3    3  502    0  0.40476439561E+02  0.55137714365E+02 -0.71257638021E+02  0.98781443506E+02  0.12700000000E+01 0.  1.
         -4    1    3    3    0  502  0.70426127963E+02  0.68579570030E+02 -0.48968347305E+03  0.49945421572E+03  0.12700000000E+01 0.  1.
          2    1    1    2  503    0 -0.25174642791E+02 -0.67171677115E+02 -0.11382811344E+04  0.11405392312E+04  0.00000000000E+00 0. -1.
         -1    1    1    2    0  501 -0.85727924733E+02 -0.56545607279E+02 -0.81019079748E+03  0.81667362582E+03  0.00000000000E+00 0.  1.
<mgrwt>
<rscale>  0 0.48286986E+03</rscale>
<asrwt>0</asrwt>
<pdfrwt beam="2">  1        2 0.38960458E+00 0.48286986E+03</pdfrwt>
<pdfrwt beam="1">  1       -1 0.35411917E-02 0.48286986E+03</pdfrwt>
<totfact> 0.12618129E+03</totfact>
</mgrwt>
</event>
<event>
 7    1  0.4251803E-004  0.7954650E+02  0.7546771E-02  0.1499582E+00
         -2   -1    0    0    0  501 -0.00000000000E+00  0.00000000000E+00  0.10990099641E+02  0.10990099641E+02  0.00000000000E+00 0.  1.
          2   -1    0    0  503    0  0.00000000000E+00 -0.00000000000E+00 -0.15490103698E+04  0.15490103698E+04  0.00000000000E+00 0. -1.
         25    2    1    2    0    0 -0.84770482482E+01  0.69932044087E+02 -0.76092134513E+03  0.77433253323E+03  0.12500890932E+03 0.  0.
          4    1    3    3  502    0  0.55747904490E+02  0.52246397315E+02 -0.37579894493E+03  0.38348921080E+03  0.12700000000E+01 0. -1.
         -4    1    3    3    0  502 -0.64224952739E+02  0.17685646772E+02 -0.38512240020E+03  0.39084332243E+03  0.12700000000E+01 0. -1.
          2    1    1    2  503    0 -0.14927520133E+02  0.15244543218E+02 -0.73138108154E+02  0.76186677441E+02  0.00000000000E+00 0. -1.
         -2    1    1    2    0  501  0.23404568381E+02 -0.85176587305E+02 -0.70396081684E+03  0.70948125873E+03  0.00000000000E+00 0.  1.
<mgrwt>
<rscale>  0 0.41197184E+02</rscale>
<asrwt>0</asrwt>
<pdfrwt beam="2">  1        2 0.23830915E+00 0.21336048E+02</pdfrwt>
<pdfrwt beam="1">  1       -2 0.16907855E-02 0.79546502E+02</pdfrwt>
<totfact> 0.13573244E+04</totfact>
</mgrwt>
</event>
<event>
 7    1  0.4251803E-004  0.3924064E+02  0.7546771E-02  0.1597571E+00
          2   -1    0    0  503    0  0.00000000000E+00  0.00000000000E+00  0.25348146354E+03  0.25348146354E+03  0.00000000000E+00 0. -1.
         -2   -1    0    0    0  501 -0.00000000000E+00 -0.00000000000E+00 -0.48298012953E+02  0.48298012953E+02  0.00000000000E+00 0.  1.
         25    2    1    2    0    0 -0.13029933701E+02 -0.17406461259E+02  0.11492335800E+03  0.17118669619E+03  0.12499897069E+03 0.  0.
          4    1    3    3  502    0  0.38131887711E+02 -0.22321160614E+02  0.11117155452E+03  0.11963696128E+03  0.12700000000E+01 0. -1.
         -4    1    3    3    0  502 -0.51161821412E+02  0.49146993543E+01  0.37518034885E+01  0.51549734911E+02  0.12700000000E+01 0. -1.
          2    1    1    2  503    0  0.35370350711E+02  0.22904944545E+02  0.97710190989E+02  0.10640949026E+03  0.00000000000E+00 0. -1.
         -2    1    1    2    0  501 -0.22340417010E+02 -0.54984832853E+01 -0.74500984116E+01  0.24183290036E+02  0.00000000000E+00 0.  1.
<mgrwt>
<rscale>  0 0.30046865E+02</rscale>
<asrwt>0</asrwt>
<pdfrwt beam="1">  1        2 0.38997148E-01 0.39240641E+02</pdfrwt>
<pdfrwt beam="2">  1       -2 0.74304637E-02 0.23007120E+02</pdfrwt>
<totfact> 0.10881890E+04</totfact>
</mgrwt>
</event>
<event>
 7    1  0.4251803E-004  0.9597628E+02  0.7546771E-02  0.1396342E+00
          1   -1    0    0  503    0  0.00000000000E+00  0.00000000000E+00  0.60627828578E+03  0.60627828578E+03  0.00000000000E+00 0. -1.
          1   -1    0    0  502    0 -0.00000000000E+00 -0.00000000000E+00 -0.13839726595E+03  0.13839726595E+03  0.00000000000E+00 0. -1.
         25    2    1    2    0    0 -0.76001724578E+02  0.28483529501E+02 -0.35293704086E+02  0.15315669851E+03  0.12499502053E+03 0.  0.
          4    1    3    3  501    0 -0.52745982307E+02  0.42897537993E+02  0.35886782783E+02  0.76888305313E+02  0.12700000000E+01 0. -1.
         -4    1    3    3    0  501 -0.23255742270E+02 -0.14414008492E+02 -0.71180486869E+02  0.76268393193E+02  0.12700000000E+01 0. -1.
          1    1    1    2  502    0  0.50933007187E+01  0.37612917655E+02 -0.30760331505E+02  0.48855616678E+02  0.00000000000E+00 0. -1.
          1    1    1    2  503    0  0.70908423859E+02 -0.66096447156E+02  0.53393505541E+03  0.54266323655E+03  0.00000000000E+00 0. -1.
<mgrwt>
<rscale>  0 0.60356402E+02</rscale>
<asrwt>0</asrwt>
<pdfrwt beam="1">  1        1 0.93273581E-01 0.95976283E+02</pdfrwt>
<pdfrwt beam="2">  1        1 0.21291887E-01 0.37956202E+02</pdfrwt>
<totfact> 0.94522686E+02</totfact>
</mgrwt>
</event>
<event>
 7    1  0.4251803E-004  0.1060380E+03  0.7546771E-02  0.1352161E+00
          2   -1    0    0  502    0  0.00000000000E+00  0.00000000000E+00  0.19732653585E+03  0.19732653585E+03  0.00000000000E+00 0. -1.
          1   -1    0    0  503    0 -0.00000000000E+00 -0.00000000000E+00 -0.14601214756E+04  0.14601214756E+04  0.00000000000E+00 0. -1.
         25    2    1    2    0    0  0.13055012055E+02  0.15235215647E+03 -0.13804737019E+03  0.24096460628E+03  0.12500100857E+03 0.  0.
          4    1    3    3  501    0 -0.19917969981E+01  0.16183308772E+03 -0.80590351168E+02  0.18080468229E+03  0.12700000000E+01 0.  1.
         -4    1    3    3    0  501  0.15046809053E+02 -0.94809312503E+01 -0.57457019025E+02  0.60159923996E+02  0.12700000000E+01 0.  1.
          2    1    1    2  502    0  0.21466849391E+01 -0.49367629163E+02  0.13948135905E+03  0.14797574324E+03  0.00000000000E+00 0. -1.
          1    1    1    2  503    0 -0.15201696994E+02 -0.10298452730E+03 -0.12642289286E+04  0.12685076620E+04  0.00000000000E+00 0. -1.
<mgrwt>
<rscale>  0 0.72386398E+02</rscale>
<asrwt>0</asrwt>
<pdfrwt beam="1">  1        2 0.30357930E-01 0.49414280E+02</pdfrwt>
<pdfrwt beam="2">  1        1 0.22463406E+00 0.10603798E+03</pdfrwt>
<totfact> 0.18842594E+02</totfact>
</mgrwt>
</event>
<event>
 7    1  0.4251803E-004  0.7587471E+02  0.7546771E-02  0.1394088E+00
         -2   -1    0    0    0  501 -0.00000000000E+00  0.00000000000E+00  0.25968559749E+03  0.25968559749E+03  0.00000000000E+00 0. -1.
          1   -1    0    0  503    0  0.00000000000E+00 -0.00000000000E+00 -0.53560291250E+03  0.53560291250E+03  0.00000000000E+00 0. -1.
         25    2    1    2    0    0  0.15734218251E+02 -0.80001193466E+02 -0.17544235184E+03  0.23033235110E+03  0.12500086625E+03 0.  0.
          4    1    3    3  502    0 -0.53977458334E+02 -0.40151601242E+02 -0.97155126610E+02  0.11817973014E+03  0.12700000000E+01 0. -1.
         -4    1    3    3    0  502  0.69711676585E+02 -0.39849592225E+02 -0.78287225226E+02  0.11215262095E+03  0.12700000000E+01 0. -1.
          1    1    1    2  503    0  0.32136474856E+02  0.70106415197E+02 -0.32558790476E+03  0.33459699071E+03  0.00000000000E+00 0. -1.
         -2    1    1    2    0  501 -0.47870693108E+02  0.98947782690E+01  0.22511294159E+03  0.23035916818E+03  0.00000000000E+00 0. -1.
<mgrwt>
<rscale>  0 0.60901183E+02</rscale>
<asrwt>0</asrwt>
<pdfrwt beam="2">  1        1 0.82400448E-01 0.75874710E+02</pdfrwt>
<pdfrwt beam="1">  1       -2 0.39951630E-01 0.48882613E+02</pdfrwt>
<totfact> 0.22187704E+02</totfact>
</mgrwt>
</event>
<event>
 7    1  0.4251803E-004  0.1471297E+03  0.7546771E-02  0.1351723E+00
         -2   -1    0    0    0  501 -0.00000000000E+00  0.00000000000E+00  0.94443703751E+03  0.94443703751E+03  0.00000000000E+00 0.  1.
          2   -1    0    0  503    0  0.00000000000E+00 -0.00000000000E+00 -0.78807651696E+03  0.78807651696E+03  0.00000000000E+00 0. -1.
         25    2    1    2    0    0 -0.74073921417E+02  0.16023095072E+03 -0.38254712545E+02  0.21965724620E+03  0.12499991750E+03 0.  0.
          4    1    3    3  502    0 -0.10013222513E+02  0.86125621465E+02 -0.75375942153E+02  0.11489574776E+03  0.12700000000E+01 0.  1.
         -4    1    3    3    0  502 -0.64060698904E+02  0.74105329258E+02  0.37121229607E+02  0.10476149844E+03  0.12700000000E+01 0.  1.
          2    1    1    2  503    0  0.47137937519E+02 -0.13673086761E+03 -0.65080450005E+03  0.66668119262E+03  0.00000000000E+00 0. -1.
         -2    1    1    2    0  501  0.26935983898E+02 -0.23500083111E+02  0.84541973315E+03  0.84617511565E+03  0.00000000000E+00 0.  1.
<mgrwt>
<rscale>  0 0.72521364E+02</rscale>
<asrwt>0</asrwt>
<pdfrwt beam="2">  1        2 0.12124254E+00 0.14712968E+03</pdfrwt>
<pdfrwt beam="1">  1       -2 0.14529801E+00 0.35746344E+02</pdfrwt>
<totfact> 0.14158863E+01</totfact>
</mgrwt>
</event>
<event>
 7    1  0.4251803E-004  0.1004514E+03  0.7546771E-02  0.1368130E+00
          1   -1    0    0  502    0  0.00000000000E+00  0.00000000000E+00  0.38815994936E+02  0.38815994936E+02  0.00000000000E+00 0. -1.
          1   -1    0    0  503    0 -0.00000000000E+00 -0.00000000000E+00 -0.18400189782E+04  0.18400189782E+04  0.00000000000E+00 0. -1.
         25    2    1    2    0    0 -0.12183545145E+03 -0.34157434952E+02 -0.52203999920E+03  0.55150780022E+03  0.12499794140E+03 0.  0.
          4    1    3    3  501    0  0.78550723246E+01 -0.45888616205E+01  0.31672200952E+01  0.97161718454E+01  0.12700000000E+01 0. -1.
         -4    1    3    3    0  501 -0.12969052378E+03 -0.29568573332E+02 -0.52520721929E+03  0.54179162838E+03  0.12700000000E+01 0. -1.
          1    1    1    2  502    0  0.80473372103E+02  0.53385975003E+02 -0.74932117344E+02  0.12223276220E+03  0.00000000000E+00 0. -1.
          1    1    1    2  503    0  0.41362079351E+02 -0.19228540051E+02 -0.12042308667E+04  0.12050944107E+04  0.00000000000E+00 0. -1.
<mgrwt>
<rscale>  0 0.67689752E+02</rscale>
<asrwt>0</asrwt>
<pdfrwt beam="1">  1        1 0.59716925E-02 0.10045138E+03</pdfrwt>
<pdfrwt beam="2">  1        1 0.28307980E+00 0.45613138E+02</pdfrwt>
<totfact> 0.75506822E+02</totfact>
</mgrwt>
</event>
<event>
 7    1  0.4251803E-004  0.5230179E+02  0.7546771E-02  0.1511489E+00
         -2   -1    0    0    0  501 -0.00000000000E+00  0.00000000000E+00  0.11585937544E+03  0.11585937544E+03  0.00000000000E+00 0.  1.
          1   -1    0    0  503    0  0.00000000000E+00 -0.00000000000E+00 -0.21626355620E+03  0.21626355620E+03  0.00000000000E+00 0. -1.
         25    2    1    2    0    0  0.56716463016E+02 -0.53591318480E+02  0.26320912400E+02  0.14968180970E+03  0.12499226828E+03 0.  0.
          4    1    3    3  502    0 -0.30190266235E+02 -0.44942229821E+02 -0.10025260225E+02  0.55076083187E+02  0.12700000000E+01 0. -1.
         -4    1    3    3    0  502  0.86906729251E+02 -0.86490886588E+01  0.36346172625E+02  0.94605726509E+02  0.12700000000E+01 0. -1.
          1    1    1    2  503    0 -0.29169719019E+02  0.41914185190E+02 -0.14050786799E+03  0.14949960667E+03  0.00000000000E+00 0. -1.
         -2    1    1    2    0  501 -0.27546743997E+02  0.11677133289E+02  0.13782774832E+02  0.32941515278E+02  0.00000000000E+00 0.  1.
<mgrwt>
<rscale>  0 0.39558123E+02</rscale>
<asrwt>0</asrwt>
<pdfrwt beam="2">  1        1 0.33271316E-01 0.52301787E+02</pdfrwt>
<pdfrwt beam="1">  1       -2 0.17824520E-01 0.29919535E+02</pdfrwt>
<totfact> 0.26311964E+03</totfact>
</mgrwt>
</event>
<event>
 7    1  0.4251803E-004  0.5513364E+02  0.7546771E-02  0.1510777E+00
         -2   -1    0    0    0  501 -0.00000000000E+00  0.00000000000E+00  0.68771226228E+02  0.68771226228E+02  0.00000000000E+00 0.  1.
          1   -1    0    0  503    0  0.00000000000E+00 -0.00000000000E+00 -0.37222287860E+03  0.37222287860E+03  0.00000000000E+00 0. -1.
         25    2    1    2    0    0 -0.50171512583E+02 -0.42731986086E+02 -0.23992593216E+02  0.14332065471E+03  0.12498784832E+03 0.  0.
          4    1    3    3  502    0 -0.81884485454E+02 -0.17019687863E+02 -0.47502251959E+02  0.96191556668E+02  0.12700000000E+01 0.  1.
         -4    1    3    3    0  502  0.31712972870E+02 -0.25712298222E+02  0.23509658743E+02  0.47129098043E+02  0.12700000000E+01 0.  1.
          1    1    1    2  503    0  0.43530676681E+01  0.28185645700E+02 -0.21695326599E+03  0.21881978760E+03  0.00000000000E+00 0. -1.
         -2    1    1    2    0  501  0.45818444915E+02  0.14546340386E+02 -0.62505793163E+02  0.78853662515E+02  0.00000000000E+00 0.  1.
<mgrwt>
<rscale>  0 0.39653515E+02</rscale>
<asrwt>0</asrwt>
<pdfrwt beam="2">  1        1 0.57265057E-01 0.28519815E+02</pdfrwt>
<pdfrwt beam="1">  1       -2 0.10580189E-01 0.55133641E+02</pdfrwt>
<totfact> 0.32577234E+03</totfact>
</mgrwt>
</event>
<event>
 7    1  0.4251803E-004  0.4504207E+02  0.7546771E-02  0.1534634E+00
          3   -1    0    0  503    0  0.00000000000E+00  0.00000000000E+00  0.90994670099E+03  0.90994670099E+03  0.00000000000E+00 0. -1.
         -3   -1    0    0    0  501 -0.00000000000E+00 -0.00000000000E+00 -0.34220697716E+03  0.34220697716E+03  0.00000000000E+00 0.  1.
         25    2    1    2    0    0 -0.50549685375E+02  0.10333010457E+02 -0.16337366653E+03  0.21208354684E+03  0.12500573639E+03 0.  0.
          4    1    3    3  502    0 -0.68968089634E+02 -0.33048811720E+02 -0.55944365436E+02  0.94763950254E+02  0.12700000000E+01 0.  1.
         -4    1    3    3    0  502  0.18418404259E+02  0.43381822178E+02 -0.10742930109E+03  0.11731959659E+03  0.12700000000E+01 0.  1.
          3    1    1    2  503    0  0.90365910537E+01 -0.28375038793E+02  0.88201931583E+03  0.88252188432E+03  0.00000000000E+00 0. -1.
         -3    1    1    2    0  501  0.41513094321E+02  0.18042028336E+02 -0.15090592547E+03  0.15754824699E+03  0.00000000000E+00 0.  1.
<mgrwt>
<rscale>  0 0.36624014E+02</rscale>
<asrwt>0</asrwt>
<pdfrwt beam="1">  1        3 0.13999180E+00 0.29779234E+02</pdfrwt>
<pdfrwt beam="2">  1       -3 0.52647228E-01 0.45042071E+02</pdfrwt>
<totfact> 0.33157669E+00</totfact>
</mgrwt>
</event>
<event>
 7    1  0.4251803E-004  0.1051037E+03  0.7546771E-02  0.1450986E+00
          1   -1    0    0  502    0  0.00000000000E+00  0.00000000000E+00  0.27101392993E+04  0.27101392993E+04  0.00000000000E+00 0. -1.
          1   -1    0    0  503    0 -0.00000000000E+00 -0.00000000000E+00 -0.26501014055E+02  0.26501014055E+02  0.00000000000E+00 0. -1.
         25    2    1    2    0    0  0.70991564745E+02 -0.85806442042E+02  0.16828384653E+04  0.16911435912E+04  0.12497519000E+03 0.  0.
          4    1    3    3  501    0  0.72684978373E+02  0.65039701219E+01  0.61354569611E+03  0.61787162244E+03  0.12700000000E+01 0.  1.
         -4    1    3    3    0  501 -0.16934136279E+01 -0.92310412164E+02  0.10692927692E+04  0.10732719688E+04  0.12700000000E+01 0.  1.
          1    1    1    2  502    0  0.10694348887E+02  0.20152985449E+02  0.89934263247E+03  0.89963197058E+03  0.00000000000E+00 0. -1.
          1    1    1    2  503    0 -0.81685913632E+02  0.65653456593E+02  0.10145718745E+03  0.14586475152E+03  0.00000000000E+00 0. -1.
<mgrwt>
<rscale>  0 0.48968495E+02</rscale>
<asrwt>0</asrwt>
<pdfrwt beam="1">  1        1 0.41694429E+00 0.22814730E+02</pdfrwt>
<pdfrwt beam="2">  1        1 0.40770812E-02 0.10510374E+03</pdfrwt>
<totfact> 0.41835701E+02</totfact>
</mgrwt>
</event>
<event>
 7    1  0.4251803E-004  0.2988468E+02  0.7546771E-02  0.1609167E+00
          2   -1    0    0  503    0  0.00000000000E+00  0.00000000000E+00  0.30019427547E+04  0.30019427547E+04  0.00000000000E+00 0. -1.
         -1   -1    0    0    0  501 -0.00000000000E+00 -0.00000000000E+00 -0.58397917660E+01  0.58397917660E+01  0.00000000000E+00 0.  1.
         25    2    1    2    0    0  0.65220468647E+01  0.22239291083E+02  0.26388165541E+04  0.26418773050E+04  0.12500306221E+03 0.  0.
          4    1    3    3  502    0 -0.29543945989E+02  0.55081419120E+02  0.20785318465E+04  0.20794718217E+04  0.12700000000E+01 0. -1.
         -4    1    3    3    0  502  0.36065992854E+02 -0.32842128037E+02  0.56028470762E+03  0.56240548336E+03  0.12700000000E+01 0. -1.
          2    1    1    2  503    0 -0.31997475007E+02 -0.34291726028E+02  0.16399192320E+03  0.17056703010E+03  0.00000000000E+00 0. -1.
         -1    1    1    2    0  501  0.25475428142E+02  0.12052434945E+02  0.19329448568E+03  0.19533821137E+03  0.00000000000E+00 0.  1.
<mgrwt>
<rscale>  0 0.29021164E+02</rscale>
<asrwt>0</asrwt>
<pdfrwt beam="1">  1        2 0.46183611E+00 0.29884685E+02</pdfrwt>
<pdfrwt beam="2">  1       -1 0.89843190E-03 0.28182594E+02</pdfrwt>
<totfact> 0.50846993E+03</totfact>
</mgrwt>
</event>
<event>
 7    1  0.4251803E-004  0.2319842E+03  0.7546771E-02  0.1297677E+00
          2   -1    0    0  502    0  0.00000000000E+00  0.00000000000E+00  0.71520809584E+03  0.71520809584E+03  0.00000000000E+00 0. -1.
          1   -1    0    0  503    0 -0.00000000000E+00 -0.00000000000E+00 -0.41699629021E+03  0.41699629021E+03  0.00000000000E+00 0. -1.
         25    2    1    2    0    0  0.16543083023E+03 -0.18354841180E+03 -0.98161384572E+02  0.29380069624E+03  0.12500325045E+03 0.  0.
          4    1    3    3  501    0  0.15098605286E+03 -0.78294336430E+02 -0.51079946592E+02  0.17758818969E+03  0.12700000000E+01 0. -1.
         -4    1    3    3    0  501  0.14444777376E+02 -0.10525407537E+03 -0.47081437980E+02  0.11621250654E+03  0.12700000000E+01 0. -1.
          2    1    1    2  502    0 -0.17628969146E+03  0.14857410782E+03  0.59412546729E+03  0.63728909587E+03  0.00000000000E+00 0. -1.
          1    1    1    2  503    0  0.10858861227E+02  0.34974303975E+02 -0.19775227709E+03  0.20111459395E+03  0.00000000000E+00 0. -1.
<mgrwt>
<rscale>  0 0.92171321E+02</rscale>
<asrwt>0</asrwt>
<pdfrwt beam="1">  1        2 0.11003201E+00 0.23198415E+03</pdfrwt>
<pdfrwt beam="2">  1        1 0.64153275E-01 0.36621262E+02</pdfrwt>
<totfact> 0.33129978E+02</totfact>
</mgrwt>
</event>
<event>
 7    1  0.4251803E-004  0.9921160E+02  0.7546771E-02  0.1282037E+00
         -1   -1    0    0    0  501 -0.00000000000E+00  0.00000000000E+00  0.82920716645E+03  0.82920716645E+03  0.00000000000E+00 0.  1.
          1   -1    0    0  503    0  0.00000000000E+00 -0.00000000000E+00 -0.34398240803E+03  0.34398240803E+03  0.00000000000E+00 0.  1.
         25    2    1    2    0    0 -0.70569703964E+02  0.30182820733E+02 -0.13969859785E+03  0.20256157197E+03  0.12499762563E+03 0.  0.
          4    1    3    3  502    0 -0.84238593332E+02 -0.99221668283E+00 -0.32878821684E+02  0.90441997523E+02  0.12700000000E+01 0.  1.
         -4    1    3    3    0  502  0.13668889368E+02  0.31175037416E+02 -0.10681977617E+03  0.11211957445E+03  0.12700000000E+01 0.  1.
          1    1    1    2  503    0  0.42646019804E+02 -0.12531072730E+03 -0.14385207297E+03  0.19548626621E+03  0.00000000000E+00 0.  1.
         -1    1    1    2    0  501  0.27923684160E+02  0.95127906562E+02  0.76877542924E+03  0.77514173630E+03  0.00000000000E+00 0.  1.
<mgrwt>
<rscale>  0 0.99176580E+02</rscale>
<asrwt>0</asrwt>
<pdfrwt beam="2">  1        1 0.52920371E-01 0.99211602E+02</pdfrwt>
<pdfrwt beam="1">  1       -1 0.12757033E+00 0.99141569E+02</pdfrwt>
<totfact> 0.45233094E+01</totfact>
</mgrwt>
</event>
<event>
 7    1  0.4251803E-004  0.7091323E+02  0.7546771E-02  0.1395134E+00
          2   -1    0    0  503    0  0.00000000000E+00  0.00000000000E+00  0.19297236457E+03  0.19297236457E+03  0.00000000000E+00 0. -1.
         -3   -1    0    0    0  501 -0.00000000000E+00 -0.00000000000E+00 -0.15453065329E+03  0.15453065329E+03  0.00000000000E+00 0.  1.
         25    2    1    2    0    0 -0.56806764255E+02 -0.13213597358E+02  0.50519522422E+00  0.13794258665E+03  0.12500517737E+03 0.  0.
          4    1    3    3  502    0 -0.40901275533E+02 -0.59691182052E+02 -0.31889372490E+02  0.79085374961E+02  0.12700000000E+01 0.  1.
         -4    1    3    3    0  502 -0.15905488722E+02  0.46477584694E+02  0.32394567714E+02  0.58857211689E+02  0.12700000000E+01 0.  1.
          2    1    1    2  503    0  0.12030596290E+02 -0.50453420300E+02  0.98243981174E+02  0.11109528660E+03  0.00000000000E+00 0. -1.
         -3    1    1    2    0  501  0.44776167965E+02  0.63667017658E+02 -0.60307465114E+02  0.98465144613E+02  0.00000000000E+00 0.  1.
<mgrwt>
<rscale>  0 0.60647532E+02</rscale>
<asrwt>0</asrwt>
<pdfrwt beam="1">  1        2 0.29688056E-01 0.51867937E+02</pdfrwt>
<pdfrwt beam="2">  1       -3 0.23773947E-01 0.70913235E+02</pdfrwt>
<totfact> 0.15904462E+03</totfact>
</mgrwt>
</event>
<event>
 7    1  0.4251803E-004  0.9900096E+02  0.7546771E-02  0.1360424E+00
          2   -1    0    0  502    0  0.00000000000E+00  0.00000000000E+00  0.67169714596E+03  0.67169714596E+03  0.00000000000E+00 0. -1.
          1   -1    0    0  503    0 -0.00000000000E+00 -0.00000000000E+00 -0.11995830987E+03  0.11995830987E+03  0.00000000000E+00 0. -1.
         25    2    1    2    0    0 -0.13253829249E+03  0.60738336834E+01  0.49001148720E+03  0.52281921851E+03  0.12500154886E+03 0.  0.
          4    1    3    3  501    0 -0.13753672587E+03 -0.19437984704E+02  0.46968229130E+03  0.48979307250E+03  0.12700000000E+01 0. -1.
         -4    1    3    3    0  501  0.49984333824E+01  0.25511818388E+02  0.20329195905E+02  0.33026146003E+02  0.12700000000E+01 0. -1.
          2    1    1    2  502    0  0.40872241323E+02  0.27669462164E+02  0.13693470418E+03  0.14555841595E+03  0.00000000000E+00 0. -1.
          1    1    1    2  503    0  0.91666051168E+02 -0.33743295847E+02 -0.75207355288E+02  0.12327782137E+03  0.00000000000E+00 0. -1.
<mgrwt>
<rscale>  0 0.69902907E+02</rscale>
<asrwt>0</asrwt>
<pdfrwt beam="1">  1        2 0.10333802E+00 0.49357261E+02</pdfrwt>
<pdfrwt beam="2">  1        1 0.18455125E-01 0.99000962E+02</pdfrwt>
<totfact> 0.17204175E+03</totfact>
</mgrwt>
</event>
<event>
 7    1  0.4251803E-004  0.8428146E+02  0.7546771E-02  0.1480358E+00
         -3   -1    0    0    0  501 -0.00000000000E+00  0.00000000000E+00  0.96145827654E+02  0.96145827654E+02  0.00000000000E+00 0.  1.
          1   -1    0    0  503    0  0.00000000000E+00 -0.00000000000E+00 -0.52409955896E+03  0.52409955896E+03  0.00000000000E+00 0. -1.
         25    2    1    2    0    0  0.70466405486E+02 -0.17822696661E+02 -0.31070095273E+03  0.34270164277E+03  0.12500468436E+03 0.  0.
          4    1    3    3  502    0  0.77823963315E+02 -0.61670930872E+02 -0.23074251969E+03  0.25120429191E+03  0.12700000000E+01 0.  1.
         -4    1    3    3    0  502 -0.73575578292E+01  0.43848234211E+02 -0.79958433045E+02  0.91497350867E+02  0.12700000000E+01 0.  1.
          1    1    1    2  503    0  0.14771554290E+02  0.17660101163E+02 -0.17375854651E+03  0.17527723889E+03  0.00000000000E+00 0. -1.
         -3    1    1    2    0  501 -0.85237959776E+02  0.16259549773E+00  0.56505767935E+02  0.10226650495E+03  0.00000000000E+00 0.  1.
<mgrwt>
<rscale>  0 0.44050514E+02</rscale>
<asrwt>0</asrwt>
<pdfrwt beam="2">  1        1 0.80630700E-01 0.23023423E+02</pdfrwt>
<pdfrwt beam="1">  1       -3 0.14791666E-01 0.84281464E+02</pdfrwt>
<totfact> 0.85602204E+02</totfact>
</mgrwt>
</event>
<event>
 7    1  0.4251803E-004  0.4604934E+02  0.7546771E-02  0.1479418E+00
          1   -1    0    0  503    0  0.00000000000E+00  0.00000000000E+00  0.60197910322E+03  0.60197910322E+03  0.00000000000E+00 0. -1.
          1   -1    0    0  502    0 -0.00000000000E+00 -0.00000000000E+00 -0.10780825483E+04  0.10780825483E+04  0.00000000000E+00 0. -1.
         25    2    1    2    0    0 -0.69427550426E+02  0.15031539048E+02 -0.21682481326E+03  0.26017209282E+03  0.12502154341E+03 0.  0.
          4    1    3    3  501    0 -0.51475856521E+02 -0.41409226766E+02 -0.49184400187E+02  0.82372361794E+02  0.12700000000E+01 0.  1.
         -4    1    3    3    0  501 -0.17951693905E+02  0.56440765814E+02 -0.16764041307E+03  0.17779973103E+03  0.12700000000E+01 0.  1.
          1    1    1    2  502    0  0.26970709582E+02 -0.32740958752E+02 -0.83813519297E+03  0.83920795471E+03  0.00000000000E+00 0. -1.
          1    1    1    2  503    0  0.42456840844E+02  0.17709419703E+02  0.57885656112E+03  0.58068160401E+03  0.00000000000E+00 0. -1.
<mgrwt>
<rscale>  0 0.44197024E+02</rscale>
<asrwt>0</asrwt>
<pdfrwt beam="1">  1        1 0.92612171E-01 0.46049344E+02</pdfrwt>
<pdfrwt beam="2">  1        1 0.16585885E+00 0.42419212E+02</pdfrwt>
<totfact> 0.71369081E+01</totfact>
</mgrwt>
</event>
<event>
 7    1  0.4251803E-004  0.2849007E+03  0.7546771E-02  0.1142109E+00
          3   -1    0    0  503    0 -0.00000000000E+00  0.00000000000E+00  0.19136282607E+04  0.19136282607E+04  0.00000000000E+00 0. -1.
          1   -1    0    0  502    0  0.00000000000E+00 -0.00000000000E+00 -0.41858074707E+03  0.41858074707E+03  0.00000000000E+00 0. -1.
         25    2    1    2    0    0 -0.42124737990E+03  0.67341327418E+01 -0.58897899238E+02  0.44338047016E+03  0.12499030030E+03 0.  0.
          4    1    3    3  501    0 -0.71584220483E+02 -0.25395736586E+02 -0.52210892124E+02  0.92178274096E+02  0.12700000000E+01 0. -1.
         -4    1    3    3    0  501 -0.34966315942E+03  0.32129869328E+02 -0.66870071139E+01  0.35120219606E+03  0.12700000000E+01 0. -1.
          1    1    1    2  502    0  0.14564011380E+03 -0.49380145987E+02 -0.11796505470E+03  0.19381742877E+03  0.00000000000E+00 0. -1.
          3    1    1    2  503    0  0.27560726610E+03  0.42646013245E+02  0.16719104675E+04  0.16950111088E+04  0.00000000000E+00 0. -1.
<mgrwt>
<rscale>  0 0.20931578E+03</rscale>
<asrwt>0</asrwt>
<pdfrwt beam="2">  1        1 0.64397039E-01 0.15378375E+03</pdfrwt>
<pdfrwt beam="1">  1        3 0.29440434E+00 0.28490069E+03</pdfrwt>
<totfact> 0.14643015E+00</totfact>
</mgrwt>
</event>
<event>
 7    1  0.4251803E-004  0.1836278E+03  0.7546771E-02  0.1371666E+00
          1   -1    0    0  503    0 -0.00000000000E+00  0.00000000000E+00  0.59392835500E+03  0.59392835500E+03  0.00000000000E+00 0. -1.
          2   -1    0    0  502    0  0.00000000000E+00 -0.00000000000E+00 -0.34029633205E+03  0.34029633205E+03  0.00000000000E+00 0. -1.
         25    2    1    2    0    0 -0.18339170985E+03  0.21826502782E+02  0.83385560221E+02  0.23809801817E+03  0.12501439573E+03 0.  0.
          4    1    3    3  501    0 -0.64278743499E+02 -0.51797098198E+02  0.23890262345E+02  0.85947971369E+02  0.12700000000E+01 0. -1.
         -4    1    3    3    0  501 -0.11911296635E+03  0.73623600980E+02  0.59495297876E+02  0.15215004681E+03  0.12700000000E+01 0. -1.
          2    1    1    2  502    0  0.17797150806E+03 -0.45444828727E+02 -0.23045067144E+03  0.29469747557E+03  0.00000000000E+00 0. -1.
          1    1    1    2  503    0  0.54202017892E+01  0.23618325944E+02  0.40069713416E+03  0.40142919330E+03  0.00000000000E+00 0. -1.
<mgrwt>
<rscale>  0 0.66706241E+02</rscale>
<asrwt>0</asrwt>
<pdfrwt beam="2">  1        2 0.52353282E-01 0.18362781E+03</pdfrwt>
<pdfrwt beam="1">  1        1 0.91373593E-01 0.24232291E+02</pdfrwt>
<totfact> 0.50113418E+02</totfact>
</mgrwt>
</event>
<event>
 7    1  0.4251803E-004  0.4371131E+02  0.7546771E-02  0.1508711E+00
          1   -1    0    0  503    0  0.00000000000E+00  0.00000000000E+00  0.15589737226E+03  0.15589737226E+03  0.00000000000E+00 0. -1.
         -2   -1    0    0    0  501 -0.00000000000E+00 -0.00000000000E+00 -0.85173544258E+02  0.85173544258E+02  0.00000000000E+00 0.  1.
         25    2    1    2    0    0  0.14753104891E+01  0.13356021283E+02 -0.65289167285E+01  0.12588726940E+03  0.12499767197E+03 0.  0.
          4    1    3    3  502    0  0.31822447540E+02 -0.46978742952E+02 -0.12362073106E+02  0.58087039934E+02  0.12700000000E+01 0.  1.
         -4    1    3    3    0  502 -0.30347137051E+02  0.60334764235E+02  0.58331563776E+01  0.67800229468E+02  0.12700000000E+01 0.  1.
          1    1    1    2  503    0 -0.24788858149E+02 -0.41414056955E+02  0.51146974996E+02  0.70325135286E+02  0.00000000000E+00 0. -1.
         -2    1    1    2    0  501  0.23313547660E+02  0.28058035672E+02  0.26105769738E+02  0.44858511833E+02  0.00000000000E+00 0.  1.
<mgrwt>
<rscale>  0 0.39932182E+02</rscale>
<asrwt>0</asrwt>
<pdfrwt beam="1">  1        1 0.23984211E-01 0.43711307E+02</pdfrwt>
<pdfrwt beam="2">  1       -2 0.13103622E-01 0.36479787E+02</pdfrwt>
<totfact> 0.63942626E+03</totfact>
</mgrwt>
</event>
<event>
 7    1  0.4251803E-004  0.7461787E+02  0.7546771E-02  0.1389207E+00
         -3   -1    0    0    0  501 -0.00000000000E+00  0.00000000000E+00  0.13260699483E+03  0.13260699483E+03  0.00000000000E+00 0.  1.
          2   -1    0    0  503    0  0.00000000000E+00 -0.00000000000E+00 -0.88021780982E+03  0.88021780982E+03  0.00000000000E+00 0. -1.
         25    2    1    2    0    0 -0.68256791209E+02  0.89168363082E+02 -0.78128003567E+02  0.18529515994E+03  0.12498129794E+03 0.  0.
          4    1    3    3  502    0 -0.71634563428E+00  0.20989892289E+02 -0.86435064694E+02  0.88959103177E+02  0.12700000000E+01 0.  1.
         -4    1    3    3    0  502 -0.67540445574E+02  0.68178470794E+02  0.83070611275E+01  0.96336056763E+02  0.12700000000E+01 0.  1.
          2    1    1    2  503    0  0.46889417578E+02 -0.21752323500E+02 -0.73158684024E+03  0.73341058478E+03  0.00000000000E+00 0. -1.
         -3    1    1    2    0  501  0.21367373631E+02 -0.67416039582E+02  0.62104028815E+02  0.94119059939E+02  0.00000000000E+00 0.  1.
<mgrwt>
<rscale>  0 0.62104296E+02</rscale>
<asrwt>0</asrwt>
<pdfrwt beam="2">  1        2 0.13541813E+00 0.51689274E+02</pdfrwt>
<pdfrwt beam="1">  1       -3 0.20401076E-01 0.74617872E+02</pdfrwt>
<totfact> 0.41389861E+02</totfact>
</mgrwt>
</event>
<event>
 7    1  0.4251803E-004  0.1683853E+03  0.7546771E-02  0.1278614E+00
          2   -1    0    0  502    0  0.00000000000E+00  0.00000000000E+00  0.10290272958E+04  0.10290272958E+04  0.00000000000E+00 0.  1.
          1   -1    0    0  503    0 -0.00000000000E+00 -0.00000000000E+00 -0.82273669233E+03  0.82273669233E+03  0.00000000000E+00 0. -1.
         25    2    1    2    0    0 -0.10214236148E+03  0.86257403089E+02  0.12051792035E+03  0.21913870353E+03  0.12499520257E+03 0.  0.
          4    1    3    3  501    0  0.16720786573E+02 -0.16312291356E+02  0.42664878826E+01  0.23780062484E+02  0.12700000000E+01 0. -1.
         -4    1    3    3    0  501 -0.11886314805E+03  0.10256969444E+03  0.11625143247E+03  0.19535864105E+03  0.12700000000E+01 0. -1.
          2    1    1    2  502    0  0.16054345386E+03 -0.71058471169E+02  0.84902689931E+03  0.86698914794E+03  0.00000000000E+00 0.  1.
          1    1    1    2  503    0 -0.58401092381E+02 -0.15198931920E+02 -0.76325421622E+03  0.76563613662E+03  0.00000000000E+00 0. -1.
<mgrwt>
<rscale>  0 0.10080405E+03</rscale>
<asrwt>0</asrwt>
<pdfrwt beam="1">  1        2 0.15831189E+00 0.16838531E+03</pdfrwt>
<pdfrwt beam="2">  1        1 0.12657488E+00 0.60346459E+02</pdfrwt>
<totfact> 0.84487438E+01</totfact>
</mgrwt>
</event>
<event>
 7    1  0.4251803E-004  0.4596168E+02  0.7546771E-02  0.1486580E+00
          1   -1    0    0  503    0 -0.00000000000E+00  0.00000000000E+00  0.21274490216E+03  0.21274490216E+03  0.00000000000E+00 0. -1.
          2   -1    0    0  502    0  0.00000000000E+00 -0.00000000000E+00 -0.13228133942E+04  0.13228133942E+04  0.00000000000E+00 0. -1.
         25    2    1    2    0    0  0.39205844768E+02  0.13223538230E+02  0.95902467944E+02  0.16289358171E+03  0.12500030151E+03 0.  0.
          4    1    3    3  501    0  0.24927604376E+02 -0.35326330207E+02 -0.10982620320E+02  0.44626963990E+02  0.12700000000E+01 0. -1.
         -4    1    3    3    0  501  0.14278240392E+02  0.48549868437E+02  0.10688508826E+03  0.11826661772E+03  0.12700000000E+01 0. -1.
          2    1    1    2  502    0 -0.22147042665E+02  0.33802910703E+02 -0.12814642650E+04  0.12821013185E+04  0.00000000000E+00 0. -1.
          1    1    1    2  503    0 -0.17058802103E+02 -0.47026448933E+02  0.75493305023E+02  0.90563396203E+02  0.00000000000E+00 0. -1.
<mgrwt>
<rscale>  0 0.43097593E+02</rscale>
<asrwt>0</asrwt>
<pdfrwt beam="2">  1        2 0.20350975E+00 0.40411982E+02</pdfrwt>
<pdfrwt beam="1">  1        1 0.32729986E-01 0.45961679E+02</pdfrwt>
<totfact> 0.35193352E+02</totfact>
</mgrwt>
</event>
<event>
 7    1  0.4251803E-004  0.1598990E+03  0.7546771E-02  0.1224303E+00
          2   -1    0    0  503    0  0.00000000000E+00  0.00000000000E+00  0.75921386799E+03  0.75921386799E+03  0.00000000000E+00 0. -1.
          2   -1    0    0  502    0 -0.00000000000E+00 -0.00000000000E+00 -0.43449023860E+03  0.43449023860E+03  0.00000000000E+00 0. -1.
         25    2    1    2    0    0 -0.49338835145E+02 -0.61457637443E+02  0.63052086656E+02  0.16065320704E+03  0.12499010139E+03 0.  0.
          4    1    3    3  501    0  0.36551509382E+02 -0.28768783905E+02  0.49176688397E+02  0.67702402817E+02  0.12700000000E+01 0.  1.
         -4    1    3    3    0  501 -0.85890344527E+02 -0.32688853538E+02  0.13875398259E+02  0.92950804222E+02  0.12700000000E+01 0.  1.
          2    1    1    2  502    0 -0.10091733018E+03 -0.41752659877E+02 -0.36469562980E+03  0.38069737920E+03  0.00000000000E+00 0. -1.
          2    1    1    2  503    0  0.15025616533E+03  0.10321029732E+03  0.62636717253E+03  0.65235352035E+03  0.00000000000E+00 0. -1.
<mgrwt>
<rscale>  0 0.13214812E+03</rscale>
<asrwt>0</asrwt>
<pdfrwt beam="1">  1        2 0.11680213E+00 0.15989895E+03</pdfrwt>
<pdfrwt beam="2">  1        2 0.66844652E-01 0.10921352E+03</pdfrwt>
<totfact> 0.44096997E+02</totfact>
</mgrwt>
</event>
<event>
 7    1  0.4251803E-004  0.1221526E+03  0.7546771E-02  0.1301106E+00
          1   -1    0    0  503    0  0.00000000000E+00  0.00000000000E+00  0.12864831644E+04  0.12864831644E+04  0.00000000000E+00 0.  1.
         -1   -1    0    0    0  501 -0.00000000000E+00 -0.00000000000E+00 -0.25598557162E+03  0.25598557162E+03  0.00000000000E+00 0.  1.
         25    2    1    2    0    0  0.10815239887E+03  0.80728067761E+02  0.30401953268E+03  0.35534531466E+03  0.12501381559E+03 0.  0.
          4    1    3    3  502    0  0.28410142646E+02  0.83052683939E+02  0.23127280486E+03  0.24737341749E+03  0.12700000000E+01 0. -1.
         -4    1    3    3    0  502  0.79742256223E+02 -0.23246161777E+01  0.72746727827E+02  0.10797189717E+03  0.12700000000E+01 0. -1.
          1    1    1    2  503    0 -0.48709367950E+02 -0.11246101290E+03  0.94784125520E+03  0.95573172334E+03  0.00000000000E+00 0.  1.
         -1    1    1    2    0  501 -0.59443030920E+02  0.31732945140E+02 -0.22136319514E+03  0.23139169798E+03  0.00000000000E+00 0.  1.
<mgrwt>
<rscale>  0 0.90724850E+02</rscale>
<asrwt>0</asrwt>
<pdfrwt beam="1">  1        1 0.19792048E+00 0.12215265E+03</pdfrwt>
<pdfrwt beam="2">  1       -1 0.39382396E-01 0.67382889E+02</pdfrwt>
<totfact> 0.67972315E+01</totfact>
</mgrwt>
</event>
<event>
 7    1  0.4251803E-004  0.1346528E+03  0.7546771E-02  0.1324932E+00
          2   -1    0    0  502    0  0.00000000000E+00  0.00000000000E+00  0.33055902238E+04  0.33055902238E+04  0.00000000000E+00 0. -1.
          1   -1    0    0  503    0 -0.00000000000E+00 -0.00000000000E+00 -0.52516746961E+02  0.52516746961E+02  0.00000000000E+00 0. -1.
         25    2    1    2    0    0 -0.14687366351E+02  0.12114909126E+03  0.25001110130E+03  0.30499343866E+03  0.12499050288E+03 0.  0.
          4    1    3    3  501    0  0.13173833967E+02  0.91501519854E+02  0.24750848583E+03  0.26421230383E+03  0.12700000000E+01 0.  1.
         -4    1    3    3    0  501 -0.27861200318E+02  0.29647571409E+02  0.25026154612E+01  0.40781134827E+02  0.12700000000E+01 0.  1.
          2    1    1    2  502    0 -0.33483080842E+02 -0.13160433999E+03  0.30006934217E+04  0.30037646097E+04  0.00000000000E+00 0. -1.
          1    1    1    2  503    0  0.48170447193E+02  0.10455248727E+02  0.23689538592E+01  0.49348922491E+02  0.00000000000E+00 0. -1.
<mgrwt>
<rscale>  0 0.81469693E+02</rscale>
<asrwt>0</asrwt>
<pdfrwt beam="1">  1        2 0.50855218E+00 0.13465282E+03</pdfrwt>
<pdfrwt beam="2">  1        1 0.80795021E-02 0.49292030E+02</pdfrwt>
<totfact> 0.15714012E+02</totfact>
</mgrwt>
</event>
<event>
 7    1  0.4251803E-004  0.4335920E+02  0.7546771E-02  0.1504998E+00
         -2   -1    0    0    0  501 -0.00000000000E+00  0.00000000000E+00  0.17499150937E+03  0.17499150937E+03  0.00000000000E+00 0.  1.
          1   -1    0    0  503    0  0.00000000000E+00 -0.00000000000E+00 -0.78280868191E+02  0.78280868191E+02  0.00000000000E+00 0. -1.
         25    2    1    2    0    0  0.61148594203E+02 -0.10967553171E+02  0.36358574183E+02  0.14424974782E+03  0.12500642397E+03 0.  0.
          4    1    3    3  502    0  0.28435662774E+02 -0.26180477522E+02 -0.42535919989E+02  0.57488448491E+02  0.12700000000E+01 0.  1.
         -4    1    3    3    0  502  0.32712931430E+02  0.15212924351E+02  0.78894494172E+02  0.86761299325E+02  0.12700000000E+01 0.  1.
          1    1    1    2  503    0 -0.23249290171E+02  0.29699630958E+02  0.30875933853E+01  0.37843504137E+02  0.00000000000E+00 0. -1.
         -2    1    1    2    0  501 -0.37899304033E+02 -0.18732077787E+02  0.57264473612E+02  0.71179125608E+02  0.00000000000E+00 0.  1.
<mgrwt>
<rscale>  0 0.40439998E+02</rscale>
<asrwt>0</asrwt>
<pdfrwt beam="2">  1        1 0.12043211E-01 0.37717338E+02</pdfrwt>
<pdfrwt beam="1">  1       -2 0.26921771E-01 0.43359196E+02</pdfrwt>
<totfact> 0.46372986E+03</totfact>
</mgrwt>
</event>
<event>
 7    1  0.4251803E-004  0.5350354E+02  0.7546771E-02  0.1469507E+00
         -2   -1    0    0    0  501 -0.00000000000E+00  0.00000000000E+00  0.11779208246E+02  0.11779208246E+02  0.00000000000E+00 0.  1.
          1   -1    0    0  503    0  0.00000000000E+00 -0.00000000000E+00 -0.12070975214E+04  0.12070975214E+04  0.00000000000E+00 0. -1.
         25    2    1    2    0    0  0.43837378211E+02  0.34348488545E+02 -0.58876672597E+03  0.60446051490E+03  0.12499888824E+03 0.  0.
          4    1    3    3  502    0 -0.16886672721E+02  0.18833782078E+02 -0.46532197211E+03  0.46601075276E+03  0.12700000000E+01 0. -1.
         -4    1    3    3    0  502  0.60724050933E+02  0.15514706467E+02 -0.12344475387E+03  0.13844976214E+03  0.12700000000E+01 0. -1.
          1    1    1    2  503    0  0.13758723279E+02 -0.36682633231E+02 -0.20031298656E+03  0.20410833063E+03  0.00000000000E+00 0. -1.
         -2    1    1    2    0  501 -0.57596101490E+02  0.23341446861E+01 -0.40623860063E+03  0.41030788413E+03  0.00000000000E+00 0.  1.
<mgrwt>
<rscale>  0 0.45783874E+02</rscale>
<asrwt>0</asrwt>
<pdfrwt beam="2">  1        1 0.18570726E+00 0.39178030E+02</pdfrwt>
<pdfrwt beam="1">  1       -2 0.18121864E-02 0.53503536E+02</pdfrwt>
<totfact> 0.83647932E+03</totfact>
</mgrwt>
</event>
<event>
 7    1  0.4251803E-004  0.7574234E+02  0.7546771E-02  0.1393606E+00
          2   -1    0    0  502    0  0.00000000000E+00  0.00000000000E+00  0.70397827608E+03  0.70397827608E+03  0.00000000000E+00 0. -1.
          3   -1    0    0  503    0 -0.00000000000E+00 -0.00000000000E+00 -0.55990141464E+03  0.55990141464E+03  0.00000000000E+00 0. -1.
         25    2    1    2    0    0 -0.19648054014E+02 -0.26252274888E+02  0.15953282900E+03  0.20530155400E+03  0.12499110601E+03 0.  0.
          4    1    3    3  501    0 -0.67358925245E+02 -0.31395506246E+02  0.12752599073E+03  0.14760553456E+03  0.12700000000E+01 0.  1.
         -4    1    3    3    0  501  0.47710871231E+02  0.51432313578E+01  0.32006838271E+02  0.57696019434E+02  0.12700000000E+01 0.  1.
          2    1    1    2  502    0  0.53892951726E+02  0.61518395407E+02  0.51721619533E+03  0.52364258415E+03  0.00000000000E+00 0. -1.
          3    1    1    2  503    0 -0.34244897712E+02 -0.35266120519E+02 -0.53267216290E+03  0.53493555257E+03  0.00000000000E+00 0. -1.
<mgrwt>
<rscale>  0 0.61018585E+02</rscale>
<asrwt>0</asrwt>
<pdfrwt beam="1">  1        2 0.10830435E+00 0.75742344E+02</pdfrwt>
<pdfrwt beam="2">  1        3 0.86138679E-01 0.49157017E+02</pdfrwt>
<totfact> 0.32714183E+01</totfact>
</mgrwt>
</event>
<event>
 7    1  0.4251803E-004  0.7362434E+02  0.7546771E-02  0.1433187E+00
          2   -1    0    0  503    0  0.00000000000E+00  0.00000000000E+00  0.12391867159E+04  0.12391867159E+04  0.00000000000E+00 0. -1.
          2   -1    0    0  502    0 -0.00000000000E+00 -0.00000000000E+00 -0.11288396404E+04  0.11288396404E+04  0.00000000000E+00 0. -1.
         25    2    1    2    0    0  0.98467254221E+02  0.20296866430E+02  0.28872553727E+03  0.33029583617E+03  0.12500056233E+03 0.  0.
          4    1    3    3  501    0  0.29265316603E+02 -0.18927627797E+02  0.45223734287E+01  0.35167863331E+02  0.12700000000E+01 0. -1.
         -4    1    3    3    0  501  0.69201937619E+02  0.39224494227E+02  0.28420316384E+03  0.29512797284E+03  0.12700000000E+01 0. -1.
          2    1    1    2  502    0 -0.34724451081E+02  0.13311028218E+02 -0.11063452446E+04  0.11069700860E+04  0.00000000000E+00 0. -1.
          2    1    1    2  503    0 -0.63742803140E+02 -0.33607894648E+02  0.92796678286E+03  0.93076043407E+03  0.00000000000E+00 0. -1.
<mgrwt>
<rscale>  0 0.52325571E+02</rscale>
<asrwt>0</asrwt>
<pdfrwt beam="1">  1        2 0.19064411E+00 0.73624341E+02</pdfrwt>
<pdfrwt beam="2">  1        2 0.17366764E+00 0.37188318E+02</pdfrwt>
<totfact> 0.79913315E+01</totfact>
</mgrwt>
</event>
<event>
 7    1  0.4251803E-004  0.4558962E+02  0.7546771E-02  0.1505706E+00
          2   -1    0    0  502    0  0.00000000000E+00  0.00000000000E+00  0.23134011020E+03  0.23134011020E+03  0.00000000000E+00 0. -1.
          3   -1    0    0  503    0 -0.00000000000E+00 -0.00000000000E+00 -0.26138019431E+03  0.26138019431E+03  0.00000000000E+00 0.  1.
         25    2    1    2    0    0 -0.16625447551E+02  0.93505778202E+01 -0.61523778433E+00  0.12650331435E+03  0.12505547254E+03 0.  0.
          4    1    3    3  501    0 -0.17669023486E+02  0.45497322848E+02 -0.46935302835E+02  0.67725448167E+02  0.12700000000E+01 0. -1.
         -4    1    3    3    0  501  0.10435759351E+01 -0.36146745028E+02  0.46320065050E+02  0.58777866184E+02  0.12700000000E+01 0. -1.
          2    1    1    2  502    0 -0.28943927830E+02 -0.20897010039E+02  0.16365160235E+03  0.16750009832E+03  0.00000000000E+00 0. -1.
          3    1    1    2  503    0  0.45569375381E+02  0.11546432219E+02 -0.19307644868E+03  0.19871689184E+03  0.00000000000E+00 0.  1.
<mgrwt>
<rscale>  0 0.40342471E+02</rscale>
<asrwt>0</asrwt>
<pdfrwt beam="1">  1        2 0.35590786E-01 0.35699244E+02</pdfrwt>
<pdfrwt beam="2">  1        3 0.40212338E-01 0.45589621E+02</pdfrwt>
<totfact> 0.48175416E+02</totfact>
</mgrwt>
</event>
<event>
 7    1  0.4251803E-004  0.1925024E+03  0.7546771E-02  0.1349859E+00
          2   -1    0    0  502    0  0.00000000000E+00  0.00000000000E+00  0.18272490741E+04  0.18272490741E+04  0.00000000000E+00 0. -1.
          1   -1    0    0  503    0 -0.00000000000E+00 -0.00000000000E+00 -0.86848787219E+03  0.86848787219E+03  0.00000000000E+00 0.  1.
         25    2    1    2    0    0 -0.10604263672E+03 -0.15522857312E+03 -0.26268669675E+03  0.34636492712E+03  0.12499364535E+03 0.  0.
          4    1    3    3  501    0 -0.40105762354E+02 -0.62293494251E+02 -0.17717671916E+02  0.76187140634E+02  0.12700000000E+01 0. -1.
         -4    1    3    3    0  501 -0.65936874368E+02 -0.92935078866E+02 -0.24496902483E+03  0.27017778649E+03  0.12700000000E+01 0. -1.
          2    1    1    2  502    0  0.84707008654E+02  0.17298581837E+03  0.17798694129E+04  0.17902610138E+04  0.00000000000E+00 0. -1.
          1    1    1    2  503    0  0.21335628067E+02 -0.17757245256E+02 -0.55842151421E+03  0.55911100536E+03  0.00000000000E+00 0.  1.
<mgrwt>
<rscale>  0 0.73099643E+02</rscale>
<asrwt>0</asrwt>
<pdfrwt beam="1">  1        2 0.28111524E+00 0.19250237E+03</pdfrwt>
<pdfrwt beam="2">  1        1 0.13361352E+00 0.27758400E+02</pdfrwt>
<totfact> 0.29905893E+01</totfact>
</mgrwt>
</event>
<event>
 7    1  0.4251803E-004  0.5461683E+02  0.7546771E-02  0.1445088E+00
         -1   -1    0    0    0  501 -0.00000000000E+00  0.00000000000E+00  0.75098909377E+02  0.75098909377E+02  0.00000000000E+00 0.  1.
          1   -1    0    0  503    0  0.00000000000E+00 -0.00000000000E+00 -0.52797255540E+03  0.52797255540E+03  0.00000000000E+00 0. -1.
         25    2    1    2    0    0 -0.67049387023E+02 -0.31417787447E+01 -0.76332331004E+02  0.16111844544E+03  0.12500815026E+03 0.  0.
          4    1    3    3  502    0 -0.98639313086E+02 -0.24938950036E+02 -0.66242039410E+02  0.12141369775E+03  0.12700000000E+01 0.  1.
         -4    1    3    3    0  502  0.31589926063E+02  0.21797171291E+02 -0.10090291593E+02  0.39704747693E+02  0.12700000000E+01 0.  1.
          1    1    1    2  503    0  0.28383161003E+02 -0.36020797459E+02 -0.38372152532E+03  0.38645221007E+03  0.00000000000E+00 0. -1.
         -1    1    1    2    0  501  0.38666226020E+02  0.39162576204E+02  0.71802102950E+01  0.55500809268E+02  0.00000000000E+00 0.  1.
<mgrwt>
<rscale>  0 0.50047029E+02</rscale>
<asrwt>0</asrwt>
<pdfrwt beam="2">  1        1 0.81226545E-01 0.45859587E+02</pdfrwt>
<pdfrwt beam="1">  1       -1 0.11553679E-01 0.54616827E+02</pdfrwt>
<totfact> 0.19484228E+03</totfact>
</mgrwt>
</event>
<event>
 7    1  0.4251803E-004  0.1012243E+03  0.7546771E-02  0.1459813E+00
          2   -1    0    0  502    0  0.00000000000E+00  0.00000000000E+00  0.22305576840E+04  0.22305576840E+04  0.00000000000E+00 0.  1.
          1   -1    0    0  503    0 -0.00000000000E+00 -0.00000000000E+00 -0.17425509054E+04  0.17425509054E+04  0.00000000000E+00 0. -1.
         25    2    1    2    0    0 -0.26809975491E+02  0.85499057282E+02  0.64449987850E+03  0.66259835681E+03  0.12501050146E+03 0.  0.
          4    1    3    3  501    0  0.35179376908E+02  0.80433581192E+02  0.30239166162E+03  0.31488010331E+03  0.12700000000E+01 0.  1.
         -4    1    3    3    0  501 -0.61989352400E+02  0.50654760902E+01  0.34210821688E+03  0.34771825350E+03  0.12700000000E+01 0.  1.
          2    1    1    2  502    0  0.16194479661E+02  0.15197480612E+02  0.15754516566E+04  0.15756081832E+04  0.00000000000E+00 0.  1.
          1    1    1    2  503    0  0.10615495830E+02 -0.10069653789E+03 -0.17319447565E+04  0.17349020494E+04  0.00000000000E+00 0. -1.
<mgrwt>
<rscale>  0 0.47413661E+02</rscale>
<asrwt>0</asrwt>
<pdfrwt beam="1">  1        2 0.34316272E+00 0.22208660E+02</pdfrwt>
<pdfrwt beam="2">  1        1 0.26808476E+00 0.10122426E+03</pdfrwt>
<totfact> 0.58310918E+00</totfact>
</mgrwt>
</event>
<event>
 7    1  0.4251803E-004  0.8553114E+02  0.7546771E-02  0.1358110E+00
          2   -1    0    0  502    0  0.00000000000E+00  0.00000000000E+00  0.14382761589E+04  0.14382761589E+04  0.00000000000E+00 0. -1.
          2   -1    0    0  503    0 -0.00000000000E+00 -0.00000000000E+00 -0.12277229036E+03  0.12277229036E+03  0.00000000000E+00 0. -1.
         25    2    1    2    0    0 -0.10386706243E+03  0.73022451150E+02  0.18877488168E+03  0.25957902667E+03  0.12499868041E+03 0.  0.
          4    1    3    3  501    0 -0.77837688528E+02  0.20046455043E+02  0.18346263475E+03  0.20030156606E+03  0.12700000000E+01 0.  1.
         -4    1    3    3    0  501 -0.26029373897E+02  0.52975996107E+02  0.53122469307E+01  0.59277460611E+02  0.12700000000E+01 0.  1.
          2    1    1    2  502    0  0.58093409547E+02 -0.43084476589E+01  0.11937234633E+04  0.11951439720E+04  0.00000000000E+00 0. -1.
          2    1    1    2  503    0  0.45773652878E+02 -0.68714003491E+02 -0.66994476433E+02  0.10632545060E+03  0.00000000000E+00 0. -1.
<mgrwt>
<rscale>  0 0.70586415E+02</rscale>
<asrwt>0</asrwt>
<pdfrwt beam="1">  1        2 0.22127324E+00 0.58252957E+02</pdfrwt>
<pdfrwt beam="2">  1        2 0.18888046E-01 0.85531143E+02</pdfrwt>
<totfact> 0.73130660E+02</totfact>
</mgrwt>
</event>
<event>
 7    1  0.4251803E-004  0.1461900E+03  0.7546771E-02  0.1216164E+00
         -3   -1    0    0    0  501 -0.00000000000E+00  0.00000000000E+00  0.20496660754E+03  0.20496660754E+03  0.00000000000E+00 0.  1.
          2   -1    0    0  503    0  0.00000000000E+00 -0.00000000000E+00 -0.12828756866E+04  0.12828756866E+04  0.00000000000E+00 0. -1.
         25    2    1    2    0    0  0.20625269976E+03  0.84167130781E+01 -0.73493554736E+03  0.77354183757E+03  0.12500279392E+03 0.  0.
          4    1    3    3  502    0  0.41953723692E+02 -0.43078942566E+01 -0.37860658332E+03  0.38095043079E+03  0.12700000000E+01 0. -1.
         -4    1    3    3    0  502  0.16429897606E+03  0.12724607335E+02 -0.35632896404E+03  0.39259140678E+03  0.12700000000E+01 0. -1.
          2    1    1    2  503    0 -0.10701427991E+03  0.75721248729E+02 -0.49623654626E+03  0.51326062917E+03  0.00000000000E+00 0. -1.
         -3    1    1    2    0  501 -0.99238419850E+02 -0.84137961807E+02  0.15326301453E+03  0.20103982743E+03  0.00000000000E+00 0.  1.
<mgrwt>
<rscale>  0 0.13791349E+03</rscale>
<asrwt>0</asrwt>
<pdfrwt beam="2">  1        2 0.19736548E+00 0.14618998E+03</pdfrwt>
<pdfrwt beam="1">  1       -3 0.31533325E-01 0.13010557E+03</pdfrwt>
<totfact> 0.11024136E+02</totfact>
</mgrwt>
</event>
<event>
 7    1  0.4251803E-004  0.6399475E+02  0.7546771E-02  0.1415276E+00
          1   -1    0    0  503    0  0.00000000000E+00  0.00000000000E+00  0.74268042913E+03  0.74268042913E+03  0.00000000000E+00 0. -1.
         -2   -1    0    0    0  501 -0.00000000000E+00 -0.00000000000E+00 -0.43431525981E+02  0.43431525981E+02  0.00000000000E+00 0.  1.
         25    2    1    2    0    0  0.24354887689E+02  0.76397625689E+02  0.22549913075E+03  0.27000805079E+03  0.12499892701E+03 0.  0.
          4    1    3    3  502    0 -0.34817923040E+02  0.47174941642E+02  0.34767124712E+02  0.68177186393E+02  0.12700000000E+01 0.  1.
         -4    1    3    3    0  502  0.59172810728E+02  0.29222684048E+02  0.19073200604E+03  0.20183086439E+03  0.12700000000E+01 0.  1.
          1    1    1    2  503    0  0.27878880499E+02 -0.40370882632E+02  0.44279187204E+03  0.44550160727E+03  0.00000000000E+00 0. -1.
         -2    1    1    2    0  501 -0.52233768188E+02 -0.36026743057E+02  0.30957900359E+02  0.70602297052E+02  0.00000000000E+00 0.  1.
<mgrwt>
<rscale>  0 0.56032890E+02</rscale>
<asrwt>0</asrwt>
<pdfrwt beam="1">  1        1 0.11425852E+00 0.49061595E+02</pdfrwt>
<pdfrwt beam="2">  1       -2 0.66817738E-02 0.63994755E+02</pdfrwt>
<totfact> 0.27367536E+03</totfact>
</mgrwt>
</event>
<event>
 7    1  0.4251803E-004  0.3486854E+02  0.7546771E-02  0.1562191E+00
          1   -1    0    0  503    0  0.00000000000E+00  0.00000000000E+00  0.35547747775E+03  0.35547747775E+03  0.00000000000E+00 0. -1.
         -1   -1    0    0    0  501 -0.00000000000E+00 -0.00000000000E+00 -0.11087625271E+03  0.11087625271E+03  0.00000000000E+00 0.  1.
         25    2    1    2    0    0  0.30600698157E+02  0.27293572615E+02 -0.29760346152E+02  0.13488421812E+03  0.12500692885E+03 0.  0.
          4    1    3    3  502    0  0.68208440226E+02  0.43946973317E+02  0.45926021446E+01  0.81279964790E+02  0.12700000000E+01 0.  1.
         -4    1    3    3    0  502 -0.37607742069E+02 -0.16653400702E+02 -0.34352948297E+02  0.53604253331E+02  0.12700000000E+01 0.  1.
          1    1    1    2  503    0  0.51925576866E+01 -0.31794054060E+02  0.29026304324E+03  0.29204530265E+03  0.00000000000E+00 0. -1.
         -1    1    1    2    0  501 -0.35793255844E+02  0.45004814452E+01 -0.15901472041E+02  0.39424209697E+02  0.00000000000E+00 0.  1.
<mgrwt>
<rscale>  0 0.33515666E+02</rscale>
<asrwt>0</asrwt>
<pdfrwt beam="1">  1        1 0.54688842E-01 0.32215284E+02</pdfrwt>
<pdfrwt beam="2">  1       -1 0.17057885E-01 0.34868538E+02</pdfrwt>
<totfact> 0.17049075E+03</totfact>
</mgrwt>
</event>
<event>
 7    1  0.4251803E-004  0.6073426E+02  0.7546771E-02  0.1419018E+00
          1   -1    0    0  502    0  0.00000000000E+00  0.00000000000E+00  0.41032028774E+04  0.41032028774E+04  0.00000000000E+00 0. -1.
          3   -1    0    0  503    0 -0.00000000000E+00 -0.00000000000E+00 -0.49743707615E+03  0.49743707615E+03  0.00000000000E+00 0. -1.
         25    2    1    2    0    0  0.19457932173E+02 -0.10837325177E+03  0.73442355854E+03  0.75307825927E+03  0.12500211366E+03 0.  0.
          4    1    3    3  501    0  0.10283660518E+02 -0.13009814442E+03  0.47567315659E+03  0.49325231439E+03  0.12700000000E+01 0. -1.
         -4    1    3    3    0  501  0.91742716556E+01  0.21724892645E+02  0.25875040195E+03  0.25982594488E+03  0.12700000000E+01 0. -1.
          1    1    1    2  502    0 -0.25929023371E+01  0.50156052770E+02  0.33573818526E+04  0.33577574744E+04  0.00000000000E+00 0. -1.
          3    1    1    2  503    0 -0.16865029836E+02  0.58217199002E+02 -0.48603960985E+03  0.48980421990E+03  0.00000000000E+00 0. -1.
<mgrwt>
<rscale>  0 0.55229148E+02</rscale>
<asrwt>0</asrwt>
<pdfrwt beam="1">  1        1 0.63126196E+00 0.50223030E+02</pdfrwt>
<pdfrwt beam="2">  1        3 0.76528784E-01 0.60734264E+02</pdfrwt>
<totfact> 0.12908607E-01</totfact>
</mgrwt>
</event>
<event>
 7    1  0.4539005E-004  0.8190308E+02  0.7546771E-02  0.1377528E+00
          2   -1    0    0  503    0  0.00000000000E+00  0.00000000000E+00  0.25660464995E+04  0.25660464995E+04  0.00000000000E+00 0. -1.
         -1   -1    0    0    0  501 -0.00000000000E+00 -0.00000000000E+00 -0.86586308258E+01  0.86586308258E+01  0.00000000000E+00 0.  1.
         25    2    1    2    0    0 -0.90164885300E+02 -0.52615062712E+02  0.12165720906E+04  0.12274233219E+04  0.12498923161E+03 0.  0.
          4    1    3    3  502    0 -0.49247577806E+02 -0.31589112207E+02  0.11074316408E+04  0.11089768473E+04  0.12700000000E+01 0.  1.
         -4    1    3    3    0  502 -0.40917307495E+02 -0.21025950505E+02  0.10914044982E+03  0.11844647455E+03  0.12700000000E+01 0.  1.
          2    1    1    2  503    0  0.39749387189E+02  0.64392215685E+02  0.61830926620E+03  0.62292272385E+03  0.00000000000E+00 0. -1.
         -1    1    1    2    0  501  0.50415498111E+02 -0.11777152972E+02  0.72250651184E+03  0.72435908459E+03  0.00000000000E+00 0.  1.
<mgrwt>
<rscale>  0 0.65117991E+02</rscale>
<asrwt>0</asrwt>
<pdfrwt beam="1">  1        2 0.39477578E+00 0.81903083E+02</pdfrwt>
<pdfrwt beam="2">  1       -1 0.13320991E-02 0.51772809E+02</pdfrwt>
<totfact> 0.48218495E+03</totfact>
</mgrwt>
</event>
<event>
 7    1  0.4251803E-004  0.3818423E+02  0.7546771E-02  0.1547735E+00
          2   -1    0    0  503    0  0.00000000000E+00  0.00000000000E+00  0.30054489934E+02  0.30054489934E+02  0.00000000000E+00 0. -1.
         -1   -1    0    0    0  501 -0.00000000000E+00 -0.00000000000E+00 -0.36808905704E+03  0.36808905704E+03  0.00000000000E+00 0.  1.
         25    2    1    2    0    0 -0.81164221634E+01 -0.31421764468E+02 -0.21431220275E+03  0.25022724762E+03  0.12502300433E+03 0.  0.
          4    1    3    3  502    0 -0.37613197908E+01  0.21743830146E+02  0.65161785345E+01  0.23043766157E+02  0.12700000000E+01 0.  1.
         -4    1    3    3    0  502 -0.43551023726E+01 -0.53165594614E+02 -0.22082838129E+03  0.22718348146E+03  0.12700000000E+01 0.  1.
          2    1    1    2  503    0  0.32129873006E+02 -0.29011991222E+01 -0.25457277857E+02  0.41095239282E+02  0.00000000000E+00 0. -1.
         -1    1    1    2    0  501 -0.24013450843E+02  0.34322963590E+02 -0.98265086501E+02  0.10682106008E+03  0.00000000000E+00 0.  1.
<mgrwt>
<rscale>  0 0.35097662E+02</rscale>
<asrwt>0</asrwt>
<pdfrwt beam="1">  1        2 0.46237678E-02 0.32260590E+02</pdfrwt>
<pdfrwt beam="2">  1       -1 0.56629084E-01 0.38184233E+02</pdfrwt>
<totfact> 0.53662393E+03</totfact>
</mgrwt>
</event>
<event>
 7    1  0.4251803E-004  0.1215318E+03  0.7546771E-02  0.1316056E+00
          2   -1    0    0  502    0  0.00000000000E+00  0.00000000000E+00  0.64011577774E+03  0.64011577774E+03  0.00000000000E+00 0. -1.
          1   -1    0    0  503    0 -0.00000000000E+00 -0.00000000000E+00 -0.70392233017E+02  0.70392233017E+02  0.00000000000E+00 0. -1.
         25    2    1    2    0    0 -0.77134627662E+02  0.60245718479E+02  0.16104264767E+03  0.22613213051E+03  0.12498683412E+03 0.  0.
          4    1    3    3  501    0 -0.10013307274E+03  0.33927079774E+02  0.15919592496E+03  0.19110895955E+03  0.12700000000E+01 0.  1.
         -4    1    3    3    0  501  0.22998445079E+02  0.26318638705E+02  0.18467227108E+01  0.35023170960E+02  0.12700000000E+01 0.  1.
          2    1    1    2  502    0  0.51831938354E+00  0.59115040949E+02  0.29978758849E+03  0.30556088581E+03  0.00000000000E+00 0. -1.
          1    1    1    2  503    0  0.76616308279E+02 -0.11936075943E+03  0.10889330856E+03  0.17881499443E+03  0.00000000000E+00 0. -1.
<mgrwt>
<rscale>  0 0.84762223E+02</rscale>
<asrwt>0</asrwt>
<pdfrwt beam="1">  1        2 0.98479347E-01 0.59117313E+02</pdfrwt>
<pdfrwt beam="2">  1        1 0.10829575E-01 0.12153182E+03</pdfrwt>
<totfact> 0.36297770E+03</totfact>
</mgrwt>
</event>
<event>
 7    1  0.4251803E-004  0.1400330E+03  0.7546771E-02  0.1305085E+00
         -1   -1    0    0    0  501 -0.00000000000E+00  0.00000000000E+00  0.10134015761E+04  0.10134015761E+04  0.00000000000E+00 0.  1.
          2   -1    0    0  503    0  0.00000000000E+00 -0.00000000000E+00 -0.87581100374E+02  0.87581100374E+02  0.00000000000E+00 0. -1.
         25    2    1    2    0    0 -0.99311154441E+02  0.68202282270E+02  0.21921937598E+03  0.27963104823E+03  0.12498852597E+03 0.  0.
          4    1    3    3  502    0 -0.84084310194E+02 -0.11000316372E+02  0.15436712297E+03  0.17613063258E+03  0.12700000000E+01 0.  1.
         -4    1    3    3    0  502 -0.15226844248E+02  0.79202598642E+02  0.64852253016E+02  0.10350041564E+03  0.12700000000E+01 0.  1.
          2    1    1    2  503    0 -0.43560875195E+02 -0.36251549463E+02 -0.34220649965E+02  0.66202549575E+02  0.00000000000E+00 0. -1.
         -1    1    1    2    0  501  0.14287202964E+03 -0.31950732807E+02  0.74082174974E+03  0.75514907870E+03  0.00000000000E+00 0.  1.
<mgrwt>
<rscale>  0 0.89084021E+02</rscale>
<asrwt>0</asrwt>
<pdfrwt beam="2">  1        2 0.13474016E-01 0.56672080E+02</pdfrwt>
<pdfrwt beam="1">  1       -1 0.15590793E+00 0.14003303E+03</pdfrwt>
<totfact> 0.16742373E+02</totfact>
</mgrwt>
</event>
<event>
 7    1  0.4251803E-004  0.1573049E+03  0.7546771E-02  0.1282573E+00
          1   -1    0    0  503    0 -0.00000000000E+00  0.00000000000E+00  0.43099935727E+03  0.43099935727E+03  0.00000000000E+00 0. -1.
          2   -1    0    0  502    0  0.00000000000E+00 -0.00000000000E+00 -0.23982517028E+04  0.23982517028E+04  0.00000000000E+00 0. -1.
         25    2    1    2    0    0  0.63884599003E+02 -0.89601209385E+02 -0.51903803462E+03  0.54510082106E+03  0.12499922010E+03 0.  0.
          4    1    3    3  501    0  0.53925144923E+02  0.18781434782E+02 -0.20066573456E+03  0.20863607903E+03  0.12700000000E+01 0.  1.
         -4    1    3    3    0  501  0.99594540801E+01 -0.10838264417E+03 -0.31837230006E+03  0.33646474203E+03  0.12700000000E+01 0.  1.
          2    1    1    2  502    0 -0.10795031781E+03  0.13351580607E+03 -0.18598910714E+04  0.18677993840E+04  0.00000000000E+00 0. -1.
          1    1    1    2  503    0  0.44065718809E+02 -0.43914596685E+02  0.41167676044E+03  0.41635085500E+03  0.00000000000E+00 0. -1.
<mgrwt>
<rscale>  0 0.98925136E+02</rscale>
<asrwt>0</asrwt>
<pdfrwt beam="2">  1        2 0.36896180E+00 0.15730486E+03</pdfrwt>
<pdfrwt beam="1">  1        1 0.66307593E-01 0.62211569E+02</pdfrwt>
<totfact> 0.37611459E+01</totfact>
</mgrwt>
</event>
<event>
 7    1  0.4251803E-004  0.4922493E+03  0.7546771E-02  0.1015822E+00
          2   -1    0    0  503    0  0.00000000000E+00  0.00000000000E+00  0.10076663017E+04  0.10076663017E+04  0.00000000000E+00 0. -1.
         -2   -1    0    0    0  501 -0.00000000000E+00 -0.00000000000E+00 -0.60116464624E+02  0.60116464624E+02  0.00000000000E+00 0.  1.
         25    2    1    2    0    0  0.12204679144E+02 -0.21313876997E+03  0.35625282771E+03  0.43372526287E+03  0.12499774776E+03 0.  0.
          4    1    3    3  502    0  0.20709041907E+02 -0.20859957107E+02  0.14494140275E+03  0.14789734737E+03  0.12700000000E+01 0.  1.
         -4    1    3    3    0  502 -0.85043627626E+01 -0.19227881287E+03  0.21131142496E+03  0.28582791551E+03  0.12700000000E+01 0.  1.
          2    1    1    2  503    0 -0.11044954783E+02  0.15989329554E+03  0.52555164208E+03  0.54944734550E+03  0.00000000000E+00 0. -1.
         -2    1    1    2    0  501 -0.11597243619E+01  0.53245474439E+02  0.65745367280E+02  0.84610157946E+02  0.00000000000E+00 0.  1.
<mgrwt>
<rscale>  0 0.49224927E+03</rscale>
<asrwt>0</asrwt>
<pdfrwt beam="1">  1        2 0.15502557E+00 0.49224927E+03</pdfrwt>
<pdfrwt beam="2">  1       -2 0.92486876E-02 0.49224927E+03</pdfrwt>
<totfact> 0.19523173E+03</totfact>
</mgrwt>
</event>
<event>
 7    1  0.4251803E-004  0.1205716E+03  0.7546771E-02  0.1365668E+00
         -2   -1    0    0    0  501 -0.00000000000E+00  0.00000000000E+00  0.21157970598E+03  0.21157970598E+03  0.00000000000E+00 0.  1.
          2   -1    0    0  503    0  0.00000000000E+00 -0.00000000000E+00 -0.16207958554E+03  0.16207958554E+03  0.00000000000E+00 0. -1.
         25    2    1    2    0    0 -0.21822623320E+02  0.13351245233E+03  0.94929041095E+02  0.20721576188E+03  0.12500018925E+03 0.  0.
          4    1    3    3  502    0  0.49798888148E+02  0.48785202048E+02  0.17403984448E+02  0.71864015851E+02  0.12700000000E+01 0. -1.
         -4    1    3    3    0  502 -0.71621511468E+02  0.84727250278E+02  0.77525056646E+02  0.13535174603E+03  0.12700000000E+01 0. -1.
          2    1    1    2  503    0  0.49846195859E+02 -0.10669547012E+03 -0.48872859669E+02  0.12750342347E+03  0.00000000000E+00 0. -1.
         -2    1    1    2    0  501 -0.28023572538E+02 -0.26816982210E+02  0.34439390197E+01  0.38940106171E+02  0.00000000000E+00 0.  1.
<mgrwt>
<rscale>  0 0.68386206E+02</rscale>
<asrwt>0</asrwt>
<pdfrwt beam="2">  1        2 0.24935321E-01 0.12057162E+03</pdfrwt>
<pdfrwt beam="1">  1       -2 0.32550724E-01 0.38787513E+02</pdfrwt>
<totfact> 0.17916934E+03</totfact>
</mgrwt>
</event>
<event>
 7    1  0.4251803E-004  0.1147096E+03  0.7546771E-02  0.1299612E+00
         -1   -1    0    0    0  501 -0.00000000000E+00  0.00000000000E+00  0.71768387535E+03  0.71768387535E+03  0.00000000000E+00 0.  1.
          1   -1    0    0  503    0  0.00000000000E+00 -0.00000000000E+00 -0.35839453844E+03  0.35839453844E+03  0.00000000000E+00 0. -1.
         25    2    1    2    0    0  0.11267972017E+03 -0.86581632114E+02  0.11352961760E+02  0.18959420701E+03  0.12499590087E+03 0.  0.
          4    1    3    3  502    0  0.13598772229E+03 -0.72495458290E+02  0.29412920574E+02  0.15689163420E+03  0.12700000000E+01 0.  1.
         -4    1    3    3    0  502 -0.23308002121E+02 -0.14086173824E+02 -0.18059958814E+02  0.32702572808E+02  0.12700000000E+01 0.  1.
          1    1    1    2  503    0 -0.42376355323E+02  0.10528722967E+03 -0.25503044528E+03  0.27914455796E+03  0.00000000000E+00 0. -1.
         -1    1    1    2    0  501 -0.70303364847E+02 -0.18705597554E+02  0.60296682043E+03  0.60733964882E+03  0.00000000000E+00 0.  1.
<mgrwt>
<rscale>  0 0.91351211E+02</rscale>
<asrwt>0</asrwt>
<pdfrwt beam="2">  1        1 0.55137621E-01 0.11470959E+03</pdfrwt>
<pdfrwt beam="1">  1       -1 0.11041290E+00 0.72749313E+02</pdfrwt>
<totfact> 0.60958728E+01</totfact>
</mgrwt>
</event>
<event>
 7    1  0.4251803E-004  0.7341710E+02  0.7546771E-02  0.1423600E+00
         -1   -1    0    0    0  501 -0.00000000000E+00  0.00000000000E+00  0.25520146189E+03  0.25520146189E+03  0.00000000000E+00 0.  1.
          2   -1    0    0  503    0  0.00000000000E+00 -0.00000000000E+00 -0.18918797526E+03  0.18918797526E+03  0.00000000000E+00 0. -1.
         25    2    1    2    0    0  0.41262727964E+02  0.97549905622E+02  0.95236971399E+02  0.18949964843E+03  0.12498575610E+03 0.  0.
          4    1    3    3  502    0 -0.43731729190E+02  0.46576793923E+02  0.46632735713E+02  0.79108070449E+02  0.12700000000E+01 0.  1.
         -4    1    3    3    0  502  0.84994457154E+02  0.50973111699E+02  0.48604235686E+02  0.11039157798E+03  0.12700000000E+01 0.  1.
          2    1    1    2  503    0 -0.20998210630E+02 -0.34175930736E+02 -0.12892805379E+03  0.13502356145E+03  0.00000000000E+00 0. -1.
         -1    1    1    2    0  501 -0.20264517333E+02 -0.63373974886E+02  0.99704569026E+02  0.11986622727E+03  0.00000000000E+00 0.  1.
<mgrwt>
<rscale>  0 0.54266544E+02</rscale>
<asrwt>0</asrwt>
<pdfrwt beam="2">  1        2 0.29105842E-01 0.40111334E+02</pdfrwt>
<pdfrwt beam="1">  1       -1 0.39261763E-01 0.73417100E+02</pdfrwt>
<totfact> 0.12555165E+03</totfact>
</mgrwt>
</event>
<event>
 7    1  0.4251803E-004  0.1216631E+03  0.7546771E-02  0.1400298E+00
          2   -1    0    0  503    0  0.00000000000E+00  0.00000000000E+00  0.21264999570E+04  0.21264999570E+04  0.00000000000E+00 0.  1.
         -2   -1    0    0    0  501 -0.00000000000E+00 -0.00000000000E+00 -0.72463204858E+03  0.72463204858E+03  0.00000000000E+00 0.  1.
         25    2    1    2    0    0 -0.53864476400E+02  0.12889212666E+03 -0.11292585674E+03  0.21884993634E+03  0.12501393275E+03 0.  0.
          4    1    3    3  502    0 -0.60962233435E+02  0.16622333942E+02 -0.79354259781E+02  0.10144657380E+03  0.12700000000E+01 0.  1.
         -4    1    3    3    0  502  0.70977570353E+01  0.11226979272E+03 -0.33571596961E+02  0.11740336254E+03  0.12700000000E+01 0.  1.
          2    1    1    2  503    0 -0.95525757902E+01 -0.27399499855E+02  0.20670265852E+04  0.20672302456E+04  0.00000000000E+00 0.  1.
         -2    1    1    2    0  501  0.63417052190E+02 -0.10149262681E+03 -0.55223282009E+03  0.56505182363E+03  0.00000000000E+00 0.  1.
<mgrwt>
<rscale>  0 0.59416275E+02</rscale>
<asrwt>0</asrwt>
<pdfrwt beam="1">  1        2 0.32715384E+00 0.29016966E+02</pdfrwt>
<pdfrwt beam="2">  1       -2 0.11148185E+00 0.12166309E+03</pdfrwt>
<totfact> 0.57578697E+00</totfact>
</mgrwt>
</event>
<event>
 7    1  0.4251803E-004  0.1310407E+03  0.7546771E-02  0.1294507E+00
          1   -1    0    0  502    0  0.00000000000E+00  0.00000000000E+00  0.18115502272E+03  0.18115502272E+03  0.00000000000E+00 0. -1.
          1   -1    0    0  503    0 -0.00000000000E+00 -0.00000000000E+00 -0.21188706405E+04  0.21188706405E+04  0.00000000000E+00 0. -1.
         25    2    1    2    0    0 -0.33943292817E+02  0.80191992213E+02 -0.66078327770E+03  0.67811768661E+03  0.12500461616E+03 0.  0.
          4    1    3    3  501    0 -0.70327067409E+02  0.14490198950E+02 -0.41307080272E+03  0.41926717405E+03  0.12700000000E+01 0. -1.
         -4    1    3    3    0  501  0.36383774591E+02  0.65701793263E+02 -0.24771247498E+03  0.25885051256E+03  0.12700000000E+01 0. -1.
          1    1    1    2  502    0 -0.45325078072E+02  0.49023522145E+02  0.16189245740E+03  0.17511949117E+03  0.00000000000E+00 0. -1.
          1    1    1    2  503    0  0.79268370890E+02 -0.12921551436E+03 -0.14388247974E+04  0.14467884854E+04  0.00000000000E+00 0. -1.
<mgrwt>
<rscale>  0 0.93536260E+02</rscale>
<asrwt>0</asrwt>
<pdfrwt beam="1">  1        1 0.27870004E-01 0.66765773E+02</pdfrwt>
<pdfrwt beam="2">  1        1 0.32598010E+00 0.13104067E+03</pdfrwt>
<totfact> 0.59887596E+01</totfact>
</mgrwt>
</event>
<event>
 7    1  0.4251803E-004  0.8894039E+02  0.7546771E-02  0.1374827E+00
         -2   -1    0    0    0  501 -0.00000000000E+00  0.00000000000E+00  0.12985928262E+03  0.12985928262E+03  0.00000000000E+00 0.  1.
          2   -1    0    0  503    0  0.00000000000E+00 -0.00000000000E+00 -0.18856667910E+03  0.18856667910E+03  0.00000000000E+00 0. -1.
         25    2    1    2    0    0 -0.10589072565E+03  0.74894206079E+01  0.68470017816E+01  0.16414137226E+03  0.12500628565E+03 0.  0.
          4    1    3    3  502    0 -0.11668069826E+03 -0.33408743416E+02  0.94601595671E+01  0.12174414566E+03  0.12700000000E+01 0. -1.
         -4    1    3    3    0  502  0.10789972607E+02  0.40898164024E+02 -0.26131577855E+01  0.42397226596E+02  0.12700000000E+01 0. -1.
          2    1    1    2  503    0  0.79859539798E+02  0.33722315550E+02 -0.59551380522E+02  0.10517180033E+03  0.00000000000E+00 0.  1.
         -2    1    1    2    0  501  0.26031185857E+02 -0.41211736157E+02 -0.60030177429E+01  0.49112789131E+02  0.00000000000E+00 0. -1.
<mgrwt>
<rscale>  0 0.65843438E+02</rscale>
<asrwt>0</asrwt>
<pdfrwt beam="2">  1        2 0.29010259E-01 0.88940394E+02</pdfrwt>
<pdfrwt beam="1">  1       -2 0.19978351E-01 0.48744536E+02</pdfrwt>
<totfact> 0.35000199E+03</totfact>
</mgrwt>
</event>
<event>
 7    1  0.4251803E-004  0.1268594E+03  0.7546771E-02  0.1239575E+00
          2   -1    0    0  503    0  0.00000000000E+00  0.00000000000E+00  0.21309430959E+04  0.21309430959E+04  0.00000000000E+00 0. -1.
         -1   -1    0    0    0  501 -0.00000000000E+00 -0.00000000000E+00 -0.35347191913E+03  0.35347191913E+03  0.00000000000E+00 0.  1.
         25    2    1    2    0    0  0.16077998647E+03  0.18657668637E+02 -0.19158467428E+03  0.28022204983E+03  0.12498558774E+03 0.  0.
          4    1    3    3  502    0  0.15389230249E+03  0.26080700046E+02 -0.94220203251E+02  0.18232417087E+03  0.12700000000E+01 0. -1.
         -4    1    3    3    0  502  0.68876839737E+01 -0.74230314093E+01 -0.97364471032E+02  0.97897878962E+02  0.12700000000E+01 0. -1.
          2    1    1    2  503    0 -0.67797794777E+02 -0.96132879615E+02  0.20533404937E+04  0.20567073819E+04  0.00000000000E+00 0. -1.
         -1    1    1    2    0  501 -0.92982191691E+02  0.77475210978E+02 -0.84284642687E+02  0.14748558330E+03  0.00000000000E+00 0.  1.
<mgrwt>
<rscale>  0 0.12216034E+03</rscale>
<asrwt>0</asrwt>
<pdfrwt beam="1">  1        2 0.32783739E+00 0.11763533E+03</pdfrwt>
<pdfrwt beam="2">  1       -1 0.54380296E-01 0.12685941E+03</pdfrwt>
<totfact> 0.28413482E+01</totfact>
</mgrwt>
</event>
<event>
 7    1  0.4251803E-004  0.6886748E+02  0.7546771E-02  0.1414907E+00
          1   -1    0    0  503    0  0.00000000000E+00  0.00000000000E+00  0.19077897661E+03  0.19077897661E+03  0.00000000000E+00 0. -1.
          1   -1    0    0  502    0 -0.00000000000E+00 -0.00000000000E+00 -0.30548699036E+04  0.30548699036E+04  0.00000000000E+00 0. -1.
         25    2    1    2    0    0  0.79675272364E+02  0.44474103310E+02 -0.10000376252E+03  0.18427154212E+03  0.12501661421E+03 0.  0.
          4    1    3    3  501    0 -0.29434862348E+02 -0.85968923543E+01 -0.35238529853E+02  0.46729910826E+02  0.12700000000E+01 0. -1.
         -4    1    3    3    0  501  0.10911013471E+03  0.53070995664E+02 -0.64765232663E+02  0.13754163130E+03  0.12700000000E+01 0. -1.
          1    1    1    2  502    0 -0.36155415198E+02 -0.58488682977E+02 -0.29088005725E+04  0.29096131892E+04  0.00000000000E+00 0. -1.
          1    1    1    2  503    0 -0.43519857166E+02  0.14014579667E+02  0.14471340806E+03  0.15176414887E+03  0.00000000000E+00 0. -1.
<mgrwt>
<rscale>  0 0.56113032E+02</rscale>
<asrwt>0</asrwt>
<pdfrwt beam="1">  1        1 0.29350612E-01 0.45720744E+02</pdfrwt>
<pdfrwt beam="2">  1        1 0.46997998E+00 0.68867480E+02</pdfrwt>
<totfact> 0.15078984E+01</totfact>
</mgrwt>
</event>
<event>
 7    1  0.4251803E-004  0.4603825E+02  0.7546771E-02  0.1566010E+00
         -1   -1    0    0    0  501 -0.00000000000E+00  0.00000000000E+00  0.20042963043E+03  0.20042963043E+03  0.00000000000E+00 0.  1.
          1   -1    0    0  503    0  0.00000000000E+00 -0.00000000000E+00 -0.70424801509E+02  0.70424801509E+02  0.00000000000E+00 0. -1.
         25    2    1    2    0    0  0.21329921263E+02  0.18728797598E+02  0.27748085239E+02  0.13115248833E+03  0.12500114223E+03 0.  0.
          4    1    3    3  502    0 -0.16786874055E+02  0.37806740698E+02  0.63303152642E+02  0.75631017560E+02  0.12700000000E+01 0.  1.
         -4    1    3    3    0  502  0.38116795318E+02 -0.19077943100E+02 -0.35555067403E+02  0.55521470768E+02  0.12700000000E+01 0.  1.
          1    1    1    2  503    0  0.92277903004E+00  0.23801030590E+02 -0.30098006348E+01  0.24008321019E+02  0.00000000000E+00 0. -1.
         -1    1    1    2    0  501 -0.22252700293E+02 -0.42529828188E+02  0.10526654432E+03  0.11569362260E+03  0.00000000000E+00 0.  1.
<mgrwt>
<rscale>  0 0.33114665E+02</rscale>
<asrwt>0</asrwt>
<pdfrwt beam="2">  1        1 0.10834585E-01 0.23818912E+02</pdfrwt>
<pdfrwt beam="1">  1       -1 0.30835328E-01 0.46038251E+02</pdfrwt>
<totfact> 0.46326706E+03</totfact>
</mgrwt>
</event>
<event>
 7    1  0.4251803E-004  0.1663833E+03  0.7546771E-02  0.1241676E+00
          2   -1    0    0  503    0  0.00000000000E+00  0.00000000000E+00  0.11158772529E+03  0.11158772529E+03  0.00000000000E+00 0. -1.
          2   -1    0    0  502    0 -0.00000000000E+00 -0.00000000000E+00 -0.25841966015E+04  0.25841966015E+04  0.00000000000E+00 0. -1.
         25    2    1    2    0    0  0.11253767954E+03  0.41595827308E+02 -0.47495519658E+03  0.50557201124E+03  0.12500271046E+03 0.  0.
          4    1    3    3  501    0 -0.54685233897E+00  0.13572014366E+02 -0.26583353192E+03  0.26618335450E+03  0.12700000000E+01 0. -1.
         -4    1    3    3    0  501  0.11308453188E+03  0.28023812942E+02 -0.20912166466E+03  0.23938865674E+03  0.12700000000E+01 0. -1.
          2    1    1    2  502    0  0.62308624923E+02 -0.61858537411E+02 -0.20117196170E+04  0.20136346890E+04  0.00000000000E+00 0. -1.
          2    1    1    2  503    0 -0.17484630447E+03  0.20262710103E+02  0.14065937349E+02  0.17657762655E+03  0.00000000000E+00 0. -1.
<mgrwt>
<rscale>  0 0.12086543E+03</rscale>
<asrwt>0</asrwt>
<pdfrwt beam="1">  1        2 0.17167341E-01 0.16638325E+03</pdfrwt>
<pdfrwt beam="2">  1        2 0.39756874E+00 0.87800019E+02</pdfrwt>
<totfact> 0.21147510E+02</totfact>
</mgrwt>
</event>
<event>
 7    1  0.4251803E-004  0.1024538E+03  0.7546771E-02  0.1335517E+00
          1   -1    0    0  502    0  0.00000000000E+00  0.00000000000E+00  0.13281679511E+04  0.13281679511E+04  0.00000000000E+00 0. -1.
          1   -1    0    0  503    0 -0.00000000000E+00 -0.00000000000E+00 -0.69335596703E+02  0.69335596703E+02  0.00000000000E+00 0. -1.
         25    2    1    2    0    0  0.55749782807E+02 -0.23379871880E+02  0.58136179185E+03  0.59771309561E+03  0.12499901978E+03 0.  0.
          4    1    3    3  501    0  0.86385665514E+01  0.19105760784E+01 -0.40856689101E+01  0.98275492091E+01  0.12700000000E+01 0.  1.
         -4    1    3    3    0  501  0.47111216255E+02 -0.25290447958E+02  0.58544746076E+03  0.58788554640E+03  0.12700000000E+01 0.  1.
          1    1    1    2  502    0  0.13218159838E+02 -0.57526236927E+02  0.69019923640E+03  0.69271853852E+03  0.00000000000E+00 0. -1.
          1    1    1    2  503    0 -0.68967942645E+02  0.80906108807E+02 -0.12728673871E+02  0.10707191365E+03  0.00000000000E+00 0. -1.
<mgrwt>
<rscale>  0 0.77764836E+02</rscale>
<asrwt>0</asrwt>
<pdfrwt beam="1">  1        1 0.20433351E+00 0.59025314E+02</pdfrwt>
<pdfrwt beam="2">  1        1 0.10667016E-01 0.10245383E+03</pdfrwt>
<totfact> 0.70679449E+02</totfact>
</mgrwt>
</event>
<event>
 7    1  0.4251803E-004  0.6960485E+02  0.7546771E-02  0.1407757E+00
          2   -1    0    0  502    0  0.00000000000E+00  0.00000000000E+00  0.17880864248E+04  0.17880864248E+04  0.00000000000E+00 0. -1.
          1   -1    0    0  503    0 -0.00000000000E+00 -0.00000000000E+00 -0.66938970628E+03  0.66938970628E+03  0.00000000000E+00 0. -1.
         25    2    1    2    0    0  0.17880895524E+02  0.23983304026E+02 -0.20586486610E+03  0.24269607515E+03  0.12500446593E+03 0.  0.
          4    1    3    3  501    0 -0.55292632602E+01 -0.26334877272E+02 -0.17901714655E+03  0.18103273232E+03  0.12700000000E+01 0.  1.
         -4    1    3    3    0  501  0.23410158785E+02  0.50318181299E+02 -0.26847719548E+02  0.61663342826E+02  0.12700000000E+01 0.  1.
          2    1    1    2  502    0  0.38959915038E+02  0.27740541214E+02  0.17660273628E+04  0.17666748593E+04  0.00000000000E+00 0. -1.
          1    1    1    2  503    0 -0.56840810562E+02 -0.51723845240E+02 -0.44146577816E+03  0.44810519657E+03  0.00000000000E+00 0. -1.
<mgrwt>
<rscale>  0 0.57697350E+02</rscale>
<asrwt>0</asrwt>
<pdfrwt beam="1">  1        2 0.27509022E+00 0.47826903E+02</pdfrwt>
<pdfrwt beam="2">  1        1 0.10298303E+00 0.69604847E+02</pdfrwt>
<totfact> 0.49527000E+01</totfact>
</mgrwt>
</event>
<event>
 7    1  0.4251803E-004  0.8405416E+02  0.7546771E-02  0.1318031E+00
         -1   -1    0    0    0  501 -0.00000000000E+00  0.00000000000E+00  0.91939526723E+02  0.91939526723E+02  0.00000000000E+00 0.  1.
          2   -1    0    0  503    0  0.00000000000E+00 -0.00000000000E+00 -0.19074067703E+04  0.19074067703E+04  0.00000000000E+00 0. -1.
         25    2    1    2    0    0  0.56861171812E+01  0.74373651115E+02 -0.50313728048E+03  0.52377094808E+03  0.12500044455E+03 0.  0.
          4    1    3    3  502    0  0.51624402616E+02 -0.26418613948E+01 -0.12772368222E+03  0.13779336078E+03  0.12700000000E+01 0.  1.
         -4    1    3    3    0  502 -0.45938285435E+02  0.77015512509E+02 -0.37541359826E+03  0.38597758729E+03  0.12700000000E+01 0.  1.
          2    1    1    2  503    0 -0.81695707543E+02 -0.38489891152E+02 -0.13704256362E+04  0.13733980066E+04  0.00000000000E+00 0. -1.
         -1    1    1    2    0  501  0.76009590362E+02 -0.35883759963E+02  0.58095673059E+02  0.10217734232E+03  0.00000000000E+00 0.  1.
<mgrwt>
<rscale>  0 0.84014299E+02</rscale>
<asrwt>0</asrwt>
<pdfrwt beam="2">  1        2 0.29344719E+00 0.83974456E+02</pdfrwt>
<pdfrwt beam="1">  1       -1 0.14144543E-01 0.84054161E+02</pdfrwt>
<totfact> 0.35748666E+02</totfact>
</mgrwt>
</event>
<event>
 7    1  0.4251803E-004  0.5207644E+02  0.7546771E-02  0.1467056E+00
         -1   -1    0    0    0  501 -0.00000000000E+00  0.00000000000E+00  0.20738349111E+03  0.20738349111E+03  0.00000000000E+00 0.  1.
          1   -1    0    0  503    0  0.00000000000E+00 -0.00000000000E+00 -0.17136708938E+03  0.17136708938E+03  0.00000000000E+00 0. -1.
         25    2    1    2    0    0  0.24265529793E+02 -0.11553317522E+02 -0.98400567881E+02  0.16133808843E+03  0.12500004775E+03 0.  0.
          4    1    3    3  502    0  0.37364900380E+02  0.46578410071E+02 -0.78210908577E+02  0.98408552401E+02  0.12700000000E+01 0.  1.
         -4    1    3    3    0  502 -0.13099370586E+02 -0.58131727593E+02 -0.20189659304E+02  0.62929536034E+02  0.12700000000E+01 0.  1.
          1    1    1    2  503    0 -0.49356068335E+02 -0.34080224285E+02 -0.12736191804E+02  0.61316341626E+02  0.00000000000E+00 0. -1.
         -1    1    1    2    0  501  0.25090538541E+02  0.45633541807E+02  0.14715316142E+03  0.15609615042E+03  0.00000000000E+00 0.  1.
<mgrwt>
<rscale>  0 0.46188404E+02</rscale>
<asrwt>0</asrwt>
<pdfrwt beam="2">  1        1 0.26364168E-01 0.40966103E+02</pdfrwt>
<pdfrwt beam="1">  1       -1 0.31905152E-01 0.52076437E+02</pdfrwt>
<totfact> 0.15344531E+03</totfact>
</mgrwt>
</event>
<event>
 7    1  0.4251803E-004  0.1681023E+03  0.7546771E-02  0.1203975E+00
         -2   -1    0    0    0  501 -0.00000000000E+00  0.00000000000E+00  0.13371142497E+03  0.13371142497E+03  0.00000000000E+00 0.  1.
          1   -1    0    0  503    0  0.00000000000E+00 -0.00000000000E+00 -0.22628352491E+04  0.22628352491E+04  0.00000000000E+00 0. -1.
         25    2    1    2    0    0  0.29346269680E+02 -0.10558594067E+03 -0.10217263480E+03  0.19511905893E+03  0.12499042141E+03 0.  0.
          4    1    3    3  502    0  0.54534221310E+02 -0.10639209164E+03 -0.11579556381E+03  0.16644363597E+03  0.12700000000E+01 0. -1.
         -4    1    3    3    0  502 -0.25187951629E+02  0.80615097748E+00  0.13622929010E+02  0.28675422952E+02  0.12700000000E+01 0. -1.
          1    1    1    2  503    0 -0.20498372207E+02 -0.12722980731E+03 -0.19526282768E+04  0.19568762850E+04  0.00000000000E+00 0. -1.
         -2    1    1    2    0  501 -0.88478974736E+01  0.23281574797E+03 -0.74322912535E+02  0.24455133024E+03  0.00000000000E+00 0.  1.
<mgrwt>
<rscale>  0 0.14718502E+03</rscale>
<asrwt>0</asrwt>
<pdfrwt beam="2">  1        1 0.34812849E+00 0.12887051E+03</pdfrwt>
<pdfrwt beam="1">  1       -2 0.20570989E-01 0.16810231E+03</pdfrwt>
<totfact> 0.43688664E+01</totfact>
</mgrwt>
</event>
<event>
 7    1  0.4251803E-004  0.1085913E+03  0.7546771E-02  0.1462334E+00
          1   -1    0    0  503    0  0.00000000000E+00  0.00000000000E+00  0.73378275316E+02  0.73378275316E+02  0.00000000000E+00 0. -1.
          1   -1    0    0  502    0 -0.00000000000E+00 -0.00000000000E+00 -0.34528545172E+03  0.34528545172E+03  0.00000000000E+00 0. -1.
         25    2    1    2    0    0  0.10689411081E+03 -0.30548222392E+02 -0.22962064038E+03  0.28409498678E+03  0.12499911282E+03 0.  0.
          4    1    3    3  501    0  0.80955921694E+02 -0.67777391906E+02 -0.95030291888E+02  0.14205634582E+03  0.12700000000E+01 0.  1.
         -4    1    3    3    0  501  0.25938189113E+02  0.37229169514E+02 -0.13459034850E+03  0.14203864096E+03  0.12700000000E+01 0.  1.
          1    1    1    2  502    0 -0.95152361993E+02  0.47140821743E+02 -0.42128709136E+02  0.11424122374E+03  0.00000000000E+00 0. -1.
          1    1    1    2  503    0 -0.11741748814E+02 -0.16592599352E+02 -0.15782687969E+00  0.20327516518E+02  0.00000000000E+00 0. -1.
<mgrwt>
<rscale>  0 0.46982175E+02</rscale>
<asrwt>0</asrwt>
<pdfrwt beam="1">  1        1 0.11288966E-01 0.20326904E+02</pdfrwt>
<pdfrwt beam="2">  1        1 0.53120838E-01 0.10859129E+03</pdfrwt>
<totfact> 0.40244341E+03</totfact>
</mgrwt>
</event>
<event>
 7    1  0.4251803E-004  0.1896641E+03  0.7546771E-02  0.1273875E+00
          2   -1    0    0  502    0  0.00000000000E+00  0.00000000000E+00  0.21370503385E+04  0.21370503385E+04  0.00000000000E+00 0. -1.
          1   -1    0    0  503    0 -0.00000000000E+00 -0.00000000000E+00 -0.11532294697E+04  0.11532294697E+04  0.00000000000E+00 0. -1.
         25    2    1    2    0    0 -0.21075267604E+03 -0.56761719589E+02 -0.34921268963E+03  0.43036430939E+03  0.12500141172E+03 0.  0.
          4    1    3    3  501    0  0.13742850033E+02 -0.11640624363E+02 -0.87620352260E+01  0.20068787305E+02  0.12700000000E+01 0.  1.
         -4    1    3    3    0  501 -0.22449552608E+03 -0.45121095226E+02 -0.34045065440E+03  0.41029552209E+03  0.12700000000E+01 0.  1.
          2    1    1    2  502    0  0.48570968028E+02 -0.27997570381E+02  0.20851265201E+04  0.20858800560E+04  0.00000000000E+00 0. -1.
          1    1    1    2  503    0  0.16218170801E+03  0.84759289970E+02 -0.75209296168E+03  0.77403544277E+03  0.00000000000E+00 0. -1.
<mgrwt>
<rscale>  0 0.10311664E+03</rscale>
<asrwt>0</asrwt>
<pdfrwt beam="1">  1        2 0.32877698E+00 0.56062491E+02</pdfrwt>
<pdfrwt beam="2">  1        1 0.17741992E+00 0.18966411E+03</pdfrwt>
<totfact> 0.13159090E+01</totfact>
</mgrwt>
</event>
<event>
 7    1  0.4251803E-004  0.1615313E+03  0.7546771E-02  0.1265167E+00
         -1   -1    0    0    0  501 -0.00000000000E+00  0.00000000000E+00  0.36863051640E+03  0.36863051640E+03  0.00000000000E+00 0.  1.
          2   -1    0    0  503    0  0.00000000000E+00 -0.00000000000E+00 -0.48717504116E+03  0.48717504116E+03  0.00000000000E+00 0. -1.
         25    2    1    2    0    0  0.89518233858E+02 -0.13525864848E+03 -0.27027604693E+02  0.20655547628E+03  0.12500502862E+03 0.  0.
          4    1    3    3  502    0  0.50396568015E+02 -0.14451705236E+02  0.37151603140E+02  0.64269124530E+02  0.12700000000E+01 0. -1.
         -4    1    3    3    0  502  0.39121665843E+02 -0.12080694325E+03 -0.64179207833E+02  0.14228635175E+03  0.12700000000E+01 0. -1.
          2    1    1    2  503    0 -0.23254937742E+02  0.16242017394E+03 -0.34704484635E+03  0.38387658226E+03  0.00000000000E+00 0. -1.
         -1    1    1    2    0  501 -0.66263296117E+02 -0.27161525450E+02  0.25552792628E+03  0.26537349903E+03  0.00000000000E+00 0.  1.
<mgrwt>
<rscale>  0 0.10755424E+03</rscale>
<asrwt>0</asrwt>
<pdfrwt beam="2">  1        2 0.74950007E-01 0.16153133E+03</pdfrwt>
<pdfrwt beam="1">  1       -1 0.56712387E-01 0.71614055E+02</pdfrwt>
<totfact> 0.24470800E+02</totfact>
</mgrwt>
</event>
<event>
 7    1  0.4251803E-004  0.1298460E+03  0.7546771E-02  0.1385817E+00
          2   -1    0    0  502    0  0.00000000000E+00  0.00000000000E+00  0.20456892255E+04  0.20456892255E+04  0.00000000000E+00 0. -1.
          1   -1    0    0  503    0 -0.00000000000E+00 -0.00000000000E+00 -0.19883876518E+03  0.19883876518E+03  0.00000000000E+00 0. -1.
         25    2    1    2    0    0  0.13404263171E+03  0.34661378809E+02  0.50130027240E+03  0.53487781370E+03  0.12499389657E+03 0.  0.
          4    1    3    3  501    0  0.75547216069E+02  0.75299272760E+02  0.21718112135E+03  0.24196407731E+03  0.12700000000E+01 0. -1.
         -4    1    3    3    0  501  0.58495415644E+02 -0.40637893951E+02  0.28411915104E+03  0.29291373639E+03  0.12700000000E+01 0. -1.
          2    1    1    2  502    0 -0.18586208808E+02  0.24217072912E+02  0.15043594220E+04  0.15046691279E+04  0.00000000000E+00 0. -1.
          1    1    1    2  503    0 -0.11545642290E+03 -0.58878451721E+02 -0.15880923409E+03  0.20498104912E+03  0.00000000000E+00 0. -1.
<mgrwt>
<rscale>  0 0.62959059E+02</rscale>
<asrwt>0</asrwt>
<pdfrwt beam="1">  1        2 0.31472140E+00 0.30527263E+02</pdfrwt>
<pdfrwt beam="2">  1        1 0.30590581E-01 0.12984601E+03</pdfrwt>
<totfact> 0.17979632E+02</totfact>
</mgrwt>
</event>
<event>
 7    1  0.4251803E-004  0.8031153E+02  0.7546771E-02  0.1398956E+00
          1   -1    0    0  503    0 -0.00000000000E+00  0.00000000000E+00  0.91988544246E+03  0.91988544246E+03  0.00000000000E+00 0. -1.
          2   -1    0    0  502    0  0.00000000000E+00 -0.00000000000E+00 -0.69504767709E+03  0.69504767709E+03  0.00000000000E+00 0. -1.
         25    2    1    2    0    0 -0.10253607491E+03 -0.59031220624E+02 -0.26421996281E+03  0.31532544642E+03  0.12497846513E+03 0.  0.
          4    1    3    3  501    0 -0.90207602169E+02 -0.75166987756E+02 -0.11375463062E+03  0.16349072275E+03  0.12700000000E+01 0. -1.
         -4    1    3    3    0  501 -0.12328472745E+02  0.16135767132E+02 -0.15046533219E+03  0.15183472367E+03  0.12700000000E+01 0. -1.
          2    1    1    2  502    0  0.69012431217E+02  0.29877324962E+02 -0.40122768577E+03  0.40821443634E+03  0.00000000000E+00 0. -1.
          1    1    1    2  503    0  0.33523643698E+02  0.29153895662E+02  0.89028541395E+03  0.89139323680E+03  0.00000000000E+00 0. -1.
<mgrwt>
<rscale>  0 0.59732937E+02</rscale>
<asrwt>0</asrwt>
<pdfrwt beam="2">  1        2 0.10693041E+00 0.80311527E+02</pdfrwt>
<pdfrwt beam="1">  1        1 0.14152084E+00 0.44427293E+02</pdfrwt>
<totfact> 0.12329543E+02</totfact>
</mgrwt>
</event>
<event>
 7    1  0.4251803E-004  0.5821528E+02  0.7546771E-02  0.1434583E+00
          2   -1    0    0  502    0  0.00000000000E+00  0.00000000000E+00  0.14722721139E+04  0.14722721139E+04  0.00000000000E+00 0.  1.
          2   -1    0    0  503    0 -0.00000000000E+00 -0.00000000000E+00 -0.10876363407E+04  0.10876363407E+04  0.00000000000E+00 0. -1.
         25    2    1    2    0    0 -0.60199481872E+02  0.79156822215E+02  0.18752136520E+03  0.24633312884E+03  0.12500387130E+03 0.  0.
          4    1    3    3  501    0 -0.45891123681E+02 -0.26540162386E+02  0.59697051372E+02  0.79848145218E+02  0.12700000000E+01 0.  1.
         -4    1    3    3    0  501 -0.14308358190E+02  0.10569698460E+03  0.12782431383E+03  0.16648498363E+03  0.12700000000E+01 0.  1.
          2    1    1    2  502    0  0.21607802023E+02 -0.53145131015E+02  0.12541771387E+04  0.12554885891E+04  0.00000000000E+00 0.  1.
          2    1    1    2  503    0  0.38591679849E+02 -0.26011691200E+02 -0.10570627306E+04  0.10580867367E+04  0.00000000000E+00 0. -1.
<mgrwt>
<rscale>  0 0.52051037E+02</rscale>
<asrwt>0</asrwt>
<pdfrwt beam="1">  1        2 0.22650340E+00 0.58215278E+02</pdfrwt>
<pdfrwt beam="2">  1        2 0.16732867E+00 0.46539508E+02</pdfrwt>
<totfact> 0.64045469E+01</totfact>
</mgrwt>
</event>
<event>
 7    1  0.4251803E-004  0.5918908E+02  0.7546771E-02  0.1553651E+00
         -1   -1    0    0    0  501 -0.00000000000E+00  0.00000000000E+00  0.39823115774E+01  0.39823115774E+01  0.00000000000E+00 0.  1.
          2   -1    0    0  503    0  0.00000000000E+00 -0.00000000000E+00 -0.32380930689E+04  0.32380930689E+04  0.00000000000E+00 0. -1.
         25    2    1    2    0    0  0.27045908440E+02  0.38980295980E+02 -0.19853614627E+04  0.19898581217E+04  0.12499704789E+03 0.  0.
          4    1    3    3  502    0 -0.14966745311E+02 -0.31080521526E+02 -0.22799118442E+03  0.23058966880E+03  0.12700000000E+01 0. -1.
         -4    1    3    3    0  502  0.42012653751E+02  0.70060817505E+02 -0.17573702783E+04  0.17592684529E+04  0.12700000000E+01 0. -1.
          2    1    1    2  503    0 -0.35393020302E+02 -0.57195621825E+02 -0.73317049733E+03  0.73624926703E+03  0.00000000000E+00 0. -1.
         -1    1    1    2    0  501  0.83471118614E+01  0.18215325846E+02 -0.51557879730E+03  0.51596799183E+03  0.00000000000E+00 0.  1.
<mgrwt>
<rscale>  0 0.34437744E+02</rscale>
<asrwt>0</asrwt>
<pdfrwt beam="2">  1        2 0.49816751E+00 0.59189076E+02</pdfrwt>
<pdfrwt beam="1">  1       -1 0.61266412E-03 0.20036775E+02</pdfrwt>
<totfact> 0.50581446E+03</totfact>
</mgrwt>
</event>
<event>
 7    1  0.4251803E-004  0.1053208E+03  0.7546771E-02  0.1422518E+00
          2   -1    0    0  502    0  0.00000000000E+00  0.00000000000E+00  0.15352332807E+03  0.15352332807E+03  0.00000000000E+00 0. -1.
          1   -1    0    0  503    0 -0.00000000000E+00 -0.00000000000E+00 -0.13065035181E+04  0.13065035181E+04  0.00000000000E+00 0. -1.
         25    2    1    2    0    0  0.91571472073E+02 -0.25345091602E+02 -0.46049913403E+01  0.15708012707E+03  0.12500100884E+03 0.  0.
          4    1    3    3  501    0  0.35712723729E+02 -0.73002047899E+01  0.59726550584E+02  0.69982607631E+02  0.12700000000E+01 0.  1.
         -4    1    3    3    0  501  0.55858748344E+02 -0.18044886812E+02 -0.64331541924E+02  0.87097519442E+02  0.12700000000E+01 0.  1.
          2    1    1    2  502    0 -0.97941301105E+02  0.52809342409E+02  0.36980618444E+02  0.11725566617E+03  0.00000000000E+00 0. -1.
          1    1    1    2  503    0  0.63698290315E+01 -0.27464250808E+02 -0.11853558171E+04  0.11856910529E+04  0.00000000000E+00 0. -1.
<mgrwt>
<rscale>  0 0.54491626E+02</rscale>
<asrwt>0</asrwt>
<pdfrwt beam="1">  1        2 0.23618975E-01 0.10532083E+03</pdfrwt>
<pdfrwt beam="2">  1        1 0.20100053E+00 0.28193258E+02</pdfrwt>
<totfact> 0.35785538E+02</totfact>
</mgrwt>
</event>
<event>
 7    1  0.4251803E-004  0.3843998E+02  0.7546771E-02  0.1598330E+00
          1   -1    0    0  503    0  0.00000000000E+00  0.00000000000E+00  0.23169074582E+03  0.23169074582E+03  0.00000000000E+00 0. -1.
         -1   -1    0    0    0  501 -0.00000000000E+00 -0.00000000000E+00 -0.67749260272E+02  0.67749260272E+02  0.00000000000E+00 0.  1.
         25    2    1    2    0    0 -0.24996294787E+02  0.11384180358E+01  0.15555120925E+03  0.20115323658E+03  0.12506132551E+03 0.  0.
          4    1    3    3  502    0  0.13103766385E+02 -0.19526782649E+02  0.15602114981E+03  0.15778851676E+03  0.12700000000E+01 0. -1.
         -4    1    3    3    0  502 -0.38100061172E+02  0.20665200685E+02 -0.46994055767E+00  0.43364719817E+02  0.12700000000E+01 0. -1.
          1    1    1    2  503    0  0.41416305218E+02 -0.17780701128E+02  0.39115508378E+02  0.59678192552E+02  0.00000000000E+00 0. -1.
         -1    1    1    2    0  501 -0.16420010431E+02  0.16642283092E+02 -0.30725232078E+02  0.38608576966E+02  0.00000000000E+00 0.  1.
<mgrwt>
<rscale>  0 0.29978195E+02</rscale>
<asrwt>0</asrwt>
<pdfrwt beam="1">  1        1 0.35644730E-01 0.38439980E+02</pdfrwt>
<pdfrwt beam="2">  1       -1 0.10422963E-01 0.23379100E+02</pdfrwt>
<totfact> 0.56790334E+03</totfact>
</mgrwt>
</event>
<event>
 7    1  0.4251803E-004  0.6015389E+02  0.7546771E-02  0.1403270E+00
          3   -1    0    0  503    0 -0.00000000000E+00  0.00000000000E+00  0.63036519522E+03  0.63036519522E+03  0.00000000000E+00 0. -1.
          2   -1    0    0  502    0  0.00000000000E+00 -0.00000000000E+00 -0.11897927392E+03  0.11897927392E+03  0.00000000000E+00 0.  1.
         25    2    1    2    0    0 -0.86262966813E+01  0.70613356202E+02  0.40383371224E+03  0.42868157238E+03  0.12500225712E+03 0.  0.
          4    1    3    3  501    0 -0.47218083649E+02  0.89175239731E+02  0.27720580450E+03  0.29500244364E+03  0.12700000000E+01 0.  1.
         -4    1    3    3    0  501  0.38591786967E+02 -0.18561883529E+02  0.12662790775E+03  0.13367912874E+03  0.12700000000E+01 0.  1.
          2    1    1    2  502    0  0.51773684305E+02 -0.24613185137E+02 -0.93652566885E+02  0.10980494776E+03  0.00000000000E+00 0.  1.
          3    1    1    2  503    0 -0.43147387624E+02 -0.46000171065E+02  0.20120477594E+03  0.21085794900E+03  0.00000000000E+00 0. -1.
<mgrwt>
<rscale>  0 0.58723160E+02</rscale>
<asrwt>0</asrwt>
<pdfrwt beam="2">  1        2 0.18304504E-01 0.57326462E+02</pdfrwt>
<pdfrwt beam="1">  1        3 0.96979259E-01 0.60153886E+02</pdfrwt>
<totfact> 0.16899482E+02</totfact>
</mgrwt>
</event>
<event>
 7    1  0.4251803E-004  0.2761560E+02  0.7546771E-02  0.1641854E+00
          1   -1    0    0  503    0  0.00000000000E+00  0.00000000000E+00  0.72496899932E+03  0.72496899932E+03  0.00000000000E+00 0. -1.
         -2   -1    0    0    0  501 -0.00000000000E+00 -0.00000000000E+00 -0.19413102564E+02  0.19413102564E+02  0.00000000000E+00 0.  1.
         25    2    1    2    0    0  0.97972530275E+01 -0.49423916818E+02  0.33131889983E+03  0.35768100201E+03  0.12499910438E+03 0.  0.
          4    1    3    3  502    0  0.43780954009E+02 -0.78548109819E+02  0.22631430129E+03  0.24352895795E+03  0.12700000000E+01 0. -1.
         -4    1    3    3    0  502 -0.33983700981E+02  0.29124193001E+02  0.10500459854E+03  0.11415204406E+03  0.12700000000E+01 0. -1.
          1    1    1    2  503    0 -0.10675622985E+01  0.25188904653E+02  0.35131894785E+03  0.35222240662E+03  0.00000000000E+00 0. -1.
         -2    1    1    2    0  501 -0.87296907290E+01  0.24235012165E+02  0.22918049080E+02  0.34478693254E+02  0.00000000000E+00 0.  1.
<mgrwt>
<rscale>  0 0.26386191E+02</rscale>
<asrwt>0</asrwt>
<pdfrwt beam="1">  1        1 0.11153367E+00 0.25211517E+02</pdfrwt>
<pdfrwt beam="2">  1       -2 0.29866317E-02 0.27615596E+02</pdfrwt>
<totfact> 0.83932430E+03</totfact>
</mgrwt>
</event>
<event>
 7    1  0.4251803E-004  0.4668672E+02  0.7546771E-02  0.1507678E+00
         -3   -1    0    0    0  501 -0.00000000000E+00  0.00000000000E+00  0.13257410088E+03  0.13257410088E+03  0.00000000000E+00 0.  1.
          1   -1    0    0  503    0  0.00000000000E+00 -0.00000000000E+00 -0.72638282317E+03  0.72638282317E+03  0.00000000000E+00 0. -1.
         25    2    1    2    0    0  0.15141130418E+02 -0.16360084257E+02 -0.19822339976E+03  0.23540460706E+03  0.12500362646E+03 0.  0.
          4    1    3    3  502    0  0.61166098263E+01 -0.48082829178E+02 -0.17277772088E+02  0.51473349278E+02  0.12700000000E+01 0. -1.
         -4    1    3    3    0  502  0.90245205920E+01  0.31722744921E+02 -0.18094562767E+03  0.18393125779E+03  0.12700000000E+01 0. -1.
          1    1    1    2  503    0 -0.27427122294E+01  0.48443343621E+02 -0.50578631224E+03  0.50810832867E+03  0.00000000000E+00 0. -1.
         -3    1    1    2    0  501 -0.12398418189E+02 -0.32083259364E+02  0.11020098971E+03  0.11544398832E+03  0.00000000000E+00 0.  1.
<mgrwt>
<rscale>  0 0.40072648E+02</rscale>
<asrwt>0</asrwt>
<pdfrwt beam="2">  1        1 0.11175121E+00 0.46686720E+02</pdfrwt>
<pdfrwt beam="1">  1       -3 0.20396015E-01 0.34395586E+02</pdfrwt>
<totfact> 0.28493029E+02</totfact>
</mgrwt>
</event>
<event>
 7    1  0.4251803E-004  0.8779869E+02  0.7546771E-02  0.1321655E+00
          1   -1    0    0  503    0  0.00000000000E+00  0.00000000000E+00  0.39202521328E+04  0.39202521328E+04  0.00000000000E+00 0. -1.
         -3   -1    0    0    0  501 -0.00000000000E+00 -0.00000000000E+00 -0.13917916283E+02  0.13917916283E+02  0.00000000000E+00 0.  1.
         25    2    1    2    0    0  0.69139706478E+02  0.73171851267E+02  0.11268857079E+04  0.11382587282E+04  0.12500845852E+03 0.  0.
          4    1    3    3  502    0  0.43512484617E+02  0.10838746161E+03  0.79994564454E+03  0.80842799634E+03  0.12700000000E+01 0.  1.
         -4    1    3    3    0  502  0.25627221860E+02 -0.35215610343E+02  0.32694006338E+03  0.32983073182E+03  0.12700000000E+01 0.  1.
          1    1    1    2  503    0 -0.90027937904E+02  0.18034490963E+01  0.25835389571E+04  0.25851077008E+04  0.00000000000E+00 0. -1.
         -3    1    1    2    0  501  0.20888231426E+02 -0.74975300363E+02  0.19590955157E+03  0.21080362016E+03  0.00000000000E+00 0.  1.
<mgrwt>
<rscale>  0 0.82664571E+02</rscale>
<asrwt>0</asrwt>
<pdfrwt beam="1">  1        1 0.60311483E+00 0.87798690E+02</pdfrwt>
<pdfrwt beam="2">  1       -3 0.21412210E-02 0.77830674E+02</pdfrwt>
<totfact> 0.73771075E+01</totfact>
</mgrwt>
</event>
<event>
 7    1  0.4251803E-004  0.6780882E+02  0.7546771E-02  0.1381799E+00
          2   -1    0    0  502    0  0.00000000000E+00  0.00000000000E+00  0.12578710191E+04  0.12578710191E+04  0.00000000000E+00 0.  1.
          3   -1    0    0  503    0 -0.00000000000E+00 -0.00000000000E+00 -0.55295485806E+02  0.55295485806E+02  0.00000000000E+00 0. -1.
         25    2    1    2    0    0  0.11881946688E+03 -0.28456995814E+02  0.40730020000E+03  0.44322148099E+03  0.12499584782E+03 0.  0.
          4    1    3    3  501    0 -0.19443954870E+02 -0.27919225612E+02  0.11376339252E+03  0.11874878070E+03  0.12700000000E+01 0.  1.
         -4    1    3    3    0  501  0.13826342175E+03 -0.53777020167E+00  0.29353680748E+03  0.32447270029E+03  0.12700000000E+01 0.  1.
          2    1    1    2  502    0 -0.54575706597E+02  0.25859494494E+02  0.80292706786E+03  0.80519506799E+03  0.00000000000E+00 0.  1.
          3    1    1    2  503    0 -0.64243760279E+02  0.25975013201E+01 -0.76517345873E+01  0.64749955908E+02  0.00000000000E+00 0. -1.
<mgrwt>
<rscale>  0 0.63993169E+02</rscale>
<asrwt>0</asrwt>
<pdfrwt beam="1">  1        2 0.19351860E+00 0.60392228E+02</pdfrwt>
<pdfrwt beam="2">  1        3 0.85069988E-02 0.67808819E+02</pdfrwt>
<totfact> 0.10721085E+03</totfact>
</mgrwt>
</event>
<event>
 7    1  0.4251803E-004  0.1271927E+03  0.7546771E-02  0.1330060E+00
         -1   -1    0    0    0  501 -0.00000000000E+00  0.00000000000E+00  0.78263045487E+02  0.78263045487E+02  0.00000000000E+00 0.  1.
          1   -1    0    0  503    0  0.00000000000E+00 -0.00000000000E+00 -0.47073895784E+03  0.47073895784E+03  0.00000000000E+00 0. -1.
         25    2    1    2    0    0  0.14171303674E+03 -0.68673275575E+02 -0.18331229883E+03  0.27207794127E+03  0.12499761462E+03 0.  0.
          4    1    3    3  502    0  0.92264085047E+02  0.18853625300E+02 -0.12272033615E+03  0.15469329133E+03  0.12700000000E+01 0. -1.
         -4    1    3    3    0  502  0.49448951693E+02 -0.87526900876E+02 -0.60591962680E+02  0.11738464994E+03  0.12700000000E+01 0. -1.
          1    1    1    2  503    0 -0.11356483587E+03  0.27503673998E+02 -0.19088195801E+03  0.22380649214E+03  0.00000000000E+00 0. -1.
         -1    1    1    2    0  501 -0.28148200866E+02  0.41169601577E+02 -0.18281655514E+02  0.53117569922E+02  0.00000000000E+00 0.  1.
<mgrwt>
<rscale>  0 0.79645512E+02</rscale>
<asrwt>0</asrwt>
<pdfrwt beam="2">  1        1 0.72421379E-01 0.12719272E+03</pdfrwt>
<pdfrwt beam="1">  1       -1 0.12040468E-01 0.49872410E+02</pdfrwt>
<totfact> 0.20578575E+03</totfact>
</mgrwt>
</event>
<event>
 7    1  0.4251803E-004  0.1837091E+03  0.7546771E-02  0.1357397E+00
          2   -1    0    0  502    0  0.00000000000E+00  0.00000000000E+00  0.18540601151E+04  0.18540601151E+04  0.00000000000E+00 0. -1.
          1   -1    0    0  503    0 -0.00000000000E+00 -0.00000000000E+00 -0.12507231571E+03  0.12507231571E+03  0.00000000000E+00 0. -1.
         25    2    1    2    0    0 -0.15775702525E+03  0.11785822786E+03  0.13924256767E+03  0.27164619136E+03  0.12500127895E+03 0.  0.
          4    1    3    3  501    0 -0.15120547029E+03  0.47471230366E+02  0.72006650318E+02  0.17407809324E+03  0.12700000000E+01 0. -1.
         -4    1    3    3    0  501 -0.65515549669E+01  0.70386997493E+02  0.67235917354E+02  0.97568098121E+02  0.12700000000E+01 0. -1.
          2    1    1    2  502    0  0.27282404392E+02 -0.36629722036E+00  0.15173053905E+04  0.15175506950E+04  0.00000000000E+00 0. -1.
          1    1    1    2  503    0  0.13047462086E+03 -0.11749193064E+03  0.72439841200E+02  0.18993554445E+03  0.00000000000E+00 0. -1.
<mgrwt>
<rscale>  0 0.70798853E+02</rscale>
<asrwt>0</asrwt>
<pdfrwt beam="1">  1        2 0.28524000E+00 0.27284863E+02</pdfrwt>
<pdfrwt beam="2">  1        1 0.19241896E-01 0.18370910E+03</pdfrwt>
<totfact> 0.40611154E+02</totfact>
</mgrwt>
</event>
<event>
 7    1  0.4251803E-004  0.1127290E+03  0.7546771E-02  0.1271598E+00
         -1   -1    0    0    0  502 -0.00000000000E+00  0.00000000000E+00  0.29137419719E+03  0.29137419719E+03  0.00000000000E+00 0.  1.
         -2   -1    0    0    0  501  0.00000000000E+00 -0.00000000000E+00 -0.37510507572E+03  0.37510507572E+03  0.00000000000E+00 0. -1.
         25    2    1    2    0    0  0.75931704767E+02 -0.36887344146E+02 -0.23980107700E+03  0.28327277692E+03  0.12495042882E+03 0.  0.
          4    1    3    3  503    0  0.45793169388E+02  0.44343967571E+02 -0.91741337733E+02  0.11172057900E+03  0.12700000000E+01 0. -1.
         -4    1    3    3    0  503  0.30138535380E+02 -0.81231311716E+02 -0.14805973927E+03  0.17155219792E+03  0.12700000000E+01 0. -1.
         -2    1    1    2    0  501 -0.57203886023E+02 -0.77611375098E+02 -0.76649002259E+02  0.12317012490E+03  0.00000000000E+00 0. -1.
         -1    1    1    2    0  502 -0.18727818744E+02  0.11449871924E+03  0.23271920073E+03  0.26003637110E+03  0.00000000000E+00 0.  1.
<mgrwt>
<rscale>  0 0.10425325E+03</rscale>
<asrwt>0</asrwt>
<pdfrwt beam="2">  1       -2 0.57708473E-01 0.96414782E+02</pdfrwt>
<pdfrwt beam="1">  1       -1 0.44826800E-01 0.11272899E+03</pdfrwt>
<totfact> 0.10877609E+02</totfact>
</mgrwt>
</event>
<event>
 7    1  0.4251803E-004  0.7906416E+02  0.7546771E-02  0.1468182E+00
          2   -1    0    0  503    0  0.00000000000E+00  0.00000000000E+00  0.28184980008E+04  0.28184980008E+04  0.00000000000E+00 0.  1.
         -1   -1    0    0    0  501 -0.00000000000E+00 -0.00000000000E+00 -0.18024017369E+02  0.18024017369E+02  0.00000000000E+00 0.  1.
         25    2    1    2    0    0  0.22170356052E+02 -0.97910975724E+02  0.75483323734E+03  0.77167082673E+03  0.12499825909E+03 0.  0.
          4    1    3    3  502    0 -0.51742225155E+02 -0.30014435026E+02  0.26777906367E+03  0.27438178514E+03  0.12700000000E+01 0.  1.
         -4    1    3    3    0  502  0.73912581207E+02 -0.67896540699E+02  0.48705417367E+03  0.49728904159E+03  0.12700000000E+01 0.  1.
          2    1    1    2  503    0 -0.12833272570E+02  0.23487985443E+02  0.19072767332E+04  0.19074645253E+04  0.00000000000E+00 0.  1.
         -1    1    1    2    0  501 -0.93370834822E+01  0.74422990281E+02  0.13836401292E+03  0.15738666615E+03  0.00000000000E+00 0.  1.
<mgrwt>
<rscale>  0 0.46001865E+02</rscale>
<asrwt>0</asrwt>
<pdfrwt beam="1">  1        2 0.43361473E+00 0.26765245E+02</pdfrwt>
<pdfrwt beam="2">  1       -1 0.27729280E-02 0.79064159E+02</pdfrwt>
<totfact> 0.16122568E+03</totfact>
</mgrwt>
</event>
<event>
 7    1  0.4251803E-004  0.7948108E+02  0.7546771E-02  0.1342743E+00
          1   -1    0    0  503    0 -0.00000000000E+00  0.00000000000E+00  0.10089323735E+04  0.10089323735E+04  0.00000000000E+00 0. -1.
          2   -1    0    0  502    0  0.00000000000E+00 -0.00000000000E+00 -0.17527955971E+03  0.17527955971E+03  0.00000000000E+00 0. -1.
         25    2    1    2    0    0  0.19044904160E+02  0.29403299183E+02  0.88515632307E+02  0.15712197688E+03  0.12500014431E+03 0.  0.
          4    1    3    3  501    0  0.56838421155E+02 -0.20412715160E+02  0.18357647416E+02  0.63133993840E+02  0.12700000000E+01 0.  1.
         -4    1    3    3    0  501 -0.37793516995E+02  0.49816014342E+02  0.70157984891E+02  0.93987983039E+02  0.12700000000E+01 0.  1.
          2    1    1    2  502    0 -0.85706266897E+02 -0.36505042611E+01 -0.12632712387E+03  0.15270046690E+03  0.00000000000E+00 0. -1.
          1    1    1    2  503    0  0.66661362737E+02 -0.25752794922E+02  0.87146430532E+03  0.87438948940E+03  0.00000000000E+00 0. -1.
<mgrwt>
<rscale>  0 0.75365423E+02</rscale>
<asrwt>0</asrwt>
<pdfrwt beam="2">  1        2 0.26966087E-01 0.79481077E+02</pdfrwt>
<pdfrwt beam="1">  1        1 0.15522036E+00 0.71462884E+02</pdfrwt>
<totfact> 0.44824305E+02</totfact>
</mgrwt>
</event>
<event>
 7    1  0.4251803E-004  0.6249835E+02  0.7546771E-02  0.1454848E+00
         -2   -1    0    0    0  501 -0.00000000000E+00  0.00000000000E+00  0.14244463160E+04  0.14244463160E+04  0.00000000000E+00 0.  1.
          1   -1    0    0  503    0  0.00000000000E+00 -0.00000000000E+00 -0.10727159818E+02  0.10727159818E+02  0.00000000000E+00 0. -1.
         25    2    1    2    0    0  0.94999254004E+01 -0.63169165891E+02  0.70336779677E+03  0.71723918276E+03  0.12500078262E+03 0.  0.
          4    1    3    3  502    0 -0.23216354946E+02 -0.39946604094E+01  0.21170380972E+02  0.31697860799E+02  0.12700000000E+01 0.  1.
         -4    1    3    3    0  502  0.32716280346E+02 -0.59174505482E+02  0.68219741579E+03  0.68554132196E+03  0.12700000000E+01 0.  1.
          1    1    1    2  503    0 -0.37051983019E+02  0.42564514259E+01  0.32503374967E+03  0.32716647941E+03  0.00000000000E+00 0. -1.
         -2    1    1    2    0  501  0.27552057618E+02  0.58912714465E+02  0.38531760974E+03  0.39076781364E+03  0.00000000000E+00 0.  1.
<mgrwt>
<rscale>  0 0.48279579E+02</rscale>
<asrwt>0</asrwt>
<pdfrwt beam="2">  1        1 0.16503334E-02 0.37295668E+02</pdfrwt>
<pdfrwt beam="1">  1       -2 0.21914544E+00 0.62498350E+02</pdfrwt>
<totfact> 0.65028251E+02</totfact>
</mgrwt>
</event>
<event>
 7    1  0.4251803E-004  0.8264862E+02  0.7546771E-02  0.1347921E+00
          1   -1    0    0  502    0  0.00000000000E+00  0.00000000000E+00  0.11261899032E+04  0.11261899032E+04  0.00000000000E+00 0.  1.
          3   -1    0    0  503    0 -0.00000000000E+00 -0.00000000000E+00 -0.50196098239E+03  0.50196098239E+03  0.00000000000E+00 0. -1.
         25    2    1    2    0    0  0.95402937201E+02  0.15953343459E+02 -0.19345275998E+03  0.24981017298E+03  0.12499969035E+03 0.  0.
          4    1    3    3  501    0  0.21424622593E+02 -0.34158898353E+02 -0.42493653126E+01  0.40564945403E+02  0.12700000000E+01 0. -1.
         -4    1    3    3    0  501  0.73978314608E+02  0.50112241812E+02 -0.18920339467E+03  0.20924522758E+03  0.12700000000E+01 0. -1.
          1    1    1    2  502    0 -0.43013257747E+02  0.49706385323E+02  0.10907069370E+04  0.10926859052E+04  0.00000000000E+00 0.  1.
          3    1    1    2  503    0 -0.52389679455E+02 -0.65659728782E+02 -0.27302525617E+03  0.28565480742E+03  0.00000000000E+00 0. -1.
<mgrwt>
<rscale>  0 0.73707296E+02</rscale>
<asrwt>0</asrwt>
<pdfrwt beam="1">  1        1 0.17325998E+00 0.65733287E+02</pdfrwt>
<pdfrwt beam="2">  1        3 0.77224767E-01 0.82648621E+02</pdfrwt>
<totfact> 0.12266975E+01</totfact>
</mgrwt>
</event>
<event>
 7    1  0.4251803E-004  0.6564647E+02  0.7546771E-02  0.1408917E+00
          2   -1    0    0  502    0  0.00000000000E+00  0.00000000000E+00  0.35481512294E+03  0.35481512294E+03  0.00000000000E+00 0.  1.
          2   -1    0    0  503    0 -0.00000000000E+00 -0.00000000000E+00 -0.12285810893E+04  0.12285810893E+04  0.00000000000E+00 0. -1.
         25    2    1    2    0    0  0.47766760246E+02  0.10358597914E+03 -0.22892989787E+03  0.28468542055E+03  0.12500068830E+03 0.  0.
          4    1    3    3  501    0  0.63028838981E+02  0.60461951284E+02 -0.22178761347E+03  0.23836870702E+03  0.12700000000E+01 0.  1.
         -4    1    3    3    0  501 -0.15262078735E+02  0.43124027855E+02 -0.71422843970E+01  0.46316713529E+02  0.12700000000E+01 0.  1.
          2    1    1    2  502    0 -0.20482021598E+02 -0.45889386362E+02  0.32395006402E+03  0.32782463753E+03  0.00000000000E+00 0.  1.
          2    1    1    2  503    0 -0.27284738648E+02 -0.57696592777E+02 -0.96878613253E+03  0.97088615418E+03  0.00000000000E+00 0. -1.
<mgrwt>
<rscale>  0 0.57436243E+02</rscale>
<asrwt>0</asrwt>
<pdfrwt beam="1">  1        2 0.54586941E-01 0.50252851E+02</pdfrwt>
<pdfrwt beam="2">  1        2 0.18901248E+00 0.65646466E+02</pdfrwt>
<totfact> 0.29867726E+02</totfact>
</mgrwt>
</event>
<event>
 7    1  0.4251803E-004  0.7648017E+02  0.7546771E-02  0.1464073E+00
         -1   -1    0    0    0  501 -0.00000000000E+00  0.00000000000E+00  0.11905914718E+02  0.11905914718E+02  0.00000000000E+00 0.  1.
          2   -1    0    0  503    0  0.00000000000E+00 -0.00000000000E+00 -0.19769405857E+04  0.19769405857E+04  0.00000000000E+00 0. -1.
         25    2    1    2    0    0  0.89663635665E+02 -0.41598886653E+02 -0.14301728806E+04  0.14390237687E+04  0.12499961354E+03 0.  0.
          4    1    3    3  502    0  0.18733465089E+02 -0.16797154074E+02 -0.11046989217E+04  0.11049861572E+04  0.12700000000E+01 0. -1.
         -4    1    3    3    0  502  0.70930170576E+02 -0.24801732579E+02 -0.32547395893E+03  0.33403761148E+03  0.12700000000E+01 0. -1.
          2    1    1    2  503    0 -0.28490792010E+02  0.75081020589E+00 -0.34553919423E+03  0.34671259523E+03  0.00000000000E+00 0. -1.
         -1    1    1    2    0  501 -0.61172843656E+02  0.40848076447E+02 -0.18932259612E+03  0.20311013650E+03  0.00000000000E+00 0.  1.
<mgrwt>
<rscale>  0 0.46687656E+02</rscale>
<asrwt>0</asrwt>
<pdfrwt beam="2">  1        2 0.30414478E+00 0.28500683E+02</pdfrwt>
<pdfrwt beam="1">  1       -1 0.18316787E-02 0.76480173E+02</pdfrwt>
<totfact> 0.74189159E+03</totfact>
</mgrwt>
</event>
<event>
 7    1  0.4251803E-004  0.2294361E+03  0.7546771E-02  0.1174861E+00
          2   -1    0    0  503    0  0.00000000000E+00  0.00000000000E+00  0.23165431072E+04  0.23165431072E+04  0.00000000000E+00 0.  1.
          2   -1    0    0  502    0 -0.00000000000E+00 -0.00000000000E+00 -0.28854546894E+04  0.28854546894E+04  0.00000000000E+00 0. -1.
         25    2    1    2    0    0 -0.73266205453E+02  0.92356090313E+02 -0.25249313707E+03  0.30541037893E+03  0.12500052404E+03 0.  0.
          4    1    3    3  501    0  0.14972371858E+01  0.95371571915E+02 -0.12060113285E+03  0.15376678638E+03  0.12700000000E+01 0. -1.
         -4    1    3    3    0  501 -0.74763442639E+02 -0.30154816018E+01 -0.13189200422E+03  0.15164359255E+03  0.12700000000E+01 0. -1.
          2    1    1    2  502    0 -0.12836029253E+03  0.22336646737E+02 -0.25989929126E+04  0.26022566073E+04  0.00000000000E+00 0. -1.
          2    1    1    2  503    0  0.20162649798E+03 -0.11469273705E+03  0.22825744674E+04  0.22943308104E+04  0.00000000000E+00 0.  1.
<mgrwt>
<rscale>  0 0.17289610E+03</rscale>
<asrwt>0</asrwt>
<pdfrwt beam="1">  1        2 0.35639124E+00 0.22943611E+03</pdfrwt>
<pdfrwt beam="2">  1        2 0.44391611E+00 0.13028926E+03</pdfrwt>
<totfact> 0.21846148E+00</totfact>
</mgrwt>
</event>
<event>
 7    1  0.4251803E-004  0.6206192E+02  0.7546771E-02  0.1524555E+00
          1   -1    0    0  502    0  0.00000000000E+00  0.00000000000E+00  0.16428923106E+04  0.16428923106E+04  0.00000000000E+00 0. -1.
          3   -1    0    0  503    0 -0.00000000000E+00 -0.00000000000E+00 -0.14237449849E+02  0.14237449849E+02  0.00000000000E+00 0. -1.
         25    2    1    2    0    0  0.68080437229E+02  0.43932868217E+02  0.88670607943E+03  0.89913151714E+03  0.12499908386E+03 0.  0.
          4    1    3    3  501    0  0.39368534097E+02  0.24423190967E+02  0.83814619355E+03  0.83942660692E+03  0.12700000000E+01 0. -1.
         -4    1    3    3    0  501  0.28711903132E+02  0.19509677250E+02  0.48559885881E+02  0.59704910222E+02  0.12700000000E+01 0. -1.
          1    1    1    2  502    0 -0.51426029022E+02 -0.27926313371E+02  0.72933572040E+03  0.73167964881E+03  0.00000000000E+00 0. -1.
          3    1    1    2  503    0 -0.16654408207E+02 -0.16006554846E+02  0.12613060931E+02  0.26318594506E+02  0.00000000000E+00 0. -1.
<mgrwt>
<rscale>  0 0.37862764E+02</rscale>
<asrwt>0</asrwt>
<pdfrwt beam="1">  1        1 0.25275251E+00 0.62061923E+02</pdfrwt>
<pdfrwt beam="2">  1        3 0.21903782E-02 0.23099331E+02</pdfrwt>
<totfact> 0.19524814E+03</totfact>
</mgrwt>
</event>
<event>
 7    1  0.4251803E-004  0.6173362E+02  0.7546771E-02  0.1495572E+00
         -2   -1    0    0    0  501 -0.00000000000E+00  0.00000000000E+00  0.33699200595E+03  0.33699200595E+03  0.00000000000E+00 0.  1.
          1   -1    0    0  503    0  0.00000000000E+00 -0.00000000000E+00 -0.66204989853E+02  0.66204989853E+02  0.00000000000E+00 0. -1.
         25    2    1    2    0    0 -0.67928576006E+02 -0.19926664846E+02  0.25754943807E+03  0.29490271093E+03  0.12499812981E+03 0.  0.
          4    1    3    3  502    0 -0.44802983762E+02 -0.18364286674E+02  0.14238070754E+02  0.50486532242E+02  0.12700000000E+01 0. -1.
         -4    1    3    3    0  502 -0.23125592244E+02 -0.15623781718E+01  0.24331136731E+03  0.24441617869E+03  0.12700000000E+01 0. -1.
          1    1    1    2  503    0  0.23631287665E+02 -0.15503725550E+02 -0.26732529668E+02  0.38902845720E+02  0.00000000000E+00 0. -1.
         -2    1    1    2    0  501  0.44297288341E+02  0.35430390396E+02  0.39970107700E+02  0.69391439152E+02  0.00000000000E+00 0.  1.
<mgrwt>
<rscale>  0 0.41770611E+02</rscale>
<asrwt>0</asrwt>
<pdfrwt beam="2">  1        1 0.10185383E-01 0.28263108E+02</pdfrwt>
<pdfrwt beam="1">  1       -2 0.51844923E-01 0.61733621E+02</pdfrwt>
<totfact> 0.16950372E+03</totfact>
</mgrwt>
</event>
<event>
 7    1  0.4251803E-004  0.6752215E+02  0.7546771E-02  0.1457647E+00
         -2   -1    0    0    0  501 -0.00000000000E+00  0.00000000000E+00  0.14767145224E+02  0.14767145224E+02  0.00000000000E+00 0.  1.
          1   -1    0    0  503    0  0.00000000000E+00 -0.00000000000E+00 -0.11772863187E+04  0.11772863187E+04  0.00000000000E+00 0. -1.
         25    2    1    2    0    0 -0.66491870203E+02 -0.41724194845E+02 -0.57662772015E+03  0.59521959560E+03  0.12499904841E+03 0.  0.
          4    1    3    3  502    0  0.16068455941E+01 -0.64646162110E+02 -0.38823163386E+03  0.39358242169E+03  0.12700000000E+01 0.  1.
         -4    1    3    3    0  502 -0.68098715797E+02  0.22921967266E+02 -0.18839608629E+03  0.20163717392E+03  0.12700000000E+01 0.  1.
          1    1    1    2  503    0  0.31167273443E+02 -0.13135990794E+02 -0.36344045692E+03  0.36501084767E+03  0.00000000000E+00 0. -1.
         -2    1    1    2    0  501  0.35324596759E+02  0.54860185639E+02 -0.22245099642E+03  0.23182302067E+03  0.00000000000E+00 0.  1.
<mgrwt>
<rscale>  0 0.47788699E+02</rscale>
<asrwt>0</asrwt>
<pdfrwt beam="2">  1        1 0.18112095E+00 0.33822377E+02</pdfrwt>
<pdfrwt beam="1">  1       -2 0.22718688E-02 0.67522154E+02</pdfrwt>
<totfact> 0.66494803E+03</totfact>
</mgrwt>
</event>
<event>
 7    1  0.4251803E-004  0.2998398E+02  0.7546771E-02  0.1650691E+00
          2   -1    0    0  503    0  0.00000000000E+00  0.00000000000E+00  0.67292715815E+03  0.67292715815E+03  0.00000000000E+00 0. -1.
          2   -1    0    0  502    0 -0.00000000000E+00 -0.00000000000E+00 -0.52219450338E+03  0.52219450338E+03  0.00000000000E+00 0. -1.
         25    2    1    2    0    0  0.46782642315E+02 -0.10115869648E+02  0.13834387607E+03  0.19250063536E+03  0.12500608037E+03 0.  0.
          4    1    3    3  501    0  0.72483212580E+02  0.29999870814E+02  0.52776016606E+02  0.94555429160E+02  0.12700000000E+01 0.  1.
         -4    1    3    3    0  501 -0.25700570266E+02 -0.40115740462E+02  0.85567859467E+02  0.97945206205E+02  0.12700000000E+01 0.  1.
          2    1    1    2  502    0 -0.21413989663E+02 -0.54016264305E+01 -0.49443377954E+03  0.49492676112E+03  0.00000000000E+00 0. -1.
          2    1    1    2  503    0 -0.25368652652E+02  0.15517496078E+02  0.50682255824E+03  0.50769426505E+03  0.00000000000E+00 0. -1.
<mgrwt>
<rscale>  0 0.25733032E+02</rscale>
<asrwt>0</asrwt>
<pdfrwt beam="1">  1        2 0.10352726E+00 0.29983981E+02</pdfrwt>
<pdfrwt beam="2">  1        2 0.80337616E-01 0.22084758E+02</pdfrwt>
<totfact> 0.44735985E+02</totfact>
</mgrwt>
</event>
<event>
 7    1  0.4251803E-004  0.1778043E+03  0.7546771E-02  0.1263593E+00
          1   -1    0    0  502    0  0.00000000000E+00  0.00000000000E+00  0.11514469342E+04  0.11514469342E+04  0.00000000000E+00 0. -1.
          1   -1    0    0  503    0 -0.00000000000E+00 -0.00000000000E+00 -0.55005466216E+03  0.55005466216E+03  0.00000000000E+00 0. -1.
         25    2    1    2    0    0  0.13670800367E+03 -0.17782204966E+03 -0.23134939910E+03  0.34562356728E+03  0.12499338457E+03 0.  0.
          4    1    3    3  501    0  0.53458145200E+02 -0.12917714331E+03 -0.66904370055E+02  0.15499133935E+03  0.12700000000E+01 0.  1.
         -4    1    3    3    0  501  0.83249858468E+02 -0.48644906352E+02 -0.16444502904E+03  0.19063222793E+03  0.12700000000E+01 0.  1.
          1    1    1    2  502    0 -0.41367675713E+02  0.51512359770E+02  0.10692603196E+04  0.10712994161E+04  0.00000000000E+00 0. -1.
          1    1    1    2  503    0 -0.95340327955E+02  0.12630968989E+03 -0.23651864848E+03  0.28457861299E+03  0.00000000000E+00 0. -1.
<mgrwt>
<rscale>  0 0.10838330E+03</rscale>
<asrwt>0</asrwt>
<pdfrwt beam="1">  1        1 0.17714568E+00 0.66066692E+02</pdfrwt>
<pdfrwt beam="2">  1        1 0.84623794E-01 0.17780428E+03</pdfrwt>
<totfact> 0.66593238E+01</totfact>
</mgrwt>
</event>
<event>
 7    1  0.4251803E-004  0.1703829E+03  0.7546771E-02  0.1195240E+00
         -3   -1    0    0    0  501 -0.00000000000E+00  0.00000000000E+00  0.12483747518E+03  0.12483747518E+03  0.00000000000E+00 0.  1.
          1   -1    0    0  503    0  0.00000000000E+00 -0.00000000000E+00 -0.26679745332E+04  0.26679745332E+04  0.00000000000E+00 0.  1.
         25    2    1    2    0    0 -0.10372529675E+03  0.11109960171E+03 -0.10834664996E+04  0.11011862642E+04  0.12493788081E+03 0.  0.
          4    1    3    3  502    0 -0.28315705444E+01  0.16883354310E+02 -0.12196359081E+02  0.21057766248E+02  0.12700000000E+01 0.  1.
         -4    1    3    3    0  502 -0.10089372621E+03  0.94216247405E+02 -0.10712701405E+04  0.10801284980E+04  0.12700000000E+01 0.  1.
          1    1    1    2  503    0  0.51484160705E+00 -0.20540471053E+03 -0.15239639780E+04  0.15377443112E+04  0.00000000000E+00 0.  1.
         -3    1    1    2    0  501  0.10321045514E+03  0.94305108814E+02  0.64293419645E+02  0.15388143296E+03  0.00000000000E+00 0.  1.
<mgrwt>
<rscale>  0 0.15433935E+03</rscale>
<asrwt>0</asrwt>
<pdfrwt beam="2">  1        1 0.41045761E+00 0.17038291E+03</pdfrwt>
<pdfrwt beam="1">  1       -3 0.19205766E-01 0.13980648E+03</pdfrwt>
<totfact> 0.16698000E+01</totfact>
</mgrwt>
</event>
<event>
 7    1  0.4251803E-004  0.5600246E+02  0.7546771E-02  0.1527333E+00
          2   -1    0    0  503    0  0.00000000000E+00  0.00000000000E+00  0.25203838347E+03  0.25203838347E+03  0.00000000000E+00 0. -1.
         -1   -1    0    0    0  501 -0.00000000000E+00 -0.00000000000E+00 -0.58041723699E+03  0.58041723699E+03  0.00000000000E+00 0.  1.
         25    2    1    2    0    0 -0.22528928312E+02  0.33162831044E+02  0.14545413938E+03  0.19593352985E+03  0.12500286190E+03 0.  0.
          4    1    3    3  502    0 -0.17257683906E+02 -0.17855200095E+02  0.14238146139E+03  0.14453625590E+03  0.12700000000E+01 0.  1.
         -4    1    3    3    0  502 -0.52712444054E+01  0.51018031139E+02  0.30726779930E+01  0.51397273945E+02  0.12700000000E+01 0.  1.
          2    1    1    2  503    0  0.43227674124E+02 -0.47415735944E+02  0.68355438779E+02  0.93751532445E+02  0.00000000000E+00 0. -1.
         -1    1    1    2    0  501 -0.20698745812E+02  0.14252904899E+02 -0.54218843167E+03  0.54277055817E+03  0.00000000000E+00 0.  1.
<mgrwt>
<rscale>  0 0.37515543E+02</rscale>
<asrwt>0</asrwt>
<pdfrwt beam="1">  1        2 0.38775136E-01 0.56002464E+02</pdfrwt>
<pdfrwt beam="2">  1       -1 0.89294960E-01 0.25131323E+02</pdfrwt>
<totfact> 0.20895463E+02</totfact>
</mgrwt>
</event>
<event>
 7    1  0.4652614E-004  0.1213319E+03  0.7546771E-02  0.1329454E+00
         -2   -1    0    0    0  501 -0.00000000000E+00  0.00000000000E+00  0.51321721835E+02  0.51321721835E+02  0.00000000000E+00 0.  1.
          1   -1    0    0  503    0  0.00000000000E+00 -0.00000000000E+00 -0.66719335265E+03  0.66719335265E+03  0.00000000000E+00 0. -1.
         25    2    1    2    0    0  0.14930167105E+03 -0.96881611403E+01 -0.38461253919E+03  0.43120142068E+03  0.12499204153E+03 0.  0.
          4    1    3    3  502    0  0.90333513455E+02  0.25619910115E+02 -0.95137210323E+02  0.13367582106E+03  0.12700000000E+01 0.  1.
         -4    1    3    3    0  502  0.58968157595E+02 -0.35308071255E+02 -0.28947532887E+03  0.29752559962E+03  0.12700000000E+01 0.  1.
          1    1    1    2  503    0 -0.39330113320E+02  0.34868693145E+02 -0.10866234058E+03  0.12070703309E+03  0.00000000000E+00 0. -1.
         -2    1    1    2    0  501 -0.10997155773E+03 -0.25180532005E+02 -0.12259675103E+03  0.16660662071E+03  0.00000000000E+00 0.  1.
<mgrwt>
<rscale>  0 0.79858326E+02</rscale>
<asrwt>0</asrwt>
<pdfrwt beam="2">  1        1 0.10264513E+00 0.52561236E+02</pdfrwt>
<pdfrwt beam="1">  1       -2 0.78956495E-02 0.12133185E+03</pdfrwt>
<totfact> 0.25871538E+03</totfact>
</mgrwt>
</event>
<event>
 7    1  0.4251803E-004  0.4232622E+03  0.7546771E-02  0.1177408E+00
          2   -1    0    0  502    0  0.00000000000E+00  0.00000000000E+00  0.12542031148E+04  0.12542031148E+04  0.00000000000E+00 0. -1.
          1   -1    0    0  503    0 -0.00000000000E+00 -0.00000000000E+00 -0.33203256409E+03  0.33203256409E+03  0.00000000000E+00 0.  1.
         25    2    1    2    0    0  0.95431321812E+01 -0.44891444340E+03  0.64240205262E+03  0.79367583437E+03  0.12500273592E+03 0.  0.
          4    1    3    3  501    0  0.28852589836E+02 -0.30728703379E+03  0.52365412970E+03  0.60784295137E+03  0.12700000000E+01 0. -1.
         -4    1    3    3    0  501 -0.19309457655E+02 -0.14162740960E+03  0.11874792292E+03  0.18583288300E+03  0.12700000000E+01 0. -1.
          2    1    1    2  502    0 -0.52610144016E+02  0.39549321157E+03  0.45453705016E+03  0.60480297422E+03  0.00000000000E+00 0. -1.
          1    1    1    2  503    0  0.43067011834E+02  0.53421231825E+02 -0.17476855212E+03  0.18775687026E+03  0.00000000000E+00 0.  1.
<mgrwt>
<rscale>  0 0.17042277E+03</rscale>
<asrwt>0</asrwt>
<pdfrwt beam="1">  1        2 0.19295432E+00 0.42326225E+03</pdfrwt>
<pdfrwt beam="2">  1        1 0.51081933E-01 0.68619207E+02</pdfrwt>
<totfact> 0.19242815E+02</totfact>
</mgrwt>
</event>
<event>
 7    1  0.4251803E-004  0.8074490E+02  0.7546771E-02  0.1370645E+00
          2   -1    0    0  503    0  0.00000000000E+00  0.00000000000E+00  0.12265319295E+04  0.12265319295E+04  0.00000000000E+00 0. -1.
         -2   -1    0    0    0  501 -0.00000000000E+00 -0.00000000000E+00 -0.25010173644E+02  0.25010173644E+02  0.00000000000E+00 0.  1.
         25    2    1    2    0    0 -0.78254981090E+02 -0.61622688896E+02  0.29797600210E+03  0.33813342360E+03  0.12499326570E+03 0.  0.
          4    1    3    3  502    0  0.12065637426E+02  0.14866987160E+02  0.19102681358E+01  0.19283903600E+02  0.12700000000E+01 0.  1.
         -4    1    3    3    0  502 -0.90320618515E+02 -0.76489676056E+02  0.29606573397E+03  0.31884952000E+03  0.12700000000E+01 0.  1.
          2    1    1    2  503    0  0.10497347909E+02  0.54574682464E+02  0.58647464257E+03  0.58910194080E+03  0.00000000000E+00 0. -1.
         -2    1    1    2    0  501  0.67757633181E+02  0.70480064325E+01  0.31707111119E+03  0.32430673876E+03  0.00000000000E+00 0.  1.
<mgrwt>
<rscale>  0 0.66988094E+02</rscale>
<asrwt>0</asrwt>
<pdfrwt beam="1">  1        2 0.18869717E+00 0.55575087E+02</pdfrwt>
<pdfrwt beam="2">  1       -2 0.38477200E-02 0.80744898E+02</pdfrwt>
<totfact> 0.55342944E+03</totfact>
</mgrwt>
</event>
<event>
 7    1  0.4251803E-004  0.6336581E+02  0.7546771E-02  0.1434289E+00
          2   -1    0    0  503    0  0.00000000000E+00  0.00000000000E+00  0.24191649232E+04  0.24191649232E+04  0.00000000000E+00 0. -1.
         -1   -1    0    0    0  501 -0.00000000000E+00 -0.00000000000E+00 -0.13361659670E+02  0.13361659670E+02  0.00000000000E+00 0.  1.
         25    2    1    2    0    0  0.34934133720E+02 -0.17473589084E+02  0.10567978246E+04  0.10648812176E+04  0.12499858217E+03 0.  0.
          4    1    3    3  502    0  0.77200397761E+02  0.73969226011E+01  0.50696451416E+03  0.51286377080E+03  0.12700000000E+01 0. -1.
         -4    1    3    3    0  502 -0.42266264041E+02 -0.24870511685E+02  0.54983331042E+03  0.55201744680E+03  0.12700000000E+01 0. -1.
          2    1    1    2  503    0 -0.69982589125E+02 -0.71810731884E+01  0.13025350380E+04  0.13044334617E+04  0.00000000000E+00 0. -1.
         -1    1    1    2    0  501  0.35048455406E+02  0.24654662272E+02  0.46470400953E+02  0.63211903648E+02  0.00000000000E+00 0.  1.
<mgrwt>
<rscale>  0 0.52108701E+02</rscale>
<asrwt>0</asrwt>
<pdfrwt beam="1">  1        2 0.37217887E+00 0.63365809E+02</pdfrwt>
<pdfrwt beam="2">  1       -1 0.20556419E-02 0.42851448E+02</pdfrwt>
<totfact> 0.31536827E+03</totfact>
</mgrwt>
</event>
<event>
 7    1  0.4251803E-004  0.1495706E+03  0.7546771E-02  0.1271172E+00
          2   -1    0    0  502    0  0.00000000000E+00  0.00000000000E+00  0.30574886961E+03  0.30574886961E+03  0.00000000000E+00 0. -1.
          2   -1    0    0  503    0 -0.00000000000E+00 -0.00000000000E+00 -0.59923913369E+03  0.59923913369E+03  0.00000000000E+00 0. -1.
         25    2    1    2    0    0  0.14263633684E+03  0.15997432539E+03 -0.56553595680E+02  0.25448730813E+03  0.12501428495E+03 0.  0.
          4    1    3    3  501    0 -0.16716090457E+02  0.21249267866E+02 -0.31804199673E+02  0.41762172859E+02  0.12700000000E+01 0. -1.
         -4    1    3    3    0  501  0.15935242730E+03  0.13872505753E+03 -0.24749396007E+02  0.21272513527E+03  0.12700000000E+01 0. -1.
          2    1    1    2  502    0 -0.42189543574E+02 -0.59531716106E+02  0.18841839327E+03  0.20205314581E+03  0.00000000000E+00 0. -1.
          2    1    1    2  503    0 -0.10044679327E+03 -0.10044260929E+03 -0.42535506167E+03  0.44844754936E+03  0.00000000000E+00 0. -1.
<mgrwt>
<rscale>  0 0.10446777E+03</rscale>
<asrwt>0</asrwt>
<pdfrwt beam="1">  1        2 0.47038288E-01 0.72965628E+02</pdfrwt>
<pdfrwt beam="2">  1        2 0.92190635E-01 0.14957063E+03</pdfrwt>
<totfact> 0.84495673E+02</totfact>
</mgrwt>
</event>
<event>
 7    1  0.4251803E-004  0.3021800E+02  0.7546771E-02  0.1654136E+00
          2   -1    0    0  502    0  0.00000000000E+00  0.00000000000E+00  0.64097618380E+03  0.64097618380E+03  0.00000000000E+00 0. -1.
          1   -1    0    0  503    0 -0.00000000000E+00 -0.00000000000E+00 -0.11773559174E+03  0.11773559174E+03  0.00000000000E+00 0. -1.
         25    2    1    2    0    0  0.41059035264E+02  0.29283260448E+02  0.58928284564E+02  0.14709546126E+03  0.12498471220E+03 0.  0.
          4    1    3    3  501    0  0.20742361293E+02  0.62701234000E+02  0.79114977346E+02  0.10306542989E+03  0.12700000000E+01 0. -1.
         -4    1    3    3    0  501  0.20316673972E+02 -0.33417973552E+02 -0.20186692783E+02  0.44030031377E+02  0.12700000000E+01 0. -1.
          2    1    1    2  502    0 -0.14738369832E+02 -0.15643583704E+02  0.53475666210E+03  0.53518840507E+03  0.00000000000E+00 0. -1.
          1    1    1    2  503    0 -0.26320665432E+02 -0.13639676744E+02 -0.70444354605E+02  0.76427909210E+02  0.00000000000E+00 0. -1.
<mgrwt>
<rscale>  0 0.25484700E+02</rscale>
<asrwt>0</asrwt>
<pdfrwt beam="1">  1        2 0.98611719E-01 0.21492819E+02</pdfrwt>
<pdfrwt beam="2">  1        1 0.18113168E-01 0.30217998E+02</pdfrwt>
<totfact> 0.17904261E+03</totfact>
</mgrwt>
</event>
<event>
 7    1  0.4251803E-004  0.4883129E+02  0.7546771E-02  0.1491486E+00
          1   -1    0    0  503    0  0.00000000000E+00  0.00000000000E+00  0.15083854717E+04  0.15083854717E+04  0.00000000000E+00 0. -1.
          1   -1    0    0  502    0 -0.00000000000E+00 -0.00000000000E+00 -0.20807201017E+02  0.20807201017E+02  0.00000000000E+00 0. -1.
         25    2    1    2    0    0 -0.50541373152E+02 -0.49867101298E+02  0.36732223988E+03  0.39445111706E+03  0.12499959057E+03 0.  0.
          4    1    3    3  501    0 -0.79169695420E+02 -0.72226715519E+02  0.26417038961E+03  0.28508270160E+03  0.12700000000E+01 0. -1.
         -4    1    3    3    0  501  0.28628322268E+02  0.22359614221E+02  0.10315185028E+03  0.10936841546E+03  0.12700000000E+01 0. -1.
          1    1    1    2  502    0  0.43502759265E+02  0.13790010504E+02  0.68299413311E+02  0.82142950470E+02  0.00000000000E+00 0. -1.
          1    1    1    2  503    0  0.70386138869E+01  0.36077090794E+02  0.10519566175E+04  0.10525986052E+04  0.00000000000E+00 0. -1.
<mgrwt>
<rscale>  0 0.42366332E+02</rscale>
<asrwt>0</asrwt>
<pdfrwt beam="1">  1        1 0.23205922E+00 0.36757293E+02</pdfrwt>
<pdfrwt beam="2">  1        1 0.32011090E-02 0.48831293E+02</pdfrwt>
<totfact> 0.26422322E+03</totfact>
</mgrwt>
</event>
<event>
 7    1  0.4251803E-004  0.5703297E+02  0.7546771E-02  0.1451151E+00
         -2   -1    0    0    0  501 -0.00000000000E+00  0.00000000000E+00  0.25401541085E+02  0.25401541085E+02  0.00000000000E+00 0. -1.
          2   -1    0    0  503    0  0.00000000000E+00 -0.00000000000E+00 -0.74553201243E+03  0.74553201243E+03  0.00000000000E+00 0.  1.
         25    2    1    2    0    0  0.40799077471E+02  0.47538174156E+02 -0.29896882106E+03  0.33004880444E+03  0.12500165847E+03 0.  0.
          4    1    3    3  502    0 -0.18545801315E+02  0.24395197611E+02 -0.73330096777E+01  0.31535033595E+02  0.12700000000E+01 0.  1.
         -4    1    3    3    0  502  0.59344878786E+02  0.23142976545E+02 -0.29163581138E+03  0.29851377084E+03  0.12700000000E+01 0.  1.
          2    1    1    2  503    0 -0.58478141238E+02 -0.94476348042E+01 -0.94473633123E+02  0.11150882549E+03  0.00000000000E+00 0. -1.
         -2    1    1    2    0  501  0.17679063767E+02 -0.38090539352E+02 -0.32668801716E+03  0.32937592359E+03  0.00000000000E+00 0.  1.
<mgrwt>
<rscale>  0 0.48938773E+02</rscale>
<asrwt>0</asrwt>
<pdfrwt beam="2">  1        2 0.11469723E+00 0.57032971E+02</pdfrwt>
<pdfrwt beam="1">  1       -2 0.39079296E-02 0.41993315E+02</pdfrwt>
<totfact> 0.95373754E+03</totfact>
</mgrwt>
</event>
<event>
 7    1  0.4251803E-004  0.4852480E+02  0.7546771E-02  0.1460936E+00
          1   -1    0    0  502    0  0.00000000000E+00  0.00000000000E+00  0.11456418054E+02  0.11456418054E+02  0.00000000000E+00 0. -1.
          1   -1    0    0  503    0 -0.00000000000E+00 -0.00000000000E+00 -0.13635138062E+04  0.13635138062E+04  0.00000000000E+00 0. -1.
         25    2    1    2    0    0  0.95028858452E+01  0.62890429492E+00 -0.56559140855E+03  0.57932539440E+03  0.12503427853E+03 0.  0.
          4    1    3    3  501    0 -0.37225386851E+02 -0.42099222369E+01 -0.54899453267E+02  0.66475677811E+02  0.12700000000E+01 0.  1.
         -4    1    3    3    0  501  0.46728272696E+02  0.48388265318E+01 -0.51069195529E+03  0.51284971659E+03  0.12700000000E+01 0.  1.
          1    1    1    2  502    0  0.45828780652E+02 -0.33576149147E+01 -0.15275294526E+03  0.15951493034E+03  0.00000000000E+00 0. -1.
          1    1    1    2  503    0 -0.55331666497E+02  0.27287106198E+01 -0.63371303434E+03  0.63612989953E+03  0.00000000000E+00 0. -1.
<mgrwt>
<rscale>  0 0.47220681E+02</rscale>
<asrwt>0</asrwt>
<pdfrwt beam="1">  1        1 0.17625257E-02 0.45951613E+02</pdfrwt>
<pdfrwt beam="2">  1        1 0.20977137E+00 0.48524797E+02</pdfrwt>
<totfact> 0.69914488E+03</totfact>
</mgrwt>
</event>
<event>
 7    1  0.4251803E-004  0.4309795E+02  0.7546771E-02  0.1514824E+00
          1   -1    0    0  503    0  0.00000000000E+00  0.00000000000E+00  0.15533848326E+04  0.15533848326E+04  0.00000000000E+00 0. -1.
         -1   -1    0    0    0  501 -0.00000000000E+00 -0.00000000000E+00 -0.28739563531E+02  0.28739563531E+02  0.00000000000E+00 0.  1.
         25    2    1    2    0    0 -0.12935160213E+02 -0.32499341770E+02  0.12879146862E+03  0.18285128808E+03  0.12499530223E+03 0.  0.
          4    1    3    3  502    0  0.49763423544E+01 -0.77562556491E+02  0.57789228589E+02  0.96860322081E+02  0.12700000000E+01 0.  1.
         -4    1    3    3    0  502 -0.17911502568E+02  0.45063214722E+02  0.71002240026E+02  0.85990966002E+02  0.12700000000E+01 0.  1.
          1    1    1    2  503    0  0.40614863454E+02 -0.14417562581E+02  0.66023378214E+03  0.66163893501E+03  0.00000000000E+00 0. -1.
         -1    1    1    2    0  501 -0.27679703240E+02  0.46916904351E+02  0.73562001827E+03  0.73763417300E+03  0.00000000000E+00 0.  1.
<mgrwt>
<rscale>  0 0.39115432E+02</rscale>
<asrwt>0</asrwt>
<pdfrwt beam="1">  1        1 0.23898222E+00 0.43097949E+02</pdfrwt>
<pdfrwt beam="2">  1       -1 0.44214725E-02 0.35500924E+02</pdfrwt>
<totfact> 0.13628308E+03</totfact>
</mgrwt>
</event>
<event>
 7    1  0.4251803E-004  0.8819478E+02  0.7546771E-02  0.1395580E+00
          1   -1    0    0  503    0 -0.00000000000E+00  0.00000000000E+00  0.20574735454E+03  0.20574735454E+03  0.00000000000E+00 0. -1.
          2   -1    0    0  502    0  0.00000000000E+00 -0.00000000000E+00 -0.90885077306E+03  0.90885077306E+03  0.00000000000E+00 0. -1.
         25    2    1    2    0    0  0.68278678334E+02 -0.91788396103E+01 -0.46942647750E+03  0.49064404434E+03  0.12499652580E+03 0.  0.
          4    1    3    3  501    0  0.74931421595E+02 -0.41257731514E+02 -0.17921397505E+03  0.19858544787E+03  0.12700000000E+01 0.  1.
         -4    1    3    3    0  501 -0.66527432609E+01  0.32078891904E+02 -0.29021250244E+03  0.29205859647E+03  0.12700000000E+01 0.  1.
          2    1    1    2  502    0 -0.98559998187E+02 -0.19281335594E+02 -0.42062242846E+03  0.43244545375E+03  0.00000000000E+00 0. -1.
          1    1    1    2  503    0  0.30281319853E+02  0.28460175204E+02  0.18694548743E+03  0.19150862951E+03  0.00000000000E+00 0. -1.
<mgrwt>
<rscale>  0 0.60539769E+02</rscale>
<asrwt>0</asrwt>
<pdfrwt beam="2">  1        2 0.13982320E+00 0.88194785E+02</pdfrwt>
<pdfrwt beam="1">  1        1 0.31653439E-01 0.41556466E+02</pdfrwt>
<totfact> 0.58900798E+02</totfact>
</mgrwt>
</event>
<event>
 7    1  0.4251803E-004  0.1919240E+03  0.7546771E-02  0.1201299E+00
          1   -1    0    0  503    0  0.00000000000E+00  0.00000000000E+00  0.33111451482E+03  0.33111451482E+03  0.00000000000E+00 0. -1.
         -1   -1    0    0    0  501 -0.00000000000E+00 -0.00000000000E+00 -0.31151161734E+03  0.31151161734E+03  0.00000000000E+00 0.  1.
         25    2    1    2    0    0  0.10722387086E+03  0.59664414842E+02  0.31204413096E+02  0.17791822309E+03  0.12499751130E+03 0.  0.
          4    1    3    3  502    0  0.16440260337E+01  0.60881796481E+02  0.38513954956E+02  0.72071031564E+02  0.12700000000E+01 0.  1.
         -4    1    3    3    0  502  0.10557984483E+03 -0.12173816393E+01 -0.73095418602E+01  0.10584719153E+03  0.12700000000E+01 0.  1.
          1    1    1    2  503    0  0.11510578612E+03  0.15823459422E+02  0.14249613121E+03  0.18386101076E+03  0.00000000000E+00 0. -1.
         -1    1    1    2    0  501 -0.22232965698E+03 -0.75487874264E+02 -0.15409764683E+03  0.28084689831E+03  0.00000000000E+00 0.  1.
<mgrwt>
<rscale>  0 0.14932957E+03</rscale>
<asrwt>0</asrwt>
<pdfrwt beam="1">  1        1 0.50940695E-01 0.11618831E+03</pdfrwt>
<pdfrwt beam="2">  1       -1 0.47924864E-01 0.19192395E+03</pdfrwt>
<totfact> 0.34860667E+02</totfact>
</mgrwt>
</event>
<event>
 7    1  0.4251803E-004  0.1306420E+03  0.7546771E-02  0.1323411E+00
          2   -1    0    0  502    0  0.00000000000E+00  0.00000000000E+00  0.15615976602E+04  0.15615976602E+04  0.00000000000E+00 0. -1.
          3   -1    0    0  503    0 -0.00000000000E+00 -0.00000000000E+00 -0.51008746152E+03  0.51008746152E+03  0.00000000000E+00 0. -1.
         25    2    1    2    0    0  0.14197962067E+03  0.17253816044E+02  0.68688483279E+03  0.71266528892E+03  0.12500053463E+03 0.  0.
          4    1    3    3  501    0  0.10642539809E+03 -0.46101724015E+02  0.46177182854E+03  0.47611612958E+03  0.12700000000E+01 0. -1.
         -4    1    3    3    0  501  0.35554222572E+02  0.63355540059E+02  0.22511300426E+03  0.23654915934E+03  0.12700000000E+01 0. -1.
          2    1    1    2  502    0 -0.15331017926E+02 -0.49160424105E+02  0.85245516288E+03  0.85400912883E+03  0.00000000000E+00 0. -1.
          3    1    1    2  503    0 -0.12664860274E+03  0.31906608061E+02 -0.48782979703E+03  0.50501070393E+03  0.00000000000E+00 0. -1.
<mgrwt>
<rscale>  0 0.82021203E+02</rscale>
<asrwt>0</asrwt>
<pdfrwt beam="1">  1        2 0.24024579E+00 0.51495509E+02</pdfrwt>
<pdfrwt beam="2">  1        3 0.78474995E-01 0.13064203E+03</pdfrwt>
<totfact> 0.13899159E+01</totfact>
</mgrwt>
</event>
<event>
 7    1  0.4251803E-004  0.3041577E+03  0.7546771E-02  0.1145617E+00
          1   -1    0    0  502    0  0.00000000000E+00  0.00000000000E+00  0.28125277254E+03  0.28125277254E+03  0.00000000000E+00 0. -1.
          1   -1    0    0  503    0 -0.00000000000E+00 -0.00000000000E+00 -0.11619650756E+04  0.11619650756E+04  0.00000000000E+00 0. -1.
         25    2    1    2    0    0  0.16133502122E+03 -0.38034866274E+03 -0.31303049357E+03  0.53320321602E+03  0.12499394128E+03 0.  0.
          4    1    3    3  501    0  0.11901348250E+03 -0.30746047832E+03 -0.17976714914E+03  0.37551830256E+03  0.12700000000E+01 0. -1.
         -4    1    3    3    0  501  0.42321538721E+02 -0.72888184413E+02 -0.13326334442E+03  0.15768491346E+03  0.12700000000E+01 0. -1.
          1    1    1    2  502    0 -0.34196203883E+02  0.13382012288E+03  0.11076896251E+03  0.17705075177E+03  0.00000000000E+00 0. -1.
          1    1    1    2  503    0 -0.12713881734E+03  0.24652853986E+03 -0.67845077199E+03  0.73296388032E+03  0.00000000000E+00 0. -1.
<mgrwt>
<rscale>  0 0.20496425E+03</rscale>
<asrwt>0</asrwt>
<pdfrwt beam="1">  1        1 0.43269657E-01 0.13812026E+03</pdfrwt>
<pdfrwt beam="2">  1        1 0.17876386E+00 0.30415773E+03</pdfrwt>
<totfact> 0.13829480E+02</totfact>
</mgrwt>
</event>
<event>
 7    1  0.4251803E-004  0.4415660E+02  0.7546771E-02  0.1549296E+00
         -2   -1    0    0    0  501 -0.00000000000E+00  0.00000000000E+00  0.21772604832E+04  0.21772604832E+04  0.00000000000E+00 0.  1.
          1   -1    0    0  503    0  0.00000000000E+00 -0.00000000000E+00 -0.10036912703E+02  0.10036912703E+02  0.00000000000E+00 0. -1.
         25    2    1    2    0    0  0.34046925706E+02  0.26120186990E+02  0.48941372032E+03  0.50694465310E+03  0.12500253736E+03 0.  0.
          4    1    3    3  502    0  0.63214039018E+02 -0.12635566576E+02  0.13946618904E+03  0.15364928590E+03  0.12700000000E+01 0. -1.
         -4    1    3    3    0  502 -0.29167113312E+02  0.38755753566E+02  0.34994753129E+03  0.35329536720E+03  0.12700000000E+01 0. -1.
          1    1    1    2  503    0 -0.52850030192E+02 -0.58910463880E+01  0.14336362228E+04  0.14346221278E+04  0.00000000000E+00 0. -1.
         -2    1    1    2    0  501  0.18803104485E+02 -0.20229140602E+02  0.24417362739E+03  0.24573061507E+03  0.00000000000E+00 0.  1.
<mgrwt>
<rscale>  0 0.34921822E+02</rscale>
<asrwt>0</asrwt>
<pdfrwt beam="2">  1        1 0.15441421E-02 0.44156598E+02</pdfrwt>
<pdfrwt beam="1">  1       -2 0.33496278E+00 0.27618379E+02</pdfrwt>
<totfact> 0.18320642E+02</totfact>
</mgrwt>
</event>
<event>
 7    1  0.4251803E-004  0.1356178E+03  0.7546771E-02  0.1338757E+00
          1   -1    0    0  503    0  0.00000000000E+00  0.00000000000E+00  0.59067634483E+03  0.59067634483E+03  0.00000000000E+00 0. -1.
         -2   -1    0    0    0  501 -0.00000000000E+00 -0.00000000000E+00 -0.72620426244E+02  0.72620426244E+02  0.00000000000E+00 0.  1.
         25    2    1    2    0    0 -0.31495557183E+02 -0.15308263502E+03  0.41419465060E+03  0.46000884068E+03  0.12499864657E+03 0.  0.
          4    1    3    3  502    0 -0.46250922548E+01 -0.10536564276E+03  0.11582904220E+03  0.15665659919E+03  0.12700000000E+01 0.  1.
         -4    1    3    3    0  502 -0.26870464929E+02 -0.47716992264E+02  0.29836560841E+03  0.30335224149E+03  0.12700000000E+01 0.  1.
          1    1    1    2  503    0 -0.25659360436E+02  0.34942552924E+02  0.29624353200E+02  0.52507019391E+02  0.00000000000E+00 0. -1.
         -2    1    1    2    0  501  0.57154917619E+02  0.11814008210E+03  0.74236914779E+02  0.15078091100E+03  0.00000000000E+00 0.  1.
<mgrwt>
<rscale>  0 0.76676507E+02</rscale>
<asrwt>0</asrwt>
<pdfrwt beam="1">  1        1 0.90873281E-01 0.43351872E+02</pdfrwt>
<pdfrwt beam="2">  1       -2 0.11172374E-01 0.13561783E+03</pdfrwt>
<totfact> 0.17920058E+03</totfact>
</mgrwt>
</event>
<event>
 7    1  0.4251803E-004  0.1842647E+03  0.7546771E-02  0.1303761E+00
          2   -1    0    0  503    0  0.00000000000E+00  0.00000000000E+00  0.34997194503E+04  0.34997194503E+04  0.00000000000E+00 0.  1.
          2   -1    0    0  502    0 -0.00000000000E+00 -0.00000000000E+00 -0.23888866625E+04  0.23888866625E+04  0.00000000000E+00 0. -1.
         25    2    1    2    0    0 -0.11494751517E+03  0.19147495354E+03  0.30369050357E+03  0.39714915498E+03  0.12499576099E+03 0.  0.
          4    1    3    3  501    0  0.18159368208E+02  0.73569553243E+02  0.67399400112E+02  0.10142255101E+03  0.12700000000E+01 0. -1.
         -4    1    3    3    0  501 -0.13310688337E+03  0.11790540029E+03  0.23629110346E+03  0.29572660397E+03  0.12700000000E+01 0. -1.
          2    1    1    2  502    0  0.10864811808E+03 -0.14833893380E+03 -0.23383973423E+04  0.23456152675E+04  0.00000000000E+00 0. -1.
          2    1    1    2  503    0  0.62993970819E+01 -0.43136019736E+02  0.31455396265E+04  0.31458416903E+04  0.00000000000E+00 0.  1.
<mgrwt>
<rscale>  0 0.89625624E+02</rscale>
<asrwt>0</asrwt>
<pdfrwt beam="1">  1        2 0.53841838E+00 0.43593561E+02</pdfrwt>
<pdfrwt beam="2">  1        2 0.36752102E+00 0.18426465E+03</pdfrwt>
<totfact> 0.10841039E+00</totfact>
</mgrwt>
</event>
<event>
 7    1  0.4251803E-004  0.1819570E+03  0.7546771E-02  0.1195853E+00
          2   -1    0    0  503    0  0.00000000000E+00  0.00000000000E+00  0.40694049768E+04  0.40694049768E+04  0.00000000000E+00 0. -1.
         -1   -1    0    0    0  501 -0.00000000000E+00 -0.00000000000E+00 -0.58772814378E+03  0.58772814378E+03  0.00000000000E+00 0.  1.
         25    2    1    2    0    0 -0.33260284227E+02 -0.30565741359E+03 -0.21293697424E+03  0.39433495759E+03  0.12500081116E+03 0.  0.
          4    1    3    3  502    0 -0.55378490367E+01 -0.12280131594E+03 -0.16035634916E+03  0.20205593925E+03  0.12700000000E+01 0. -1.
         -4    1    3    3    0  502 -0.27722435190E+02 -0.18285609765E+03 -0.52580625073E+02  0.19227901834E+03  0.12700000000E+01 0. -1.
          2    1    1    2  503    0  0.42864069660E+02  0.17597414126E+03  0.39616470627E+04  0.39657851273E+04  0.00000000000E+00 0. -1.
         -1    1    1    2    0  501 -0.96037854329E+01  0.12968327233E+03 -0.26703325546E+03  0.29701303563E+03  0.00000000000E+00 0.  1.
<mgrwt>
<rscale>  0 0.15382260E+03</rscale>
<asrwt>0</asrwt>
<pdfrwt beam="1">  1        2 0.62606229E+00 0.18195696E+03</pdfrwt>
<pdfrwt beam="2">  1       -1 0.90419717E-01 0.13003839E+03</pdfrwt>
<totfact> 0.64179008E-01</totfact>
</mgrwt>
</event>
<event>
 7    1  0.4251803E-004  0.1506755E+03  0.7546771E-02  0.1239846E+00
          2   -1    0    0  503    0  0.00000000000E+00  0.00000000000E+00  0.43107470708E+03  0.43107470708E+03  0.00000000000E+00 0. -1.
         -1   -1    0    0    0  501 -0.00000000000E+00 -0.00000000000E+00 -0.20826858504E+03  0.20826858504E+03  0.00000000000E+00 0.  1.
         25    2    1    2    0    0 -0.83290909358E+02  0.14745677472E+03 -0.44830418734E+02  0.21521353856E+03  0.12500489888E+03 0.  0.
          4    1    3    3  502    0 -0.24993924811E+02 -0.20712401307E+02 -0.59838568388E+01  0.33032094818E+02  0.12700000000E+01 0. -1.
         -4    1    3    3    0  502 -0.58296984546E+02  0.16816917603E+03 -0.38846561895E+02  0.18218144374E+03  0.12700000000E+01 0. -1.
          2    1    1    2  503    0 -0.50605489924E+02 -0.84820288064E+02  0.25769293719E+03  0.27597290946E+03  0.00000000000E+00 0. -1.
         -1    1    1    2    0  501  0.13389639928E+03 -0.62636486656E+02  0.99436035840E+01  0.14815684410E+03  0.00000000000E+00 0.  1.
<mgrwt>
<rscale>  0 0.12199234E+03</rscale>
<asrwt>0</asrwt>
<pdfrwt beam="1">  1        2 0.66319185E-01 0.98769413E+02</pdfrwt>
<pdfrwt beam="2">  1       -1 0.32041321E-01 0.15067550E+03</pdfrwt>
<totfact> 0.76913135E+02</totfact>
</mgrwt>
</event>
<event>
 7    1  0.4251803E-004  0.6623444E+02  0.7546771E-02  0.1474431E+00
          3   -1    0    0  503    0  0.00000000000E+00  0.00000000000E+00  0.38093427583E+03  0.38093427583E+03  0.00000000000E+00 0. -1.
         -3   -1    0    0    0  501 -0.00000000000E+00 -0.00000000000E+00 -0.46917815176E+02  0.46917815176E+02  0.00000000000E+00 0.  1.
         25    2    1    2    0    0  0.35988844677E+02  0.35362308555E+02  0.91216764483E+02  0.16275653140E+03  0.12499400218E+03 0.  0.
          4    1    3    3  502    0 -0.42381854830E+02 -0.65396722598E+01  0.46482470263E+02  0.63255212226E+02  0.12700000000E+01 0. -1.
         -4    1    3    3    0  502  0.78370699507E+02  0.41901980815E+02  0.44734294221E+02  0.99501319171E+02  0.12700000000E+01 0. -1.
          3    1    1    2  503    0 -0.65509691273E+02 -0.27485308613E+02  0.12903037982E+03  0.14729494478E+03  0.00000000000E+00 0. -1.
         -3    1    1    2    0  501  0.29520846596E+02 -0.78769999423E+01  0.11376931635E+03  0.11780061483E+03  0.00000000000E+00 0.  1.
<mgrwt>
<rscale>  0 0.44985620E+02</rscale>
<asrwt>0</asrwt>
<pdfrwt beam="1">  1        3 0.58605271E-01 0.66234438E+02</pdfrwt>
<pdfrwt beam="2">  1       -3 0.72181257E-02 0.30553682E+02</pdfrwt>
<totfact> 0.64854242E+02</totfact>
</mgrwt>
</event>
<event>
 7    1  0.4251803E-004  0.1052043E+03  0.7546771E-02  0.1372246E+00
         -2   -1    0    0    0  501 -0.00000000000E+00  0.00000000000E+00  0.82397583605E+03  0.82397583605E+03  0.00000000000E+00 0.  1.
          1   -1    0    0  503    0  0.00000000000E+00 -0.00000000000E+00 -0.36150776662E+02  0.36150776662E+02  0.00000000000E+00 0. -1.
         25    2    1    2    0    0 -0.11827987170E+03  0.55346585314E+02  0.53174503788E+03  0.56162997615E+03  0.12498828841E+03 0.  0.
          4    1    3    3  502    0 -0.10752776824E+03  0.66298820782E+02  0.25618419208E+03  0.28563912153E+03  0.12700000000E+01 0. -1.
         -4    1    3    3    0  502 -0.10752103464E+02 -0.10952235468E+02  0.27556084580E+03  0.27599085462E+03  0.12700000000E+01 0. -1.
          1    1    1    2  503    0  0.97853122532E+02 -0.18541161777E+02  0.11941474426E+03  0.15549562507E+03  0.00000000000E+00 0. -1.
         -2    1    1    2    0  501  0.20426749172E+02 -0.36805423537E+02  0.13666527725E+03  0.14300101150E+03  0.00000000000E+00 0.  1.
<mgrwt>
<rscale>  0 0.66546616E+02</rscale>
<asrwt>0</asrwt>
<pdfrwt beam="2">  1        1 0.55616586E-02 0.10520428E+03</pdfrwt>
<pdfrwt beam="1">  1       -2 0.12676550E+00 0.42093839E+02</pdfrwt>
<totfact> 0.61106238E+02</totfact>
</mgrwt>
</event>
<event>
 7    1  0.4251803E-004  0.7016940E+02  0.7546771E-02  0.1381124E+00
          2   -1    0    0  503    0  0.00000000000E+00  0.00000000000E+00  0.29944728522E+04  0.29944728522E+04  0.00000000000E+00 0. -1.
         -1   -1    0    0    0  501 -0.00000000000E+00 -0.00000000000E+00 -0.77029115494E+03  0.77029115494E+03  0.00000000000E+00 0.  1.
         25    2    1    2    0    0 -0.11003534285E+03  0.51494626723E+02  0.65691361398E+02  0.18627864235E+03  0.12499961750E+03 0.  0.
          4    1    3    3  502    0 -0.63664878689E+02  0.14825153352E+02  0.98826900519E+02  0.11849629157E+03  0.12700000000E+01 0.  1.
         -4    1    3    3    0  502 -0.46370464165E+02  0.36669473371E+02 -0.33135539121E+02  0.67782350778E+02  0.12700000000E+01 0.  1.
          2    1    1    2  503    0  0.51512670844E+02 -0.47169103399E+02  0.28668492207E+04  0.28676999379E+04  0.00000000000E+00 0. -1.
         -1    1    1    2    0  501  0.58522672011E+02 -0.43255233239E+01 -0.70835888486E+03  0.71078542687E+03  0.00000000000E+00 0.  1.
<mgrwt>
<rscale>  0 0.64169326E+02</rscale>
<asrwt>0</asrwt>
<pdfrwt beam="1">  1        2 0.46068812E+00 0.70169400E+02</pdfrwt>
<pdfrwt beam="2">  1       -1 0.11850633E+00 0.58682308E+02</pdfrwt>
<totfact> 0.22149364E+00</totfact>
</mgrwt>
</event>
<event>
 7    1  0.4251803E-004  0.7363276E+02  0.7546771E-02  0.1458778E+00
          1   -1    0    0  502    0  0.00000000000E+00  0.00000000000E+00  0.56868042298E+02  0.56868042298E+02  0.00000000000E+00 0. -1.
          1   -1    0    0  503    0 -0.00000000000E+00 -0.00000000000E+00 -0.10911717008E+04  0.10911717008E+04  0.00000000000E+00 0. -1.
         25    2    1    2    0    0 -0.58477985684E+02  0.41746373480E+02 -0.36842240409E+03  0.39563006466E+03  0.12500258285E+03 0.  0.
          4    1    3    3  501    0  0.21132023448E+02  0.96818442356E+01 -0.72256716670E+01  0.24374653922E+02  0.12700000000E+01 0.  1.
         -4    1    3    3    0  501 -0.79610009132E+02  0.32064529245E+02 -0.36119673242E+03  0.37125541073E+03  0.12700000000E+01 0.  1.
          1    1    1    2  502    0  0.72839059954E+02 -0.14543156949E+02  0.10775325809E+02  0.75054245152E+02  0.00000000000E+00 0. -1.
          1    1    1    2  503    0 -0.14361074270E+02 -0.27203216532E+02 -0.67665658026E+03  0.67735543333E+03  0.00000000000E+00 0. -1.
<mgrwt>
<rscale>  0 0.47592404E+02</rscale>
<asrwt>0</asrwt>
<pdfrwt beam="1">  1        1 0.87489300E-02 0.73632761E+02</pdfrwt>
<pdfrwt beam="2">  1        1 0.16787256E+00 0.30761265E+02</pdfrwt>
<totfact> 0.13509370E+03</totfact>
</mgrwt>
</event>
<event>
 7    1  0.4251803E-004  0.3069932E+02  0.7546771E-02  0.1663044E+00
          2   -1    0    0  503    0  0.00000000000E+00  0.00000000000E+00  0.92047795926E+03  0.92047795926E+03  0.00000000000E+00 0. -1.
         -1   -1    0    0    0  501 -0.00000000000E+00 -0.00000000000E+00 -0.13011902255E+02  0.13011902255E+02  0.00000000000E+00 0.  1.
         25    2    1    2    0    0 -0.45895712140E+00 -0.18335461316E+02  0.39830479475E+03  0.41786129914E+03  0.12499982407E+03 0.  0.
          4    1    3    3  502    0  0.35406187186E+01  0.35256562419E+02  0.32516047531E+03  0.32708792210E+03  0.12700000000E+01 0.  1.
         -4    1    3    3    0  502 -0.39995758400E+01 -0.53592023735E+02  0.73144319434E+02  0.90773377046E+02  0.12700000000E+01 0.  1.
          2    1    1    2  503    0 -0.18262614491E+02  0.25729456456E+02  0.47448970922E+03  0.47553760332E+03  0.00000000000E+00 0. -1.
         -1    1    1    2    0  501  0.18721571612E+02 -0.73939951400E+01  0.34671553045E+02  0.40090959060E+02  0.00000000000E+00 0.  1.
<mgrwt>
<rscale>  0 0.24858406E+02</rscale>
<asrwt>0</asrwt>
<pdfrwt beam="1">  1        2 0.14161194E+00 0.30699320E+02</pdfrwt>
<pdfrwt beam="2">  1       -1 0.20018318E-02 0.20128795E+02</pdfrwt>
<totfact> 0.17361792E+04</totfact>
</mgrwt>
</event>
<event>
 7    1  0.4251803E-004  0.4276249E+02  0.7546771E-02  0.1497744E+00
          1   -1    0    0  503    0  0.00000000000E+00  0.00000000000E+00  0.25537017184E+03  0.25537017184E+03  0.00000000000E+00 0. -1.
         -2   -1    0    0    0  501 -0.00000000000E+00 -0.00000000000E+00 -0.50101143941E+02  0.50101143941E+02  0.00000000000E+00 0.  1.
         25    2    1    2    0    0 -0.26820559879E+02  0.32254245796E+02  0.14700696083E+03  0.19746473787E+03  0.12498638872E+03 0.  0.
          4    1    3    3  502    0  0.15181510999E+02  0.65987169349E+02  0.42698679733E+02  0.80059821046E+02  0.12700000000E+01 0.  1.
         -4    1    3    3    0  502 -0.42002070878E+02 -0.33732923553E+02  0.10430828110E+03  0.11740491683E+03  0.12700000000E+01 0.  1.
          1    1    1    2  503    0  0.49847171059E+02  0.69070207273E+00  0.24664971537E+02  0.55619945639E+02  0.00000000000E+00 0. -1.
         -2    1    1    2    0  501 -0.23026611179E+02 -0.32944947869E+02  0.33597095533E+02  0.52386632271E+02  0.00000000000E+00 0.  1.
<mgrwt>
<rscale>  0 0.41458597E+02</rscale>
<asrwt>0</asrwt>
<pdfrwt beam="1">  1        1 0.39287718E-01 0.42762495E+02</pdfrwt>
<pdfrwt beam="2">  1       -2 0.77078685E-02 0.40194457E+02</pdfrwt>
<totfact> 0.79945225E+03</totfact>
</mgrwt>
</event>
<event>
 7    1  0.4251803E-004  0.7716093E+02  0.7546771E-02  0.1397794E+00
          1   -1    0    0  502    0  0.00000000000E+00  0.00000000000E+00  0.54987111475E+03  0.54987111475E+03  0.00000000000E+00 0. -1.
          1   -1    0    0  503    0 -0.00000000000E+00 -0.00000000000E+00 -0.85726576381E+02  0.85726576381E+02  0.00000000000E+00 0. -1.
         25    2    1    2    0    0  0.17762947007E+02  0.18154167026E+02  0.40369522127E+03  0.42336719079E+03  0.12499940199E+03 0.  0.
          4    1    3    3  501    0 -0.21210779398E+00  0.52994911670E+02  0.36298255338E+03  0.36683300371E+03  0.12700000000E+01 0.  1.
         -4    1    3    3    0  501  0.17975054801E+02 -0.34840744644E+02  0.40712667893E+02  0.56534187086E+02  0.12700000000E+01 0.  1.
          1    1    1    2  502    0 -0.33740303430E+02 -0.93642801010E+02  0.85384340698E+02  0.13114064165E+03  0.00000000000E+00 0. -1.
          1    1    1    2  503    0  0.15977356423E+02  0.75488633984E+02 -0.24935023602E+02  0.81089858682E+02  0.00000000000E+00 0. -1.
<mgrwt>
<rscale>  0 0.60008960E+02</rscale>
<asrwt>0</asrwt>
<pdfrwt beam="1">  1        1 0.84595554E-01 0.46669668E+02</pdfrwt>
<pdfrwt beam="2">  1        1 0.13188704E-01 0.77160934E+02</pdfrwt>
<totfact> 0.20678366E+03</totfact>
</mgrwt>
</event>
<event>
 7    1  0.4251803E-004  0.1241354E+03  0.7546771E-02  0.1344213E+00
          2   -1    0    0  503    0  0.00000000000E+00  0.00000000000E+00  0.51000996194E+03  0.51000996194E+03  0.00000000000E+00 0. -1.
         -1   -1    0    0    0  501 -0.00000000000E+00 -0.00000000000E+00 -0.75091678140E+02  0.75091678140E+02  0.00000000000E+00 0.  1.
         25    2    1    2    0    0 -0.13642958349E+03 -0.43178215695E+02  0.13378029525E+03  0.23237873739E+03  0.12500128252E+03 0.  0.
          4    1    3    3  502    0 -0.30434949287E+02  0.10146299427E+00 -0.23050324377E+02  0.38199827051E+02  0.12700000000E+01 0.  1.
         -4    1    3    3    0  502 -0.10599463420E+03 -0.43279678689E+02  0.15683061963E+03  0.19417891033E+03  0.12700000000E+01 0.  1.
          2    1    1    2  503    0  0.24623229923E+02  0.37880918746E+02  0.18883530174E+03  0.19416497789E+03  0.00000000000E+00 0. -1.
         -1    1    1    2    0  501  0.11180635356E+03  0.52972969488E+01  0.11230268681E+03  0.15855792480E+03  0.00000000000E+00 0.  1.
<mgrwt>
<rscale>  0 0.74889823E+02</rscale>
<asrwt>0</asrwt>
<pdfrwt beam="1">  1        2 0.78463069E-01 0.45180388E+02</pdfrwt>
<pdfrwt beam="2">  1       -1 0.11552566E-01 0.12413540E+03</pdfrwt>
<totfact> 0.33170692E+03</totfact>
</mgrwt>
</event>
<event>
 7    1  0.4251803E-004  0.1289332E+03  0.7546771E-02  0.1350965E+00
          2   -1    0    0  503    0  0.00000000000E+00  0.00000000000E+00  0.11983654150E+04  0.11983654150E+04  0.00000000000E+00 0. -1.
         -2   -1    0    0    0  501 -0.00000000000E+00 -0.00000000000E+00 -0.29301638806E+03  0.29301638806E+03  0.00000000000E+00 0.  1.
         25    2    1    2    0    0 -0.10189198866E+02  0.11010022555E+03  0.12227613759E+03  0.20688528511E+03  0.12499675168E+03 0.  0.
          4    1    3    3  502    0 -0.38781510650E+02  0.12457635107E+03  0.77344663363E+02  0.15168085794E+03  0.12700000000E+01 0. -1.
         -4    1    3    3    0  502  0.28592311784E+02 -0.14476125519E+02  0.44931474226E+02  0.55204427171E+02  0.12700000000E+01 0. -1.
          2    1    1    2  503    0  0.36639160079E+02  0.18523583076E+02  0.10161469776E+04  0.10169760229E+04  0.00000000000E+00 0. -1.
         -2    1    1    2    0  501 -0.26449961213E+02 -0.12862380863E+03 -0.23307408829E+03  0.26752049496E+03  0.00000000000E+00 0.  1.
<mgrwt>
<rscale>  0 0.72755840E+02</rscale>
<asrwt>0</asrwt>
<pdfrwt beam="1">  1        2 0.18436391E+00 0.41055465E+02</pdfrwt>
<pdfrwt beam="2">  1       -2 0.45079445E-01 0.12893320E+03</pdfrwt>
<totfact> 0.10784812E+02</totfact>
</mgrwt>
</event>
<event>
 7    1  0.4251803E-004  0.4527009E+02  0.7546771E-02  0.1476315E+00
          1   -1    0    0  503    0 -0.00000000000E+00  0.00000000000E+00  0.41634988524E+03  0.41634988524E+03  0.00000000000E+00 0. -1.
          2   -1    0    0  502    0  0.00000000000E+00 -0.00000000000E+00 -0.11673919920E+04  0.11673919920E+04  0.00000000000E+00 0. -1.
         25    2    1    2    0    0 -0.76011809531E+02  0.33309668073E+02 -0.10382760889E+03  0.18246276972E+03  0.12500064316E+03 0.  0.
          4    1    3    3  501    0  0.20811662218E+02  0.34414552706E+02  0.33504979906E+00  0.40239431912E+02  0.12700000000E+01 0.  1.
         -4    1    3    3    0  501 -0.96823471749E+02 -0.11048846332E+01 -0.10416265869E+03  0.14222333780E+03  0.12700000000E+01 0.  1.
          2    1    1    2  502    0  0.44814766620E+02 -0.21279681122E+01 -0.10224631422E+04  0.10234470033E+04  0.00000000000E+00 0. -1.
          1    1    1    2  503    0  0.31197042910E+02 -0.31181699961E+02  0.37524864430E+03  0.37783210418E+03  0.00000000000E+00 0. -1.
<mgrwt>
<rscale>  0 0.44685488E+02</rscale>
<asrwt>0</asrwt>
<pdfrwt beam="2">  1        2 0.17959877E+00 0.45270091E+02</pdfrwt>
<pdfrwt beam="1">  1        1 0.64053828E-01 0.44108433E+02</pdfrwt>
<totfact> 0.18832222E+02</totfact>
</mgrwt>
</event>
<event>
 7    1  0.4251803E-004  0.1477575E+03  0.7546771E-02  0.1281188E+00
         -1   -1    0    0    0  501  0.00000000000E+00  0.00000000000E+00  0.54463367263E+03  0.54463367263E+03  0.00000000000E+00 0.  1.
         -1   -1    0    0    0  502 -0.00000000000E+00 -0.00000000000E+00 -0.17051653253E+03  0.17051653253E+03  0.00000000000E+00 0.  1.
         25    2    1    2    0    0 -0.47490712516E+02  0.16716781867E+03 -0.63986923582E+02  0.22342716876E+03  0.12499970390E+03 0.  0.
          4    1    3    3  503    0 -0.16005292116E+02  0.99660281510E+02 -0.98751355144E+02  0.14121538206E+03  0.12700000000E+01 0.  1.
         -4    1    3    3    0  503 -0.31485420399E+02  0.67507537163E+02  0.34764431561E+02  0.82211786706E+02  0.12700000000E+01 0.  1.
         -1    1    1    2    0  501  0.27213239922E+02 -0.61341909618E+02  0.33816762209E+03  0.34476184669E+03  0.00000000000E+00 0.  1.
         -1    1    1    2    0  502  0.20277472594E+02 -0.10582590906E+03  0.99936441592E+02  0.14696118971E+03  0.00000000000E+00 0.  1.
<mgrwt>
<rscale>  0 0.99577155E+02</rscale>
<asrwt>0</asrwt>
<pdfrwt beam="1">  1       -1 0.83789795E-01 0.67107304E+02</pdfrwt>
<pdfrwt beam="2">  1       -1 0.26233313E-01 0.14775753E+03</pdfrwt>
<totfact> 0.16680114E+02</totfact>
</mgrwt>
</event>
<event>
 7    1  0.4251803E-004  0.4606086E+02  0.7546771E-02  0.1567620E+00
         -1   -1    0    0    0  501 -0.00000000000E+00  0.00000000000E+00  0.54532102847E+03  0.54532102847E+03  0.00000000000E+00 0. -1.
          2   -1    0    0  503    0  0.00000000000E+00 -0.00000000000E+00 -0.81782138993E+02  0.81782138993E+02  0.00000000000E+00 0. -1.
         25    2    1    2    0    0 -0.28513487711E+02  0.21279406905E+02  0.94518042272E+02  0.16065234214E+03  0.12493871530E+03 0.  0.
          4    1    3    3  502    0  0.48299780128E+02  0.19032534475E+02  0.27942908390E+02  0.58970544836E+02  0.12700000000E+01 0. -1.
         -4    1    3    3    0  502 -0.76813267839E+02  0.22468724305E+01  0.66575133883E+02  0.10168179731E+03  0.12700000000E+01 0. -1.
          2    1    1    2  503    0 -0.17779142528E+02 -0.15470551118E+02 -0.44473758399E+02  0.50332405536E+02  0.00000000000E+00 0. -1.
         -1    1    1    2    0  501  0.46292630239E+02 -0.58088557875E+01  0.41349460561E+03  0.41611841979E+03  0.00000000000E+00 0. -1.
<mgrwt>
<rscale>  0 0.32947655E+02</rscale>
<asrwt>0</asrwt>
<pdfrwt beam="2">  1        2 0.12581868E-01 0.23567687E+02</pdfrwt>
<pdfrwt beam="1">  1       -1 0.83895540E-01 0.46060863E+02</pdfrwt>
<totfact> 0.74426777E+02</totfact>
</mgrwt>
</event>
<event>
 7    1  0.4251803E-004  0.4766454E+02  0.7546771E-02  0.1462488E+00
          2   -1    0    0  502    0  0.00000000000E+00  0.00000000000E+00  0.15685642150E+04  0.15685642150E+04  0.00000000000E+00 0. -1.
          1   -1    0    0  503    0 -0.00000000000E+00 -0.00000000000E+00 -0.11798423262E+02  0.11798423262E+02  0.00000000000E+00 0. -1.
         25    2    1    2    0    0  0.14127512489E+02  0.14013003153E+02  0.50014852825E+03  0.51591876653E+03  0.12501068947E+03 0.  0.
          4    1    3    3  501    0 -0.10684111317E+02 -0.53538490051E+02  0.21633259703E+03  0.22311863568E+03  0.12700000000E+01 0. -1.
         -4    1    3    3    0  501  0.24811623806E+02  0.67551493204E+02  0.28381593122E+03  0.29280013085E+03  0.12700000000E+01 0. -1.
          2    1    1    2  502    0 -0.48345516560E+02  0.17114179566E+02  0.89137296733E+03  0.89284710393E+03  0.00000000000E+00 0. -1.
          1    1    1    2  503    0  0.34218004071E+02 -0.31127182719E+02  0.16524429618E+03  0.17159676782E+03  0.00000000000E+00 0. -1.
<mgrwt>
<rscale>  0 0.46955845E+02</rscale>
<asrwt>0</asrwt>
<pdfrwt beam="1">  1        2 0.24131741E+00 0.47664543E+02</pdfrwt>
<pdfrwt beam="2">  1        1 0.18151433E-02 0.46257684E+02</pdfrwt>
<totfact> 0.10832376E+04</totfact>
</mgrwt>
</event>
<event>
 7    1  0.4251803E-004  0.9833059E+02  0.7546771E-02  0.1394501E+00
          2   -1    0    0  503    0  0.00000000000E+00  0.00000000000E+00  0.31910667232E+03  0.31910667232E+03  0.00000000000E+00 0. -1.
         -1   -1    0    0    0  501 -0.00000000000E+00 -0.00000000000E+00 -0.69734720667E+02  0.69734720667E+02  0.00000000000E+00 0.  1.
         25    2    1    2    0    0  0.21937594330E+02 -0.10367215503E+03  0.13986343494E+03  0.21544791723E+03  0.12500740311E+03 0.  0.
          4    1    3    3  502    0  0.71972965912E+02 -0.82590364323E+02  0.94638877866E+02  0.14477363781E+03  0.12700000000E+01 0.  1.
         -4    1    3    3    0  502 -0.50035371582E+02 -0.21081790702E+02  0.45224557078E+02  0.70674279420E+02  0.12700000000E+01 0.  1.
          2    1    1    2  503    0 -0.52022077440E+02  0.81126000203E+02  0.85113388890E+02  0.12857687746E+03  0.00000000000E+00 0. -1.
         -1    1    1    2    0  501  0.30084483110E+02  0.22546154822E+02  0.24395127819E+02  0.44816598294E+02  0.00000000000E+00 0.  1.
<mgrwt>
<rscale>  0 0.60801039E+02</rscale>
<asrwt>0</asrwt>
<pdfrwt beam="1">  1        2 0.49093333E-01 0.98330592E+02</pdfrwt>
<pdfrwt beam="2">  1       -1 0.10728419E-01 0.37595282E+02</pdfrwt>
<totfact> 0.55576147E+03</totfact>
</mgrwt>
</event>
<event>
 7    1  0.4251803E-004  0.7527145E+02  0.7546771E-02  0.1439002E+00
          1   -1    0    0  503    0  0.00000000000E+00  0.00000000000E+00  0.12380391342E+04  0.12380391342E+04  0.00000000000E+00 0. -1.
          1   -1    0    0  502    0 -0.00000000000E+00 -0.00000000000E+00 -0.11532298820E+04  0.11532298820E+04  0.00000000000E+00 0. -1.
         25    2    1    2    0    0  0.37878631743E+02  0.14719732283E+02 -0.21682556292E+03  0.25355397176E+03  0.12499932240E+03 0.  0.
          4    1    3    3  501    0 -0.53063875401E+01  0.45542514292E+01  0.15486856814E+02  0.17039794271E+02  0.12700000000E+01 0. -1.
         -4    1    3    3    0  501  0.43185019283E+02  0.10165480854E+02 -0.23231241974E+03  0.23651417749E+03  0.12700000000E+01 0. -1.
          1    1    1    2  502    0  0.32920224975E+02  0.11342049217E+02 -0.91654258112E+03  0.91720373217E+03  0.00000000000E+00 0. -1.
          1    1    1    2  503    0 -0.70798856718E+02 -0.26061781501E+02  0.12181773962E+04  0.12205113122E+04  0.00000000000E+00 0. -1.
<mgrwt>
<rscale>  0 0.51194713E+02</rscale>
<asrwt>0</asrwt>
<pdfrwt beam="1">  1        1 0.19046756E+00 0.75271446E+02</pdfrwt>
<pdfrwt beam="2">  1        1 0.17741998E+00 0.34819295E+02</pdfrwt>
<totfact> 0.20791178E+01</totfact>
</mgrwt>
</event>
<event>
 7    1  0.4251803E-004  0.9349170E+02  0.7546771E-02  0.1330704E+00
          2   -1    0    0  502    0  0.00000000000E+00  0.00000000000E+00  0.18624186623E+04  0.18624186623E+04  0.00000000000E+00 0. -1.
          1   -1    0    0  503    0 -0.00000000000E+00 -0.00000000000E+00 -0.15432204406E+03  0.15432204406E+03  0.00000000000E+00 0. -1.
         25    2    1    2    0    0  0.37447065805E+02  0.45001425395E+02  0.52150103693E+03  0.53945956791E+03  0.12500353141E+03 0.  0.
          4    1    3    3  501    0  0.74521965130E+02  0.52889788095E+02  0.44233593897E+03  0.45167859013E+03  0.12700000000E+01 0.  1.
         -4    1    3    3    0  501 -0.37074899325E+02 -0.78883627002E+01  0.79165097953E+02  0.87780977779E+02  0.12700000000E+01 0.  1.
          2    1    1    2  502    0 -0.45676330864E+02  0.49653919481E+02  0.13154532477E+04  0.13171822524E+04  0.00000000000E+00 0. -1.
          1    1    1    2  503    0  0.82292650598E+01 -0.94655344876E+02 -0.12885766646E+03  0.16009888607E+03  0.00000000000E+00 0. -1.
<mgrwt>
<rscale>  0 0.79420618E+02</rscale>
<asrwt>0</asrwt>
<pdfrwt beam="1">  1        2 0.28652593E+00 0.67467317E+02</pdfrwt>
<pdfrwt beam="2">  1        1 0.23741854E-01 0.93491705E+02</pdfrwt>
<totfact> 0.27351609E+02</totfact>
</mgrwt>
</event>
<event>
 7    1  0.4251803E-004  0.6936126E+02  0.7546771E-02  0.1416125E+00
          2   -1    0    0  503    0  0.00000000000E+00  0.00000000000E+00  0.71245342386E+03  0.71245342386E+03  0.00000000000E+00 0. -1.
         -3   -1    0    0    0  501 -0.00000000000E+00 -0.00000000000E+00 -0.46263520652E+02  0.46263520652E+02  0.00000000000E+00 0.  1.
         25    2    1    2    0    0 -0.54708149259E+02  0.65016658118E+01  0.19520584670E+03  0.23822451778E+03  0.12494136637E+03 0.  0.
          4    1    3    3  502    0  0.17632344614E+01 -0.18230972854E+02 -0.12069200323E+02  0.21971705974E+02  0.12700000000E+01 0. -1.
         -4    1    3    3    0  502 -0.56471383720E+02  0.24732638666E+02  0.20727504702E+03  0.21625281180E+03  0.12700000000E+01 0. -1.
          2    1    1    2  503    0  0.61954978632E+02  0.37880099679E+02  0.46993301087E+03  0.47551062662E+03  0.00000000000E+00 0. -1.
         -3    1    1    2    0  501 -0.72468293730E+01 -0.44381765490E+02  0.10510456389E+01  0.44981800108E+02  0.00000000000E+00 0.  1.
<mgrwt>
<rscale>  0 0.55849283E+02</rscale>
<asrwt>0</asrwt>
<pdfrwt beam="1">  1        2 0.10960821E+00 0.69361258E+02</pdfrwt>
<pdfrwt beam="2">  1       -3 0.71174653E-02 0.44969519E+02</pdfrwt>
<totfact> 0.27846569E+03</totfact>
</mgrwt>
</event>
<event>
 7    1  0.4251803E-004  0.1019881E+03  0.7546771E-02  0.1351027E+00
          1   -1    0    0  503    0 -0.00000000000E+00  0.00000000000E+00  0.28496047443E+04  0.28496047443E+04  0.00000000000E+00 0. -1.
          2   -1    0    0  502    0  0.00000000000E+00 -0.00000000000E+00 -0.63422451707E+03  0.63422451707E+03  0.00000000000E+00 0. -1.
         25    2    1    2    0    0 -0.75582522010E+02  0.11319863497E+03  0.56929169156E+03  0.59853412803E+03  0.12499369484E+03 0.  0.
          4    1    3    3  501    0 -0.74076058416E+02  0.40430220812E+02  0.45688143534E+03  0.46461179929E+03  0.12700000000E+01 0.  1.
         -4    1    3    3    0  501 -0.15064635941E+01  0.72768414159E+02  0.11241025622E+03  0.13392232874E+03  0.12700000000E+01 0.  1.
          2    1    1    2  502    0 -0.31912080446E+01 -0.51776459691E+02 -0.61741408032E+03  0.61958948681E+03  0.00000000000E+00 0. -1.
          1    1    1    2  503    0  0.78773730054E+02 -0.61422175280E+02  0.22635026160E+04  0.22657056466E+04  0.00000000000E+00 0. -1.
<mgrwt>
<rscale>  0 0.72736535E+02</rscale>
<asrwt>0</asrwt>
<pdfrwt beam="2">  1        2 0.97573004E-01 0.51874710E+02</pdfrwt>
<pdfrwt beam="1">  1        1 0.43840072E+00 0.10198811E+03</pdfrwt>
<totfact> 0.72491223E+00</totfact>
</mgrwt>
</event>
<event>
 7    1  0.4251803E-004  0.7489654E+02  0.7546771E-02  0.1439983E+00
          2   -1    0    0  503    0  0.00000000000E+00  0.00000000000E+00  0.15017325100E+04  0.15017325100E+04  0.00000000000E+00 0. -1.
         -2   -1    0    0    0  501 -0.00000000000E+00 -0.00000000000E+00 -0.14855169112E+02  0.14855169112E+02  0.00000000000E+00 0.  1.
         25    2    1    2    0    0  0.10077149561E+03 -0.17531677213E+02  0.83116090058E+03  0.84670825551E+03  0.12499669298E+03 0.  0.
          4    1    3    3  502    0 -0.47316129285E+01  0.40314368680E+02  0.24222566518E+03  0.24560643773E+03  0.12700000000E+01 0. -1.
         -4    1    3    3    0  502  0.10550310853E+03 -0.57846045893E+02  0.58893523540E+03  0.60110181778E+03  0.12700000000E+01 0. -1.
          2    1    1    2  503    0 -0.67882615372E+02  0.63495075692E+01  0.60239291569E+03  0.60623888904E+03  0.00000000000E+00 0. -1.
         -2    1    1    2    0  501 -0.32888880234E+02  0.11182169644E+02  0.53323524578E+02  0.63640534523E+02  0.00000000000E+00 0.  1.
<mgrwt>
<rscale>  0 0.51007313E+02</rscale>
<asrwt>0</asrwt>
<pdfrwt beam="1">  1        2 0.23103565E+00 0.74896539E+02</pdfrwt>
<pdfrwt beam="2">  1       -2 0.22854118E-02 0.34737866E+02</pdfrwt>
<totfact> 0.73327402E+03</totfact>
</mgrwt>
</event>
<event>
 7    1  0.4251803E-004  0.1213644E+03  0.7546771E-02  0.1390674E+00
          1   -1    0    0  503    0  0.00000000000E+00  0.00000000000E+00  0.65078939912E+03  0.65078939912E+03  0.00000000000E+00 0. -1.
         -3   -1    0    0    0  501 -0.00000000000E+00 -0.00000000000E+00 -0.84603532286E+02  0.84603532286E+02  0.00000000000E+00 0.  1.
         25    2    1    2    0    0 -0.89494250832E+02 -0.95773487499E+02  0.21377996595E+03  0.28019462982E+03  0.12500149958E+03 0.  0.
          4    1    3    3  502    0 -0.63776125166E+02  0.14385424142E+02  0.56271295377E+02  0.86269381314E+02  0.12700000000E+01 0. -1.
         -4    1    3    3    0  502 -0.25718125666E+02 -0.11015891164E+03  0.15750867057E+03  0.19392524850E+03  0.12700000000E+01 0. -1.
          1    1    1    2  503    0  0.30387859654E+02 -0.79380976120E+01  0.33273793749E+03  0.33421695117E+03  0.00000000000E+00 0. -1.
         -3    1    1    2    0  501  0.59106391178E+02  0.10371158511E+03  0.19667963398E+02  0.12098135042E+03  0.00000000000E+00 0.  1.
<mgrwt>
<rscale>  0 0.61739468E+02</rscale>
<asrwt>0</asrwt>
<pdfrwt beam="1">  1        1 0.10012144E+00 0.31407569E+02</pdfrwt>
<pdfrwt beam="2">  1       -3 0.13015928E-01 0.12136443E+03</pdfrwt>
<totfact> 0.83259527E+02</totfact>
</mgrwt>
</event>
<event>
 7    1  0.4251803E-004  0.8397389E+02  0.7546771E-02  0.1323578E+00
         -2   -1    0    0    0  501  0.00000000000E+00  0.00000000000E+00  0.39255871963E+02  0.39255871963E+02  0.00000000000E+00 0.  1.
         -3   -1    0    0    0  502 -0.00000000000E+00 -0.00000000000E+00 -0.73703647002E+03  0.73703647002E+03  0.00000000000E+00 0.  1.
         25    2    1    2    0    0  0.29547008350E+02 -0.34470167052E+02 -0.24285919674E+03  0.27688728668E+03  0.12499904785E+03 0.  0.
          4    1    3    3  503    0  0.63769527848E+02 -0.29576385772E+02 -0.65179588888E+02  0.95871304283E+02  0.12700000000E+01 0.  1.
         -4    1    3    3    0  503 -0.34222519498E+02 -0.48937812801E+01 -0.17767960785E+03  0.18101598239E+03  0.12700000000E+01 0.  1.
         -2    1    1    2    0  501 -0.54381930692E+02 -0.63986089133E+02 -0.10175119714E+03  0.13192770789E+03  0.00000000000E+00 0.  1.
         -3    1    1    2    0  502  0.24834922342E+02  0.98456256184E+02 -0.35317020418E+03  0.36747734742E+03  0.00000000000E+00 0.  1.
<mgrwt>
<rscale>  0 0.81960379E+02</rscale>
<asrwt>0</asrwt>
<pdfrwt beam="1">  1       -2 0.60393652E-02 0.83973889E+02</pdfrwt>
<pdfrwt beam="2">  1       -3 0.11339022E+00 0.79995149E+02</pdfrwt>
<totfact> 0.35467909E+02</totfact>
</mgrwt>
</event>
<event>
 7    1  0.4251803E-004  0.1343244E+03  0.7546771E-02  0.1273624E+00
          1   -1    0    0  503    0 -0.00000000000E+00  0.00000000000E+00  0.21037144040E+04  0.21037144040E+04  0.00000000000E+00 0. -1.
          2   -1    0    0  502    0  0.00000000000E+00 -0.00000000000E+00 -0.30782586058E+03  0.30782586058E+03  0.00000000000E+00 0. -1.
         25    2    1    2    0    0 -0.89990359066E+01 -0.71363427003E+01 -0.94652878736E+02  0.15718154324E+03  0.12495983373E+03 0.  0.
          4    1    3    3  501    0 -0.26914806775E+02 -0.43003460825E+02 -0.10424208512E+03  0.11593847367E+03  0.12700000000E+01 0.  1.
         -4    1    3    3    0  501  0.17915770869E+02  0.35867118124E+02  0.95892063817E+01  0.41243069568E+02  0.12700000000E+01 0.  1.
          2    1    1    2  502    0  0.14329711411E+03  0.44770722417E+01 -0.15110689822E+03  0.20829642767E+03  0.00000000000E+00 0. -1.
          1    1    1    2  503    0 -0.13429807821E+03  0.26592704585E+01  0.20416483204E+04  0.20460622937E+04  0.00000000000E+00 0. -1.
<mgrwt>
<rscale>  0 0.10324146E+03</rscale>
<asrwt>0</asrwt>
<pdfrwt beam="2">  1        2 0.47357826E-01 0.79351172E+02</pdfrwt>
<pdfrwt beam="1">  1        1 0.32364836E+00 0.13432440E+03</pdfrwt>
<totfact> 0.45464944E+01</totfact>
</mgrwt>
</event>
<event>
 7    1  0.4251803E-004  0.1281234E+03  0.7546771E-02  0.1241848E+00
          2   -1    0    0  502    0  0.00000000000E+00  0.00000000000E+00  0.10605530973E+04  0.10605530973E+04  0.00000000000E+00 0.  1.
          2   -1    0    0  503    0 -0.00000000000E+00 -0.00000000000E+00 -0.87820652464E+02  0.87820652464E+02  0.00000000000E+00 0. -1.
         25    2    1    2    0    0 -0.40361313979E+02 -0.52572844532E+02  0.41559414889E+03  0.43901775055E+03  0.12500059624E+03 0.  0.
          4    1    3    3  501    0 -0.51356898421E+02 -0.20921211780E+02  0.39664070850E+03  0.40050055263E+03  0.12700000000E+01 0.  1.
         -4    1    3    3    0  501  0.10995584443E+02 -0.31651632752E+02  0.18953440389E+02  0.38517197921E+02  0.12700000000E+01 0.  1.
          2    1    1    2  502    0  0.19769088925E+02  0.17903063844E+03  0.55253264370E+03  0.58114981608E+03  0.00000000000E+00 0.  1.
          2    1    1    2  503    0  0.20592225054E+02 -0.12645779390E+03  0.46056522927E+01  0.12820618318E+03  0.00000000000E+00 0. -1.
<mgrwt>
<rscale>  0 0.12076055E+03</rscale>
<asrwt>0</asrwt>
<pdfrwt beam="1">  1        2 0.16316201E+00 0.11382079E+03</pdfrwt>
<pdfrwt beam="2">  1        2 0.13510870E-01 0.12812343E+03</pdfrwt>
<totfact> 0.16669779E+03</totfact>
</mgrwt>
</event>
<event>
 7    1  0.4251803E-004  0.4637365E+02  0.7546771E-02  0.1499964E+00
         -1   -1    0    0    0  501 -0.00000000000E+00  0.00000000000E+00  0.81378020773E+01  0.81378020773E+01  0.00000000000E+00 0.  1.
          2   -1    0    0  503    0  0.00000000000E+00 -0.00000000000E+00 -0.16232837243E+04  0.16232837243E+04  0.00000000000E+00 0. -1.
         25    2    1    2    0    0  0.49176585112E+02  0.15296460147E+02 -0.10647746411E+04  0.10733234694E+04  0.12500366209E+03 0.  0.
          4    1    3    3  502    0  0.90358776962E+01  0.13605560264E+02 -0.97292945238E+03  0.97306736178E+03  0.12700000000E+01 0.  1.
         -4    1    3    3    0  502  0.40140707416E+02  0.16908998823E+01 -0.91845188683E+02  0.10025610764E+03  0.12700000000E+01 0.  1.
          2    1    1    2  503    0 -0.43394589901E+02  0.20745318096E+02 -0.41893714996E+03  0.42168921526E+03  0.00000000000E+00 0. -1.
         -1    1    1    2    0  501 -0.57819952110E+01 -0.36041778243E+02 -0.13143413118E+03  0.13640884168E+03  0.00000000000E+00 0.  1.
<mgrwt>
<rscale>  0 0.41143163E+02</rscale>
<asrwt>0</asrwt>
<pdfrwt beam="2">  1        2 0.24973597E+00 0.46373655E+02</pdfrwt>
<pdfrwt beam="1">  1       -1 0.12519695E-02 0.36502620E+02</pdfrwt>
<totfact> 0.15603865E+04</totfact>
</mgrwt>
</event>
<event>
 7    1  0.4251803E-004  0.1218967E+03  0.7546771E-02  0.1379788E+00
          1   -1    0    0  503    0  0.00000000000E+00  0.00000000000E+00  0.21766267707E+04  0.21766267707E+04  0.00000000000E+00 0. -1.
         -1   -1    0    0    0  501 -0.00000000000E+00 -0.00000000000E+00 -0.17242112653E+03  0.17242112653E+03  0.00000000000E+00 0.  1.
         25    2    1    2    0    0 -0.28071526767E+02  0.14648583844E+03  0.19000932067E+03  0.27198448686E+03  0.12500363063E+03 0.  0.
          4    1    3    3  502    0 -0.35846321865E+02  0.16433307240E+03  0.14187290526E+03  0.22004511270E+03  0.12700000000E+01 0.  1.
         -4    1    3    3    0  502  0.77747950981E+01 -0.17847233967E+02  0.48136415410E+02  0.51939374155E+02  0.12700000000E+01 0.  1.
          1    1    1    2  503    0  0.39159559295E+02 -0.11418618976E+03  0.19415049538E+04  0.19452540818E+04  0.00000000000E+00 0. -1.
         -1    1    1    2    0  501 -0.11088032528E+02 -0.32299648681E+02 -0.12730863028E+03  0.13180932863E+03  0.00000000000E+00 0.  1.
<mgrwt>
<rscale>  0 0.64519407E+02</rscale>
<asrwt>0</asrwt>
<pdfrwt beam="1">  1        1 0.33486564E+00 0.12189672E+03</pdfrwt>
<pdfrwt beam="2">  1       -1 0.26526329E-01 0.34149843E+02</pdfrwt>
<totfact> 0.34542410E+01</totfact>
</mgrwt>
</event>
<event>
 7    1  0.4251803E-004  0.3572818E+02  0.7546771E-02  0.1547318E+00
          2   -1    0    0  503    0  0.00000000000E+00  0.00000000000E+00  0.20863133069E+04  0.20863133069E+04  0.00000000000E+00 0. -1.
         -1   -1    0    0    0  501 -0.00000000000E+00 -0.00000000000E+00 -0.69541900806E+01  0.69541900806E+01  0.00000000000E+00 0.  1.
         25    2    1    2    0    0 -0.44016983520E+01 -0.27239060594E+02  0.16958516134E+04  0.17006760004E+04  0.12499928938E+03 0.  0.
          4    1    3    3  502    0  0.17186037560E+02 -0.73480324515E+02  0.88100976923E+03  0.88423670155E+03  0.12700000000E+01 0. -1.
         -4    1    3    3    0  502 -0.21587735912E+02  0.46241263921E+02  0.81484184412E+03  0.81643929882E+03  0.12700000000E+01 0. -1.
          2    1    1    2  503    0  0.38906204556E+02  0.29382174513E+02  0.24772648675E+03  0.25247854794E+03  0.00000000000E+00 0. -1.
         -1    1    1    2    0  501 -0.34504506204E+02 -0.21431139194E+01  0.13578101674E+03  0.14011294870E+03  0.00000000000E+00 0.  1.
<mgrwt>
<rscale>  0 0.35144827E+02</rscale>
<asrwt>0</asrwt>
<pdfrwt beam="1">  1        2 0.32097078E+00 0.35728180E+02</pdfrwt>
<pdfrwt beam="2">  1       -1 0.10698771E-02 0.34570998E+02</pdfrwt>
<totfact> 0.11799349E+04</totfact>
</mgrwt>
</event>
<event>
 7    1  0.4251803E-004  0.2796811E+02  0.7546771E-02  0.1677149E+00
          2   -1    0    0  503    0  0.00000000000E+00  0.00000000000E+00  0.13203097018E+03  0.13203097018E+03  0.00000000000E+00 0. -1.
          2   -1    0    0  502    0 -0.00000000000E+00 -0.00000000000E+00 -0.73327325407E+03  0.73327325407E+03  0.00000000000E+00 0. -1.
         25    2    1    2    0    0  0.25039588185E+02 -0.40712994433E+02 -0.11150624659E+03  0.17418856454E+03  0.12499393624E+03 0.  0.
          4    1    3    3  501    0 -0.21101627316E+02 -0.45566022064E+02  0.33162355912E+01  0.50340355190E+02  0.12700000000E+01 0.  1.
         -4    1    3    3    0  501  0.46141215502E+02  0.48530276314E+01 -0.11482248218E+03  0.12384820935E+03  0.12700000000E+01 0.  1.
          2    1    1    2  502    0 -0.17096394347E+02  0.21876251993E+02 -0.58905785741E+03  0.58971180799E+03  0.00000000000E+00 0. -1.
          2    1    1    2  503    0 -0.79431938387E+01  0.18836742440E+02  0.99321820107E+02  0.10140385172E+03  0.00000000000E+00 0. -1.
<mgrwt>
<rscale>  0 0.23911353E+02</rscale>
<asrwt>0</asrwt>
<pdfrwt beam="1">  1        2 0.20312457E-01 0.20443023E+02</pdfrwt>
<pdfrwt beam="2">  1        2 0.11281127E+00 0.27968114E+02</pdfrwt>
<totfact> 0.16125979E+03</totfact>
</mgrwt>
</event>
<event>
 7    1  0.4251803E-004  0.4932377E+02  0.7546771E-02  0.1533942E+00
          1   -1    0    0  503    0  0.00000000000E+00  0.00000000000E+00  0.10499017650E+04  0.10499017650E+04  0.00000000000E+00 0. -1.
         -2   -1    0    0    0  501 -0.00000000000E+00 -0.00000000000E+00 -0.11500595532E+02  0.11500595532E+02  0.00000000000E+00 0.  1.
         25    2    1    2    0    0  0.17589303398E+02  0.31173219912E+02  0.66670463416E+03  0.67926369909E+03  0.12499180154E+03 0.  0.
          4    1    3    3  502    0  0.37303289707E+02  0.52718501288E+02  0.62503399298E+03  0.62836285781E+03  0.12700000000E+01 0.  1.
         -4    1    3    3    0  502 -0.19713986309E+02 -0.21545281376E+02  0.41670641183E+02  0.50900841273E+02  0.12700000000E+01 0.  1.
          1    1    1    2  503    0 -0.11172751634E+02  0.24928618279E+02  0.68827089095E+02  0.74050216621E+02  0.00000000000E+00 0. -1.
         -2    1    1    2    0  501 -0.64165517647E+01 -0.56101838190E+02  0.30286944622E+03  0.30808844483E+03  0.00000000000E+00 0.  1.
<mgrwt>
<rscale>  0 0.36707229E+02</rscale>
<asrwt>0</asrwt>
<pdfrwt beam="1">  1        1 0.16152327E+00 0.27317877E+02</pdfrwt>
<pdfrwt beam="2">  1       -2 0.17693232E-02 0.49323770E+02</pdfrwt>
<totfact> 0.11144954E+04</totfact>
</mgrwt>
</event>
<event>
 7    1  0.4251803E-004  0.1185138E+03  0.7546771E-02  0.1277678E+00
          2   -1    0    0  503    0  0.00000000000E+00  0.00000000000E+00  0.72266532026E+03  0.72266532026E+03  0.00000000000E+00 0. -1.
          2   -1    0    0  502    0 -0.00000000000E+00 -0.00000000000E+00 -0.77534552929E+03  0.77534552929E+03  0.00000000000E+00 0. -1.
         25    2    1    2    0    0 -0.90828423329E+02 -0.17527767943E+02  0.38983967893E+03  0.41970345697E+03  0.12497596327E+03 0.  0.
          4    1    3    3  501    0 -0.10288045591E+03 -0.20924952214E+02  0.17209264145E+03  0.20159298593E+03  0.12700000000E+01 0. -1.
         -4    1    3    3    0  501  0.12052032579E+02  0.33971842717E+01  0.21774703747E+03  0.21811047104E+03  0.12700000000E+01 0. -1.
          2    1    1    2  502    0 -0.65415185215E+02  0.56612036841E+02 -0.73732152405E+03  0.74237934980E+03  0.00000000000E+00 0. -1.
          2    1    1    2  503    0  0.15624360854E+03 -0.39084268898E+02  0.29480163609E+03  0.33592804278E+03  0.00000000000E+00 0. -1.
<mgrwt>
<rscale>  0 0.10125558E+03</rscale>
<asrwt>0</asrwt>
<pdfrwt beam="1">  1        2 0.11117928E+00 0.11851384E+03</pdfrwt>
<pdfrwt beam="2">  1        2 0.11928393E+00 0.86510515E+02</pdfrwt>
<totfact> 0.24813873E+02</totfact>
</mgrwt>
</event>
<event>
 7    1  0.4251803E-004  0.4268266E+02  0.7546771E-02  0.1577184E+00
         -1   -1    0    0    0  501 -0.00000000000E+00  0.00000000000E+00  0.30167515785E+03  0.30167515785E+03  0.00000000000E+00 0.  1.
          1   -1    0    0  503    0  0.00000000000E+00 -0.00000000000E+00 -0.40838834470E+03  0.40838834470E+03  0.00000000000E+00 0. -1.
         25    2    1    2    0    0 -0.46086339739E+02  0.43877532320E+02 -0.26013887286E+02  0.14266256941E+03  0.12500679111E+03 0.  0.
          4    1    3    3  502    0 -0.31776852052E+02  0.86067622835E+02 -0.33081886766E+02  0.97536804125E+02  0.12700000000E+01 0. -1.
         -4    1    3    3    0  502 -0.14309487687E+02 -0.42190090515E+02  0.70679994800E+01  0.45125765281E+02  0.12700000000E+01 0. -1.
          1    1    1    2  503    0  0.10102248141E+02 -0.21726590285E+02 -0.32176701098E+03  0.32265788305E+03  0.00000000000E+00 0. -1.
         -1    1    1    2    0  501  0.35984091598E+02 -0.22150942035E+02  0.24106771141E+03  0.24474305009E+03  0.00000000000E+00 0.  1.
<mgrwt>
<rscale>  0 0.31979573E+02</rscale>
<asrwt>0</asrwt>
<pdfrwt beam="2">  1        1 0.62828976E-01 0.23960387E+02</pdfrwt>
<pdfrwt beam="1">  1       -1 0.46411563E-01 0.42682661E+02</pdfrwt>
<totfact> 0.29017805E+02</totfact>
</mgrwt>
</event>
<event>
 7    1  0.4251803E-004  0.1553001E+03  0.7546771E-02  0.1288066E+00
          2   -1    0    0  503    0  0.00000000000E+00  0.00000000000E+00  0.19734453520E+04  0.19734453520E+04  0.00000000000E+00 0. -1.
         -1   -1    0    0    0  501 -0.00000000000E+00 -0.00000000000E+00 -0.10920666875E+04  0.10920666875E+04  0.00000000000E+00 0.  1.
         25    2    1    2    0    0  0.83587529343E+02  0.15974061912E+03 -0.63883057640E+03  0.67545024737E+03  0.12499836345E+03 0.  0.
          4    1    3    3  502    0  0.13545358300E+02  0.39889252794E+02 -0.37467309001E+03  0.37703602812E+03  0.12700000000E+01 0. -1.
         -4    1    3    3    0  502  0.70042171044E+02  0.11985136633E+03 -0.26415748639E+03  0.29841421925E+03  0.12700000000E+01 0. -1.
          2    1    1    2  503    0 -0.24098350283E+02 -0.15334520712E+03  0.19499787583E+04  0.19561473975E+04  0.00000000000E+00 0. -1.
         -1    1    1    2    0  501 -0.59489179060E+02 -0.63954119989E+01 -0.42976951746E+03  0.43391439462E+03  0.00000000000E+00 0.  1.
<mgrwt>
<rscale>  0 0.96394550E+02</rscale>
<asrwt>0</asrwt>
<pdfrwt beam="1">  1        2 0.30360698E+00 0.15530009E+03</pdfrwt>
<pdfrwt beam="2">  1       -1 0.16801026E+00 0.59831962E+02</pdfrwt>
<totfact> 0.29232117E+00</totfact>
</mgrwt>
</event>
<event>
 7    1  0.4251803E-004  0.1244112E+03  0.7546771E-02  0.1363544E+00
          1   -1    0    0  503    0  0.00000000000E+00  0.00000000000E+00  0.44005760297E+03  0.44005760297E+03  0.00000000000E+00 0. -1.
         -3   -1    0    0    0  501 -0.00000000000E+00 -0.00000000000E+00 -0.26722660534E+03  0.26722660534E+03  0.00000000000E+00 0.  1.
         25    2    1    2    0    0 -0.12367731297E+03  0.29371329606E+01 -0.12882771584E+03  0.21800566501E+03  0.12500074047E+03 0.  0.
          4    1    3    3  502    0 -0.91376976974E+02  0.60267155178E+02 -0.88950932984E+02  0.14105234239E+03  0.12700000000E+01 0. -1.
         -4    1    3    3    0  502 -0.32300335992E+02 -0.57330022218E+02 -0.39876782854E+02  0.76953322628E+02  0.12700000000E+01 0. -1.
          1    1    1    2  503    0  0.24860463600E+01  0.38182135773E+02  0.35028959272E+03  0.35237317532E+03  0.00000000000E+00 0. -1.
         -3    1    1    2    0  501  0.12119126661E+03 -0.41119268734E+02 -0.48630879246E+02  0.13690536797E+03  0.00000000000E+00 0.  1.
<mgrwt>
<rscale>  0 0.68995236E+02</rscale>
<asrwt>0</asrwt>
<pdfrwt beam="1">  1        1 0.67701170E-01 0.38262984E+02</pdfrwt>
<pdfrwt beam="2">  1       -3 0.41111785E-01 0.12441117E+03</pdfrwt>
<totfact> 0.17223643E+02</totfact>
</mgrwt>
</event>
<event>
 7    1  0.4251803E-004  0.8091139E+02  0.7546771E-02  0.1450184E+00
          1   -1    0    0  503    0  0.00000000000E+00  0.00000000000E+00  0.15431668688E+04  0.15431668688E+04  0.00000000000E+00 0. -1.
          1   -1    0    0  502    0 -0.00000000000E+00 -0.00000000000E+00 -0.20589789787E+04  0.20589789787E+04  0.00000000000E+00 0. -1.
         25    2    1    2    0    0 -0.98589772299E+02  0.14023004854E+02 -0.25201440164E+03  0.29841535891E+03  0.12499551965E+03 0.  0.
          4    1    3    3  501    0 -0.12546797132E+03  0.22806314900E+01 -0.22891920834E+03  0.26106135285E+03  0.12700000000E+01 0.  1.
         -4    1    3    3    0  501  0.26878199022E+02  0.11742373364E+02 -0.23095193299E+02  0.37354006055E+02  0.12700000000E+01 0.  1.
          1    1    1    2  502    0  0.24136049734E+02  0.17498235531E+02 -0.17825641966E+04  0.17828134653E+04  0.00000000000E+00 0. -1.
          1    1    1    2  503    0  0.74453722565E+02 -0.31521240385E+02  0.15187664884E+04  0.15209170233E+04  0.00000000000E+00 0. -1.
<mgrwt>
<rscale>  0 0.49113192E+02</rscale>
<asrwt>0</asrwt>
<pdfrwt beam="1">  1        1 0.23741029E+00 0.80911390E+02</pdfrwt>
<pdfrwt beam="2">  1        1 0.31676600E+00 0.29811695E+02</pdfrwt>
<totfact> 0.37426237E+00</totfact>
</mgrwt>
</event>
<event>
 7    1  0.4251803E-004  0.3624855E+03  0.7546771E-02  0.1182113E+00
          2   -1    0    0  502    0  0.00000000000E+00  0.00000000000E+00  0.12771874081E+04  0.12771874081E+04  0.00000000000E+00 0. -1.
          2   -1    0    0  503    0 -0.00000000000E+00 -0.00000000000E+00 -0.24777965204E+04  0.24777965204E+04  0.00000000000E+00 0. -1.
         25    2    1    2    0    0 -0.34443628349E+03  0.10510595035E+03  0.18254233668E+03  0.42264621032E+03  0.12499800090E+03 0.  0.
          4    1    3    3  501    0 -0.11784759218E+03 -0.19256248114E+02  0.84095832961E+02  0.14605677011E+03  0.12700000000E+01 0.  1.
         -4    1    3    3    0  501 -0.22658869131E+03  0.12436219847E+03  0.98446503722E+02  0.27658944020E+03  0.12700000000E+01 0.  1.
          2    1    1    2  502    0  0.31922649848E+03 -0.17679804164E+03  0.93979131904E+03  0.10081521850E+04  0.00000000000E+00 0. -1.
          2    1    1    2  503    0  0.25209785016E+02  0.71692091285E+02 -0.23229427680E+04  0.23241855332E+04  0.00000000000E+00 0. -1.
<mgrwt>
<rscale>  0 0.16597350E+03</rscale>
<asrwt>0</asrwt>
<pdfrwt beam="1">  1        2 0.19649037E+00 0.36248550E+03</pdfrwt>
<pdfrwt beam="2">  1        2 0.38119946E+00 0.75995324E+02</pdfrwt>
<totfact> 0.13540170E+01</totfact>
</mgrwt>
</event>
<event>
 7    1  0.4251803E-004  0.9882801E+02  0.7546771E-02  0.1349402E+00
         -1   -1    0    0    0  501 -0.00000000000E+00  0.00000000000E+00  0.13535025386E+03  0.13535025386E+03  0.00000000000E+00 0.  1.
          1   -1    0    0  503    0  0.00000000000E+00 -0.00000000000E+00 -0.77986680114E+03  0.77986680114E+03  0.00000000000E+00 0. -1.
         25    2    1    2    0    0 -0.70882603096E+02  0.10174438297E+03 -0.15324380278E+03  0.23342734500E+03  0.12501359691E+03 0.  0.
          4    1    3    3  502    0 -0.74061869561E+02  0.28354287894E+02 -0.20841500774E+02  0.82006751060E+02  0.12700000000E+01 0.  1.
         -4    1    3    3    0  502  0.31792664655E+01  0.73390095081E+02 -0.13240230201E+03  0.15142059394E+03  0.12700000000E+01 0.  1.
          1    1    1    2  503    0  0.16926781440E+02 -0.95816706622E+02 -0.57435993875E+03  0.58254330006E+03  0.00000000000E+00 0. -1.
         -1    1    1    2    0  501  0.53955821656E+02 -0.59276763529E+01  0.83087194258E+02  0.99246409946E+02  0.00000000000E+00 0.  1.
<mgrwt>
<rscale>  0 0.73242267E+02</rscale>
<asrwt>0</asrwt>
<pdfrwt beam="2">  1        1 0.11997951E+00 0.98828011E+02</pdfrwt>
<pdfrwt beam="1">  1       -1 0.20823115E-01 0.54280457E+02</pdfrwt>
<totfact> 0.45271301E+02</totfact>
</mgrwt>
</event>
<event>
 7    1  0.4251803E-004  0.8743113E+02  0.7546771E-02  0.1382769E+00
          1   -1    0    0  503    0  0.00000000000E+00  0.00000000000E+00  0.98487763533E+02  0.98487763533E+02  0.00000000000E+00 0. -1.
         -2   -1    0    0    0  501 -0.00000000000E+00 -0.00000000000E+00 -0.24367680639E+03  0.24367680639E+03  0.00000000000E+00 0.  1.
         25    2    1    2    0    0  0.64417472303E+02 -0.87102559947E+02 -0.38239353508E+02  0.16977696792E+03  0.12500201596E+03 0.  0.
          4    1    3    3  502    0  0.27793327841E+02 -0.11414609332E+03 -0.40241605871E+02  0.12418856403E+03  0.12700000000E+01 0.  1.
         -4    1    3    3    0  502  0.36624144462E+02  0.27043533375E+02  0.20022523625E+01  0.45588403893E+02  0.12700000000E+01 0.  1.
          1    1    1    2  503    0 -0.19351536714E+02  0.75763130971E+02 -0.32619683886E+02  0.84726487975E+02  0.00000000000E+00 0. -1.
         -2    1    1    2    0  501 -0.45065935589E+02  0.11339428976E+02 -0.74330005464E+02  0.87661114026E+02  0.00000000000E+00 0.  1.
<mgrwt>
<rscale>  0 0.63741520E+02</rscale>
<asrwt>0</asrwt>
<pdfrwt beam="1">  1        1 0.15151964E-01 0.87431132E+02</pdfrwt>
<pdfrwt beam="2">  1       -2 0.37488740E-01 0.46470649E+02</pdfrwt>
<totfact> 0.20322770E+03</totfact>
</mgrwt>
</event>
<event>
 7    1  0.4251803E-004  0.7334841E+02  0.7546771E-02  0.1382802E+00
         -1   -1    0    0    0  501 -0.00000000000E+00  0.00000000000E+00  0.10384743797E+03  0.10384743797E+03  0.00000000000E+00 0.  1.
          1   -1    0    0  503    0  0.00000000000E+00 -0.00000000000E+00 -0.21703218590E+03  0.21703218590E+03  0.00000000000E+00 0. -1.
         25    2    1    2    0    0  0.42869514757E+02  0.87319944853E+02 -0.21357317750E+02  0.15982610534E+03  0.12500272342E+03 0.  0.
          4    1    3    3  502    0  0.24412778062E+02 -0.26741910847E+02 -0.25325900664E+02  0.44205516317E+02  0.12700000000E+01 0.  1.
         -4    1    3    3    0  502  0.18456736695E+02  0.11406185570E+03  0.39685829133E+01  0.11562058902E+03  0.12700000000E+01 0.  1.
          1    1    1    2  503    0  0.14317153206E+02 -0.53495205627E+02 -0.73694473882E+02  0.92182391929E+02  0.00000000000E+00 0. -1.
         -1    1    1    2    0  501 -0.57186667963E+02 -0.33824739226E+02 -0.18132956296E+02  0.68871126609E+02  0.00000000000E+00 0.  1.
<mgrwt>
<rscale>  0 0.63732917E+02</rscale>
<asrwt>0</asrwt>
<pdfrwt beam="2">  1        1 0.33389567E-01 0.55377955E+02</pdfrwt>
<pdfrwt beam="1">  1       -1 0.15976529E-01 0.73348405E+02</pdfrwt>
<totfact> 0.35483922E+03</totfact>
</mgrwt>
</event>
<event>
 7    1  0.4251803E-004  0.4719928E+02  0.7546771E-02  0.1519693E+00
          2   -1    0    0  503    0  0.00000000000E+00  0.00000000000E+00  0.31693109517E+02  0.31693109517E+02  0.00000000000E+00 0. -1.
         -1   -1    0    0    0  501 -0.00000000000E+00 -0.00000000000E+00 -0.37470129205E+03  0.37470129205E+03  0.00000000000E+00 0.  1.
         25    2    1    2    0    0  0.16105481098E+02  0.17304081296E+02 -0.15763787465E+03  0.20256492980E+03  0.12499613398E+03 0.  0.
          4    1    3    3  502    0 -0.37604519990E+02  0.43340490324E+02 -0.11707690081E+03  0.13038831093E+03  0.12700000000E+01 0. -1.
         -4    1    3    3    0  502  0.53710001088E+02 -0.26036409028E+02 -0.40560973842E+02  0.72176618867E+02  0.12700000000E+01 0. -1.
          2    1    1    2  503    0  0.29822783858E+02  0.97428601564E+01 -0.64302559332E+02  0.71548171868E+02  0.00000000000E+00 0. -1.
         -1    1    1    2    0  501 -0.45928264956E+02 -0.27046941452E+02 -0.12106774855E+03  0.13228129990E+03  0.00000000000E+00 0.  1.
<mgrwt>
<rscale>  0 0.38481496E+02</rscale>
<asrwt>0</asrwt>
<pdfrwt beam="1">  1        2 0.48758626E-02 0.31373903E+02</pdfrwt>
<pdfrwt beam="2">  1       -1 0.57646357E-01 0.47199277E+02</pdfrwt>
<totfact> 0.48390142E+03</totfact>
</mgrwt>
</event>
<event>
 7    1  0.4251803E-004  0.9825818E+02  0.7546771E-02  0.1292663E+00
          3   -1    0    0  503    0 -0.00000000000E+00  0.00000000000E+00  0.40161617501E+03  0.40161617501E+03  0.00000000000E+00 0. -1.
          2   -1    0    0  502    0  0.00000000000E+00 -0.00000000000E+00 -0.88466185969E+03  0.88466185969E+03  0.00000000000E+00 0. -1.
         25    2    1    2    0    0  0.50374520931E+01 -0.49636472826E+01  0.20193690098E+02  0.12680581869E+03  0.12498766666E+03 0.  0.
          4    1    3    3  501    0  0.12020786928E+02  0.19782760491E+02 -0.48331573076E+02  0.53604204938E+02  0.12700000000E+01 0. -1.
         -4    1    3    3    0  501 -0.69833348345E+01 -0.24746407773E+02  0.68525263174E+02  0.73201613754E+02  0.12700000000E+01 0. -1.
          2    1    1    2  502    0  0.93790790700E+01 -0.97809526958E+02 -0.82014324379E+03  0.82600823907E+03  0.00000000000E+00 0. -1.
          3    1    1    2  503    0 -0.14416531163E+02  0.10277317424E+03  0.31690386901E+03  0.33346397693E+03  0.00000000000E+00 0. -1.
<mgrwt>
<rscale>  0 0.94342776E+02</rscale>
<asrwt>0</asrwt>
<pdfrwt beam="2">  1        2 0.13610182E+00 0.98258184E+02</pdfrwt>
<pdfrwt beam="1">  1        3 0.61787105E-01 0.90583390E+02</pdfrwt>
<totfact> 0.50583350E+01</totfact>
</mgrwt>
</event>
<event>
 7    1  0.4251803E-004  0.1703574E+03  0.7546771E-02  0.1251510E+00
          2   -1    0    0  503    0  0.00000000000E+00  0.00000000000E+00  0.18171902251E+04  0.18171902251E+04  0.00000000000E+00 0. -1.
         -1   -1    0    0    0  501 -0.00000000000E+00 -0.00000000000E+00 -0.10780874288E+03  0.10780874288E+03  0.00000000000E+00 0.  1.
         25    2    1    2    0    0 -0.20917700541E+03 -0.40911902017E+02  0.19182248868E+03  0.31280731301E+03  0.12499497827E+03 0.  0.
          4    1    3    3  502    0  0.17853128348E+01 -0.74265397782E+01 -0.14112235242E+02  0.16096860518E+02  0.12700000000E+01 0. -1.
         -4    1    3    3    0  502 -0.21096231824E+03 -0.33485362239E+02  0.20593472393E+03  0.29671045250E+03  0.12700000000E+01 0. -1.
          2    1    1    2  503    0  0.73233407146E+02 -0.25923218833E+02  0.14398386345E+04  0.14419328828E+04  0.00000000000E+00 0. -1.
         -1    1    1    2    0  501  0.13594359826E+03  0.66835120850E+02  0.77720359099E+02  0.17025877218E+03  0.00000000000E+00 0.  1.
<mgrwt>
<rscale>  0 0.11504096E+03</rscale>
<asrwt>0</asrwt>
<pdfrwt beam="1">  1        2 0.27956771E+00 0.77686197E+02</pdfrwt>
<pdfrwt beam="2">  1       -1 0.16585962E-01 0.17035745E+03</pdfrwt>
<totfact> 0.32154350E+02</totfact>
</mgrwt>
</event>
<event>
 7    1  0.4251803E-004  0.1197081E+03  0.7546771E-02  0.1337819E+00
          3   -1    0    0  503    0 -0.00000000000E+00  0.00000000000E+00  0.17171700244E+03  0.17171700244E+03  0.00000000000E+00 0. -1.
          2   -1    0    0  502    0  0.00000000000E+00 -0.00000000000E+00 -0.61733889744E+03  0.61733889744E+03  0.00000000000E+00 0.  1.
         25    2    1    2    0    0 -0.13823270723E+03 -0.76447903752E+02 -0.32825247371E+02  0.20409624644E+03  0.12500087043E+03 0.  0.
          4    1    3    3  501    0 -0.12039196689E+03 -0.60357904573E+02  0.28989003574E+02  0.13776529884E+03  0.12700000000E+01 0.  1.
         -4    1    3    3    0  501 -0.17840740342E+02 -0.16089999179E+02 -0.61814250945E+02  0.66330947599E+02  0.12700000000E+01 0.  1.
          2    1    1    2  502    0  0.44200862033E+02  0.22316413269E+02 -0.46283583748E+03  0.46547690702E+03  0.00000000000E+00 0.  1.
          3    1    1    2  503    0  0.94031845199E+02  0.54131490484E+02  0.50039189855E+02  0.11948274643E+03  0.00000000000E+00 0. -1.
<mgrwt>
<rscale>  0 0.76989280E+02</rscale>
<asrwt>0</asrwt>
<pdfrwt beam="2">  1        2 0.94975214E-01 0.49515033E+02</pdfrwt>
<pdfrwt beam="1">  1        3 0.26418001E-01 0.11970807E+03</pdfrwt>
<totfact> 0.41112310E+02</totfact>
</mgrwt>
</event>
<event>
 7    1  0.4360466E-004  0.9616476E+02  0.7546771E-02  0.1319269E+00
          2   -1    0    0  503    0  0.00000000000E+00  0.00000000000E+00  0.96365751380E+02  0.96365751380E+02  0.00000000000E+00 0. -1.
         -1   -1    0    0    0  501 -0.00000000000E+00 -0.00000000000E+00 -0.37739661820E+03  0.37739661820E+03  0.00000000000E+00 0.  1.
         25    2    1    2    0    0  0.32994859863E+02  0.15041913853E+03 -0.96302938175E+02  0.22048550817E+03  0.12500010159E+03 0.  0.
          4    1    3    3  502    0 -0.19383155156E+02  0.14374263826E+03 -0.77245536014E+02  0.16433544503E+03  0.12700000000E+01 0. -1.
         -4    1    3    3    0  502  0.52378015019E+02  0.66765002642E+01 -0.19057402162E+02  0.56150063137E+02  0.12700000000E+01 0. -1.
          2    1    1    2  503    0  0.34319786908E+01 -0.72508389890E+02 -0.34957354908E+02  0.80568366896E+02  0.00000000000E+00 0. -1.
         -1    1    1    2    0  501 -0.36426838554E+02 -0.77910748639E+02 -0.14977057373E+03  0.17270849451E+03  0.00000000000E+00 0.  1.
<mgrwt>
<rscale>  0 0.83549735E+02</rscale>
<asrwt>0</asrwt>
<pdfrwt beam="1">  1        2 0.14825500E-01 0.72589566E+02</pdfrwt>
<pdfrwt beam="2">  1       -1 0.58061018E-01 0.96164759E+02</pdfrwt>
<totfact> 0.13364203E+03</totfact>
</mgrwt>
</event>
<event>
 7    1  0.4251803E-004  0.4674456E+02  0.7546771E-02  0.1534910E+00
          2   -1    0    0  502    0  0.00000000000E+00  0.00000000000E+00  0.21933333437E+04  0.21933333437E+04  0.00000000000E+00 0. -1.
          1   -1    0    0  503    0 -0.00000000000E+00 -0.00000000000E+00 -0.51967621797E+02  0.51967621797E+02  0.00000000000E+00 0. -1.
         25    2    1    2    0    0 -0.22852109861E+02 -0.39679725652E+02  0.40166859628E+03  0.42315331346E+03  0.12499746358E+03 0.  0.
          4    1    3    3  501    0  0.79183755578E+01  0.34309176750E+02  0.24146530324E+03  0.24402238801E+03  0.12700000000E+01 0. -1.
         -4    1    3    3    0  501 -0.30770485419E+02 -0.73988902402E+02  0.16020329304E+03  0.17913092545E+03  0.12700000000E+01 0. -1.
          2    1    1    2  502    0 -0.49014200436E+01  0.46762040627E+02  0.17755981254E+04  0.17762205424E+04  0.00000000000E+00 0. -1.
          1    1    1    2  503    0  0.27753529905E+02 -0.70823149752E+01 -0.35900999814E+02  0.45927109590E+02  0.00000000000E+00 0. -1.
<mgrwt>
<rscale>  0 0.36591002E+02</rscale>
<asrwt>0</asrwt>
<pdfrwt beam="1">  1        2 0.33743583E+00 0.46744563E+02</pdfrwt>
<pdfrwt beam="2">  1        1 0.79950204E-02 0.28642933E+02</pdfrwt>
<totfact> 0.71912682E+02</totfact>
</mgrwt>
</event>
<event>
 7    1  0.4251803E-004  0.3077731E+02  0.7546771E-02  0.1620275E+00
          1   -1    0    0  503    0  0.00000000000E+00  0.00000000000E+00  0.29014484289E+03  0.29014484289E+03  0.00000000000E+00 0. -1.
         -1   -1    0    0    0  501 -0.00000000000E+00 -0.00000000000E+00 -0.10164974178E+04  0.10164974178E+04  0.00000000000E+00 0.  1.
         25    2    1    2    0    0  0.45424101365E+02 -0.31239168146E+02 -0.22425402666E+02  0.13844616942E+03  0.12500083413E+03 0.  0.
          4    1    3    3  502    0 -0.25675141513E+02  0.19290247293E+02 -0.38066970088E+02  0.49820012485E+02  0.12700000000E+01 0. -1.
         -4    1    3    3    0  502  0.71099242878E+02 -0.50529415439E+02  0.15641567422E+02  0.88626156940E+02  0.12700000000E+01 0. -1.
          1    1    1    2  503    0 -0.23816415685E+02  0.94649649941E+01  0.23117482452E+03  0.23259107186E+03  0.00000000000E+00 0. -1.
         -1    1    1    2    0  501 -0.21607685680E+02  0.21774203152E+02 -0.93510199675E+03  0.93560501940E+03  0.00000000000E+00 0.  1.
<mgrwt>
<rscale>  0 0.28085024E+02</rscale>
<asrwt>0</asrwt>
<pdfrwt beam="1">  1        1 0.44637668E-01 0.25628250E+02</pdfrwt>
<pdfrwt beam="2">  1       -1 0.15638422E+00 0.30777309E+02</pdfrwt>
<totfact> 0.36071593E+01</totfact>
</mgrwt>
</event>
<event>
 7    1  0.4251803E-004  0.3379646E+02  0.7546771E-02  0.1589646E+00
          2   -1    0    0  503    0  0.00000000000E+00  0.00000000000E+00  0.68089700563E+03  0.68089700563E+03  0.00000000000E+00 0. -1.
         -1   -1    0    0    0  501 -0.00000000000E+00 -0.00000000000E+00 -0.31348702731E+02  0.31348702731E+02  0.00000000000E+00 0.  1.
         25    2    1    2    0    0 -0.41444412289E+02 -0.22823098057E+02  0.58154949073E+03  0.59671083422E+03  0.12500190557E+03 0.  0.
          4    1    3    3  502    0 -0.23324152159E+02  0.27036600977E+02  0.48683118470E+03  0.48814056291E+03  0.12700000000E+01 0.  1.
         -4    1    3    3    0  502 -0.18120260130E+02 -0.49859699034E+02  0.94718306033E+02  0.10857027131E+03  0.12700000000E+01 0.  1.
          2    1    1    2  503    0  0.80011319075E+01  0.26862581339E+02  0.75920843036E+02  0.80929542167E+02  0.00000000000E+00 0. -1.
         -1    1    1    2    0  501  0.33443280382E+02 -0.40394832825E+01 -0.79220308658E+01  0.34605331972E+02  0.00000000000E+00 0.  1.
<mgrwt>
<rscale>  0 0.30777849E+02</rscale>
<asrwt>0</asrwt>
<pdfrwt beam="1">  1        2 0.10475337E+00 0.28028849E+02</pdfrwt>
<pdfrwt beam="2">  1       -1 0.48228779E-02 0.33796464E+02</pdfrwt>
<totfact> 0.79392174E+03</totfact>
</mgrwt>
</event>
<event>
 7    1  0.4251803E-004  0.4653400E+02  0.7546771E-02  0.1588905E+00
         -3   -1    0    0    0  501 -0.00000000000E+00  0.00000000000E+00  0.30660217049E+03  0.30660217049E+03  0.00000000000E+00 0.  1.
          2   -1    0    0  503    0  0.00000000000E+00 -0.00000000000E+00 -0.91101784424E+03  0.91101784424E+03  0.00000000000E+00 0. -1.
         25    2    1    2    0    0  0.23634266670E+01  0.57729844987E+02 -0.47601139377E+03  0.49553329439E+03  0.12501231164E+03 0.  0.
          4    1    3    3  502    0 -0.45703879855E+02  0.49827037355E+02 -0.13430252091E+03  0.15036741105E+03  0.12700000000E+01 0. -1.
         -4    1    3    3    0  502  0.48067306522E+02  0.79028076318E+01 -0.34170887287E+03  0.34516588334E+03  0.12700000000E+01 0. -1.
          2    1    1    2  503    0 -0.16038068953E+02 -0.42525856546E+02 -0.42367647180E+03  0.42610728800E+03  0.00000000000E+00 0. -1.
         -3    1    1    2    0  501  0.13674642286E+02 -0.15203988440E+02  0.29527219182E+03  0.29597943234E+03  0.00000000000E+00 0.  1.
<mgrwt>
<rscale>  0 0.30847506E+02</rscale>
<asrwt>0</asrwt>
<pdfrwt beam="2">  1        2 0.14015659E+00 0.46534000E+02</pdfrwt>
<pdfrwt beam="1">  1       -3 0.47169566E-01 0.20448890E+02</pdfrwt>
<totfact> 0.76315818E+01</totfact>
</mgrwt>
</event>
<event>
 7    1  0.4251803E-004  0.1770698E+03  0.7546771E-02  0.1235260E+00
          2   -1    0    0  503    0  0.00000000000E+00  0.00000000000E+00  0.25084067213E+04  0.25084067213E+04  0.00000000000E+00 0. -1.
          2   -1    0    0  502    0 -0.00000000000E+00 -0.00000000000E+00 -0.22268886634E+03  0.22268886634E+03  0.00000000000E+00 0. -1.
         25    2    1    2    0    0  0.15108378640E+03  0.10469744998E+02  0.13570242768E+03  0.23869679558E+03  0.12500034107E+03 0.  0.
          4    1    3    3  501    0 -0.22407332191E+02  0.36622329182E+01  0.15611004489E+02  0.27582908603E+02  0.12700000000E+01 0. -1.
         -4    1    3    3    0  501  0.17349111859E+03  0.68075120802E+01  0.12009142319E+03  0.21111388698E+03  0.12700000000E+01 0. -1.
          2    1    1    2  502    0 -0.37756951947E+00  0.88068965445E+02 -0.15611827612E+03  0.17924620323E+03  0.00000000000E+00 0. -1.
          2    1    1    2  503    0 -0.15070621688E+03 -0.98538710443E+02  0.23061337034E+04  0.23131525888E+04  0.00000000000E+00 0. -1.
<mgrwt>
<rscale>  0 0.12487794E+03</rscale>
<asrwt>0</asrwt>
<pdfrwt beam="1">  1        2 0.38590871E+00 0.17706984E+03</pdfrwt>
<pdfrwt beam="2">  1        2 0.34259827E-01 0.88069775E+02</pdfrwt>
<totfact> 0.96863314E+01</totfact>
</mgrwt>
</event>
<event>
 7    1  0.4251803E-004  0.4528012E+02  0.7546771E-02  0.1545617E+00
         -1   -1    0    0    0  501 -0.00000000000E+00  0.00000000000E+00  0.83250836230E+01  0.83250836230E+01  0.00000000000E+00 0.  1.
          2   -1    0    0  503    0  0.00000000000E+00 -0.00000000000E+00 -0.14850229319E+04  0.14850229319E+04  0.00000000000E+00 0. -1.
         25    2    1    2    0    0 -0.29317267305E+02  0.78962261689E+01 -0.68713497223E+03  0.69907142640E+03  0.12499814635E+03 0.  0.
          4    1    3    3  502    0  0.40089283384E+01 -0.22097809931E+02 -0.19034867949E+02  0.29467334593E+02  0.12700000000E+01 0. -1.
         -4    1    3    3    0  502 -0.33326195643E+02  0.29994036100E+02 -0.66810010428E+03  0.66960409180E+03  0.12700000000E+01 0. -1.
          2    1    1    2  503    0 -0.15908485679E+02  0.22528545732E+02 -0.39570031801E+03  0.39666025383E+03  0.00000000000E+00 0. -1.
         -1    1    1    2    0  501  0.45225752984E+02 -0.30424771901E+02 -0.39386255799E+03  0.39761633526E+03  0.00000000000E+00 0.  1.
<mgrwt>
<rscale>  0 0.35338251E+02</rscale>
<asrwt>0</asrwt>
<pdfrwt beam="2">  1        2 0.22846514E+00 0.27579255E+02</pdfrwt>
<pdfrwt beam="1">  1       -1 0.12807817E-02 0.45280121E+02</pdfrwt>
<totfact> 0.19275144E+04</totfact>
</mgrwt>
</event>
<event>
 7    1  0.4251803E-004  0.5727944E+02  0.7546771E-02  0.1435119E+00
          2   -1    0    0  503    0  0.00000000000E+00  0.00000000000E+00  0.24753526726E+04  0.24753526726E+04  0.00000000000E+00 0. -1.
          2   -1    0    0  502    0 -0.00000000000E+00 -0.00000000000E+00 -0.12218041674E+03  0.12218041674E+03  0.00000000000E+00 0. -1.
         25    2    1    2    0    0  0.98857435485E+02  0.26289454099E+02  0.10369602416E+04  0.10494647815E+04  0.12500342837E+03 0.  0.
          4    1    3    3  501    0  0.67656310497E+02  0.71852555518E+02  0.80450197933E+03  0.81053390659E+03  0.12700000000E+01 0. -1.
         -4    1    3    3    0  501  0.31201124987E+02 -0.45563101419E+02  0.23245826226E+03  0.23893087495E+03  0.12700000000E+01 0. -1.
          2    1    1    2  502    0 -0.51818584429E+02 -0.23711492759E+02 -0.10851218353E+03  0.12256547049E+03  0.00000000000E+00 0. -1.
          2    1    1    2  503    0 -0.47038851056E+02 -0.25779613393E+01  0.14247241978E+04  0.14255028373E+04  0.00000000000E+00 0. -1.
<mgrwt>
<rscale>  0 0.51946148E+02</rscale>
<asrwt>0</asrwt>
<pdfrwt beam="1">  1        2 0.38082345E+00 0.47109441E+02</pdfrwt>
<pdfrwt beam="2">  1        2 0.18796989E-01 0.57279438E+02</pdfrwt>
<totfact> 0.22774201E+02</totfact>
</mgrwt>
</event>
<event>
 7    1  0.4251803E-004  0.3724192E+02  0.7546771E-02  0.1577089E+00
         -1   -1    0    0    0  501 -0.00000000000E+00  0.00000000000E+00  0.92125321958E+01  0.92125321958E+01  0.00000000000E+00 0.  1.
          2   -1    0    0  503    0  0.00000000000E+00 -0.00000000000E+00 -0.15187534191E+04  0.15187534191E+04  0.00000000000E+00 0. -1.
         25    2    1    2    0    0 -0.11472953230E+02 -0.86438877069E+01 -0.50224469347E+03  0.51775415732E+03  0.12495315064E+03 0.  0.
          4    1    3    3  502    0 -0.57873557316E+02 -0.74804064766E+01 -0.41347093698E+03  0.41757051350E+03  0.12700000000E+01 0. -1.
         -4    1    3    3    0  502  0.46400604086E+02 -0.11634812303E+01 -0.88773756486E+02  0.10018364382E+03  0.12700000000E+01 0. -1.
          2    1    1    2  503    0  0.38522063784E+02  0.38134178049E+01 -0.81974980508E+03  0.82066328935E+03  0.00000000000E+00 0. -1.
         -1    1    1    2    0  501 -0.27049110554E+02  0.48304699020E+01 -0.18754638832E+03  0.18954850459E+03  0.00000000000E+00 0.  1.
<mgrwt>
<rscale>  0 0.31989027E+02</rscale>
<asrwt>0</asrwt>
<pdfrwt beam="2">  1        2 0.23365450E+00 0.37241923E+02</pdfrwt>
<pdfrwt beam="1">  1       -1 0.14173119E-02 0.27477042E+02</pdfrwt>
<totfact> 0.14286043E+04</totfact>
</mgrwt>
</event>
<event>
 7    1  0.4251803E-004  0.4984392E+02  0.7546771E-02  0.1484058E+00
         -1   -1    0    0    0  501 -0.00000000000E+00  0.00000000000E+00  0.59965877045E+02  0.59965877045E+02  0.00000000000E+00 0.  1.
          1   -1    0    0  503    0  0.00000000000E+00 -0.00000000000E+00 -0.26021387033E+03  0.26021387033E+03  0.00000000000E+00 0. -1.
         25    2    1    2    0    0  0.93416925479E+01  0.21493870239E+02 -0.37583350495E+02  0.13262086272E+03  0.12500612511E+03 0.  0.
          4    1    3    3  502    0  0.55762658662E+02  0.10975741133E+02 -0.57638303924E+02  0.80955098503E+02  0.12700000000E+01 0. -1.
         -4    1    3    3    0  502 -0.46420966114E+02  0.10518129107E+02  0.20054953429E+02  0.51665764215E+02  0.12700000000E+01 0. -1.
          1    1    1    2  503    0 -0.46961198322E+02 -0.26331062641E+02 -0.11201030634E+03  0.12427786502E+03  0.00000000000E+00 0. -1.
         -1    1    1    2    0  501  0.37619505775E+02  0.48371924022E+01 -0.50654336450E+02  0.63281019636E+02  0.00000000000E+00 0.  1.
<mgrwt>
<rscale>  0 0.43480351E+02</rscale>
<asrwt>0</asrwt>
<pdfrwt beam="2">  1        1 0.40032904E-01 0.49843919E+02</pdfrwt>
<pdfrwt beam="1">  1       -1 0.92255194E-02 0.37929219E+02</pdfrwt>
<totfact> 0.62153420E+03</totfact>
</mgrwt>
</event>
<event>
 7    1  0.4251803E-004  0.4832647E+02  0.7546771E-02  0.1510134E+00
          2   -1    0    0  502    0  0.00000000000E+00  0.00000000000E+00  0.43399939362E+02  0.43399939362E+02  0.00000000000E+00 0. -1.
          1   -1    0    0  503    0 -0.00000000000E+00 -0.00000000000E+00 -0.75112271412E+03  0.75112271412E+03  0.00000000000E+00 0. -1.
         25    2    1    2    0    0  0.46851404019E+01 -0.21934061279E+02 -0.15882164742E+03  0.20335388008E+03  0.12500172506E+03 0.  0.
          4    1    3    3  501    0 -0.34807330016E+02 -0.73745941100E+01 -0.15723362118E+03  0.16121401735E+03  0.12700000000E+01 0.  1.
         -4    1    3    3    0  501  0.39492470418E+02 -0.14559467169E+02 -0.15880262496E+01  0.42139862735E+02  0.12700000000E+01 0.  1.
          2    1    1    2  502    0  0.29331482549E+02 -0.14407635947E+02  0.66861920821E+01  0.33355974078E+02  0.00000000000E+00 0. -1.
          1    1    1    2  503    0 -0.34016622951E+02  0.36341697226E+02 -0.55558731942E+03  0.55781279932E+03  0.00000000000E+00 0. -1.
<mgrwt>
<rscale>  0 0.39739903E+02</rscale>
<asrwt>0</asrwt>
<pdfrwt beam="1">  1        2 0.66769137E-02 0.32678982E+02</pdfrwt>
<pdfrwt beam="2">  1        1 0.11555734E+00 0.48326472E+02</pdfrwt>
<totfact> 0.33612369E+03</totfact>
</mgrwt>
</event>
<event>
 7    1  0.4251803E-004  0.3526971E+02  0.7546771E-02  0.1633982E+00
          2   -1    0    0  503    0  0.00000000000E+00  0.00000000000E+00  0.14912456575E+04  0.14912456575E+04  0.00000000000E+00 0. -1.
         -1   -1    0    0    0  501 -0.00000000000E+00 -0.00000000000E+00 -0.10769448243E+02  0.10769448243E+02  0.00000000000E+00 0.  1.
         25    2    1    2    0    0  0.16322694900E+02 -0.31804905660E+02  0.46916081703E+03  0.48684094622E+03  0.12499700913E+03 0.  0.
          4    1    3    3  502    0 -0.33029055777E+02  0.93933109869E+01  0.39326959945E+02  0.52224280706E+02  0.12700000000E+01 0. -1.
         -4    1    3    3    0  502  0.49351750677E+02 -0.41198216646E+02  0.42983385709E+03  0.43461666552E+03  0.12700000000E+01 0. -1.
          2    1    1    2  503    0 -0.30985860294E+02  0.17262719271E+02  0.94615207290E+03  0.94681670352E+03  0.00000000000E+00 0. -1.
         -1    1    1    2    0  501  0.14663165393E+02  0.14542186388E+02  0.65163319283E+02  0.68357455952E+02  0.00000000000E+00 0.  1.
<mgrwt>
<rscale>  0 0.26988364E+02</rscale>
<asrwt>0</asrwt>
<pdfrwt beam="1">  1        2 0.22942224E+00 0.35269714E+02</pdfrwt>
<pdfrwt beam="2">  1       -1 0.16568394E-02 0.20651479E+02</pdfrwt>
<totfact> 0.11295218E+04</totfact>
</mgrwt>
</event>
<event>
 7    1  0.8110564E-004  0.1290629E+03  0.7546771E-02  0.1356851E+00
          2   -1    0    0  503    0  0.00000000000E+00  0.00000000000E+00  0.18545928862E+04  0.18545928862E+04  0.00000000000E+00 0. -1.
         -1   -1    0    0    0  501 -0.00000000000E+00 -0.00000000000E+00 -0.18457469539E+02  0.18457469539E+02  0.00000000000E+00 0.  1.
         25    2    1    2    0    0  0.13943376141E+03 -0.60057493469E+02  0.90713144498E+03  0.92821522780E+03  0.12508946517E+03 0.  0.
          4    1    3    3  502    0  0.27404601331E+02  0.62718596235E+01  0.49957793935E+03  0.50036994192E+03  0.12700000000E+01 0.  1.
         -4    1    3    3    0  502  0.11202916008E+03 -0.66329353092E+02  0.40755350564E+03  0.42784528587E+03  0.12700000000E+01 0.  1.
          2    1    1    2  503    0 -0.39008646739E+02 -0.79981974353E+00  0.44837955632E+03  0.45007392810E+03  0.00000000000E+00 0. -1.
         -1    1    1    2    0  501 -0.10042511467E+03  0.60857313212E+02  0.48062441534E+03  0.49476119982E+03  0.00000000000E+00 0.  1.
<mgrwt>
<rscale>  0 0.70962159E+02</rscale>
<asrwt>0</asrwt>
<pdfrwt beam="1">  1        2 0.28532183E+00 0.39016845E+02</pdfrwt>
<pdfrwt beam="2">  1       -1 0.28396122E-02 0.12906292E+03</pdfrwt>
<totfact> 0.46525798E+03</totfact>
</mgrwt>
</event>
<event>
 7    1  0.4251803E-004  0.6809563E+02  0.7546771E-02  0.1430297E+00
          2   -1    0    0  503    0  0.00000000000E+00  0.00000000000E+00  0.29173691166E+02  0.29173691166E+02  0.00000000000E+00 0. -1.
         -1   -1    0    0    0  501 -0.00000000000E+00 -0.00000000000E+00 -0.77264917136E+03  0.77264917136E+03  0.00000000000E+00 0.  1.
         25    2    1    2    0    0  0.58297686529E+02 -0.45814638565E+02 -0.19846442479E+03  0.24598975958E+03  0.12500093020E+03 0.  0.
          4    1    3    3  502    0  0.58162524694E+02 -0.25355993805E+02 -0.21208654634E+03  0.22137778059E+03  0.12700000000E+01 0.  1.
         -4    1    3    3    0  502  0.13516183433E+00 -0.20458644760E+02  0.13622121553E+02  0.24611978989E+02  0.12700000000E+01 0.  1.
          2    1    1    2  503    0 -0.21105441301E+02  0.63296639424E+02 -0.29366469569E+03  0.30114922831E+03  0.00000000000E+00 0. -1.
         -1    1    1    2    0  501 -0.37192245228E+02 -0.17482000859E+02 -0.25134635972E+03  0.25468387464E+03  0.00000000000E+00 0.  1.
<mgrwt>
<rscale>  0 0.52900471E+02</rscale>
<asrwt>0</asrwt>
<pdfrwt beam="1">  1        2 0.44882609E-02 0.68095629E+02</pdfrwt>
<pdfrwt beam="2">  1       -1 0.11886908E+00 0.41096027E+02</pdfrwt>
<totfact> 0.13651388E+03</totfact>
</mgrwt>
</event>
<event>
 7    1  0.4251803E-004  0.8394471E+02  0.7546771E-02  0.1369879E+00
          1   -1    0    0  503    0 -0.00000000000E+00  0.00000000000E+00  0.79522352780E+03  0.79522352780E+03  0.00000000000E+00 0. -1.
          2   -1    0    0  502    0  0.00000000000E+00 -0.00000000000E+00 -0.24538620831E+04  0.24538620831E+04  0.00000000000E+00 0. -1.
         25    2    1    2    0    0 -0.68936052141E+02 -0.18967467175E+02  0.56465156991E+03  0.58272636384E+03  0.12500670232E+03 0.  0.
          4    1    3    3  501    0 -0.27066272579E+02  0.49431903254E+02  0.14689716943E+03  0.15734194436E+03  0.12700000000E+01 0.  1.
         -4    1    3    3    0  501 -0.41869779562E+02 -0.68399370429E+02  0.41775440048E+03  0.42538441948E+03  0.12700000000E+01 0.  1.
          2    1    1    2  502    0  0.76670139992E+02 -0.34270647693E+02 -0.24408258576E+04  0.24422701847E+04  0.00000000000E+00 0. -1.
          1    1    1    2  503    0 -0.77340878508E+01  0.53238114868E+02  0.21753573243E+03  0.22408906237E+03  0.00000000000E+00 0. -1.
<mgrwt>
<rscale>  0 0.67200968E+02</rscale>
<asrwt>0</asrwt>
<pdfrwt beam="2">  1        2 0.37751723E+00 0.83944706E+02</pdfrwt>
<pdfrwt beam="1">  1        1 0.12234208E+00 0.53796961E+02</pdfrwt>
<totfact> 0.17100035E+01</totfact>
</mgrwt>
</event>
<event>
 7    1  0.4251803E-004  0.1031117E+03  0.7546771E-02  0.1381730E+00
          2   -1    0    0  503    0  0.00000000000E+00  0.00000000000E+00  0.58130796943E+03  0.58130796943E+03  0.00000000000E+00 0.  1.
         -1   -1    0    0    0  501 -0.00000000000E+00 -0.00000000000E+00 -0.63336409978E+02  0.63336409978E+02  0.00000000000E+00 0.  1.
         25    2    1    2    0    0  0.84219900140E+02 -0.57261609278E+02  0.14666064934E+03  0.21795842412E+03  0.12499858041E+03 0.  0.
          4    1    3    3  502    0  0.96392285811E+02 -0.11432339462E+01  0.58594647749E+02  0.11281722117E+03  0.12700000000E+01 0. -1.
         -4    1    3    3    0  502 -0.12172385671E+02 -0.56118375332E+02  0.88066001586E+02  0.10514120295E+03  0.12700000000E+01 0. -1.
          2    1    1    2  503    0 -0.24630467893E+02 -0.31183889152E+02  0.28965585849E+03  0.29236896424E+03  0.00000000000E+00 0.  1.
         -1    1    1    2    0  501 -0.59589432247E+02  0.88445498430E+02  0.81655051624E+02  0.13431699105E+03  0.00000000000E+00 0.  1.
<mgrwt>
<rscale>  0 0.64011205E+02</rscale>
<asrwt>0</asrwt>
<pdfrwt beam="1">  1        2 0.89431992E-01 0.39737827E+02</pdfrwt>
<pdfrwt beam="2">  1       -1 0.97440634E-02 0.10311169E+03</pdfrwt>
<totfact> 0.37091726E+03</totfact>
</mgrwt>
</event>
<event>
 7    1  0.4251803E-004  0.4894070E+02  0.7546771E-02  0.1523397E+00
          2   -1    0    0  503    0  0.00000000000E+00  0.00000000000E+00  0.12793054627E+04  0.12793054627E+04  0.00000000000E+00 0. -1.
         -1   -1    0    0    0  501 -0.00000000000E+00 -0.00000000000E+00 -0.12063678018E+02  0.12063678018E+02  0.00000000000E+00 0.  1.
         25    2    1    2    0    0  0.41336635291E+02 -0.50616933157E+02  0.81077158107E+03  0.82295244778E+03  0.12501753195E+03 0.  0.
          4    1    3    3  502    0  0.60472088825E+02 -0.82867934413E+02  0.54878663893E+03  0.55829414832E+03  0.12700000000E+01 0. -1.
         -4    1    3    3    0  502 -0.19135453534E+02  0.32251001257E+02  0.26198494214E+03  0.26465829946E+03  0.12700000000E+01 0. -1.
          2    1    1    2  503    0 -0.12422958474E+02  0.44670257194E+02  0.41461427200E+03  0.41719870124E+03  0.00000000000E+00 0. -1.
         -1    1    1    2    0  501 -0.28913676817E+02  0.59466759624E+01  0.41855931620E+02  0.51217991701E+02  0.00000000000E+00 0.  1.
<mgrwt>
<rscale>  0 0.38008868E+02</rscale>
<asrwt>0</asrwt>
<pdfrwt beam="1">  1        2 0.19681612E+00 0.48940696E+02</pdfrwt>
<pdfrwt beam="2">  1       -1 0.18559515E-02 0.29518870E+02</pdfrwt>
<totfact> 0.12894442E+04</totfact>
</mgrwt>
</event>
<event>
 7    1  0.4251803E-004  0.8190079E+02  0.7546771E-02  0.1480265E+00
          2   -1    0    0  503    0  0.00000000000E+00  0.00000000000E+00  0.18038860957E+03  0.18038860957E+03  0.00000000000E+00 0. -1.
          2   -1    0    0  502    0 -0.00000000000E+00 -0.00000000000E+00 -0.95596305097E+03  0.95596305097E+03  0.00000000000E+00 0. -1.
         25    2    1    2    0    0  0.36660313628E+02  0.79340037475E+02 -0.35151419428E+03  0.38317813478E+03  0.12499773620E+03 0.  0.
          4    1    3    3  501    0 -0.90612741457E+01  0.99941956016E+02 -0.26202932165E+03  0.28059130344E+03  0.12700000000E+01 0. -1.
         -4    1    3    3    0  501  0.45721587773E+02 -0.20601918541E+02 -0.89484872626E+02  0.10258683134E+03  0.12700000000E+01 0. -1.
          2    1    1    2  502    0  0.16446289495E+02 -0.17076312461E+02 -0.57818447466E+03  0.57867034452E+03  0.00000000000E+00 0. -1.
          2    1    1    2  503    0 -0.53106603122E+02 -0.62263725014E+02  0.15412422754E+03  0.17450318124E+03  0.00000000000E+00 0. -1.
<mgrwt>
<rscale>  0 0.44064997E+02</rscale>
<asrwt>0</asrwt>
<pdfrwt beam="1">  1        2 0.27752095E-01 0.81900787E+02</pdfrwt>
<pdfrwt beam="2">  1        2 0.14707123E+00 0.23708245E+02</pdfrwt>
<totfact> 0.90827630E+02</totfact>
</mgrwt>
</event>
<event>
 7    1  0.4251803E-004  0.9321383E+02  0.7546771E-02  0.1353979E+00
          1   -1    0    0  503    0  0.00000000000E+00  0.00000000000E+00  0.10549182967E+04  0.10549182967E+04  0.00000000000E+00 0. -1.
          1   -1    0    0  502    0 -0.00000000000E+00 -0.00000000000E+00 -0.78261839243E+02  0.78261839243E+02  0.00000000000E+00 0. -1.
         25    2    1    2    0    0  0.57486905437E+02 -0.54896804534E+01  0.35584059340E+03  0.38155397986E+03  0.12500412292E+03 0.  0.
          4    1    3    3  501    0  0.34883144755E+02  0.48270518263E+02  0.80738305722E+02  0.10033525618E+03  0.12700000000E+01 0.  1.
         -4    1    3    3    0  501  0.22603760682E+02 -0.53760198716E+02  0.27510228768E+03  0.28121872368E+03  0.12700000000E+01 0.  1.
          1    1    1    2  502    0  0.37524170389E+02 -0.40690502747E+02 -0.48761701094E+02  0.73766414247E+02  0.00000000000E+00 0. -1.
          1    1    1    2  503    0 -0.95011075827E+02  0.46180183201E+02  0.66957756510E+03  0.67785974178E+03  0.00000000000E+00 0. -1.
<mgrwt>
<rscale>  0 0.71829788E+02</rscale>
<asrwt>0</asrwt>
<pdfrwt beam="1">  1        1 0.16229511E+00 0.93213831E+02</pdfrwt>
<pdfrwt beam="2">  1        1 0.12040284E-01 0.55351426E+02</pdfrwt>
<totfact> 0.85566613E+02</totfact>
</mgrwt>
</event>
<event>
 7    1  0.4251803E-004  0.1631954E+03  0.7546771E-02  0.1281526E+00
          2   -1    0    0  503    0  0.00000000000E+00  0.00000000000E+00  0.15603493029E+03  0.15603493029E+03  0.00000000000E+00 0.  1.
         -3   -1    0    0    0  501 -0.00000000000E+00 -0.00000000000E+00 -0.62380757291E+03  0.62380757291E+03  0.00000000000E+00 0.  1.
         25    2    1    2    0    0 -0.55942388755E+02  0.19812958851E+03 -0.14526995230E+03  0.28126012372E+03  0.12497605150E+03 0.  0.
          4    1    3    3  502    0 -0.45997434569E+02  0.15464922464E+03 -0.16649338840E+03  0.23184867468E+03  0.12700000000E+01 0. -1.
         -4    1    3    3    0  502 -0.99449541867E+01  0.43480363864E+02  0.21223436102E+02  0.49411449032E+02  0.12700000000E+01 0. -1.
          2    1    1    2  503    0  0.60354807195E+02 -0.13772651175E+03  0.19166351914E+02  0.15158708334E+03  0.00000000000E+00 0.  1.
         -3    1    1    2    0  501 -0.44124184394E+01 -0.60403076755E+02 -0.34166904224E+03  0.34699529614E+03  0.00000000000E+00 0.  1.
<mgrwt>
<rscale>  0 0.99417146E+02</rscale>
<asrwt>0</asrwt>
<pdfrwt beam="1">  1        2 0.24005374E-01 0.16319538E+03</pdfrwt>
<pdfrwt beam="2">  1       -3 0.95970397E-01 0.60564025E+02</pdfrwt>
<totfact> 0.13250891E+02</totfact>
</mgrwt>
</event>
<event>
 7    1  0.4251803E-004  0.5454438E+02  0.7546771E-02  0.1450757E+00
          2   -1    0    0  502    0  0.00000000000E+00  0.00000000000E+00  0.40534823758E+03  0.40534823758E+03  0.00000000000E+00 0. -1.
          1   -1    0    0  503    0 -0.00000000000E+00 -0.00000000000E+00 -0.57181390250E+02  0.57181390250E+02  0.00000000000E+00 0. -1.
         25    2    1    2    0    0 -0.13418638488E+02  0.73359562702E+02  0.27326867353E+03  0.30961653243E+03  0.12499977569E+03 0.  0.
          4    1    3    3  501    0  0.20118365025E+02  0.92835991299E+02  0.12890712642E+03  0.16013097774E+03  0.12700000000E+01 0. -1.
         -4    1    3    3    0  501 -0.33537003513E+02 -0.19476428597E+02  0.14436154711E+03  0.14948555468E+03  0.12700000000E+01 0. -1.
          2    1    1    2  502    0  0.36027507629E+02 -0.35569588496E+02  0.92532088622E+02  0.10547684275E+03  0.00000000000E+00 0. -1.
          1    1    1    2  503    0 -0.22608869141E+02 -0.37789974206E+02 -0.17633914815E+02  0.47436252656E+02  0.00000000000E+00 0. -1.
<mgrwt>
<rscale>  0 0.49009816E+02</rscale>
<asrwt>0</asrwt>
<pdfrwt beam="1">  1        2 0.62361265E-01 0.54544381E+02</pdfrwt>
<pdfrwt beam="2">  1        1 0.87971372E-02 0.44036838E+02</pdfrwt>
<totfact> 0.72256810E+03</totfact>
</mgrwt>
</event>
<event>
 7    1  0.4251803E-004  0.1002730E+03  0.7546771E-02  0.1328366E+00
          2   -1    0    0  503    0  0.00000000000E+00  0.00000000000E+00  0.10379885236E+04  0.10379885236E+04  0.00000000000E+00 0. -1.
         -2   -1    0    0    0  501 -0.00000000000E+00 -0.00000000000E+00 -0.46899924896E+03  0.46899924896E+03  0.00000000000E+00 0.  1.
         25    2    1    2    0    0  0.50367931940E+02 -0.34168919144E+01  0.49827270554E+02  0.14373728362E+03  0.12501618333E+03 0.  0.
          4    1    3    3  502    0  0.36663745163E+01 -0.31425850537E+02  0.76713635472E+02  0.82991693268E+02  0.12700000000E+01 0.  1.
         -4    1    3    3    0  502  0.46701557423E+02  0.28008958623E+02 -0.26886364918E+02  0.60745590353E+02  0.12700000000E+01 0.  1.
          2    1    1    2  503    0  0.37535502223E+02 -0.52099127708E+02  0.93368396335E+03  0.93588940396E+03  0.00000000000E+00 0. -1.
         -2    1    1    2    0  501 -0.87903434163E+02  0.55516019623E+02 -0.41452195930E+03  0.42736108493E+03  0.00000000000E+00 0.  1.
<mgrwt>
<rscale>  0 0.80241967E+02</rscale>
<asrwt>0</asrwt>
<pdfrwt beam="1">  1        2 0.15969054E+00 0.64212406E+02</pdfrwt>
<pdfrwt beam="2">  1       -2 0.72153731E-01 0.10027304E+03</pdfrwt>
<totfact> 0.49462992E+01</totfact>
</mgrwt>
</event>
<event>
 7    1  0.4251803E-004  0.4196204E+02  0.7546771E-02  0.1513508E+00
          1   -1    0    0  502    0  0.00000000000E+00  0.00000000000E+00  0.95901519678E+02  0.95901519678E+02  0.00000000000E+00 0. -1.
          1   -1    0    0  503    0 -0.00000000000E+00 -0.00000000000E+00 -0.22786259915E+04  0.22786259915E+04  0.00000000000E+00 0. -1.
         25    2    1    2    0    0  0.85242974289E+01 -0.77431804837E+02 -0.31334173830E+03  0.34621818420E+03  0.12496254666E+03 0.  0.
          4    1    3    3  501    0 -0.53621796249E+02 -0.61994704038E+02 -0.15342266243E+03  0.17395047171E+03  0.12700000000E+01 0.  1.
         -4    1    3    3    0  501  0.62146093678E+02 -0.15437100799E+02 -0.15991907587E+03  0.17226771249E+03  0.12700000000E+01 0.  1.
          1    1    1    2  502    0 -0.77019275851E+01  0.40654354883E+02  0.73890954082E+02  0.84687480507E+02  0.00000000000E+00 0. -1.
          1    1    1    2  503    0 -0.82236984385E+00  0.36777449954E+02 -0.19432736876E+04  0.19436218465E+04  0.00000000000E+00 0. -1.
<mgrwt>
<rscale>  0 0.39289215E+02</rscale>
<asrwt>0</asrwt>
<pdfrwt beam="1">  1        1 0.14754081E-01 0.41962036E+02</pdfrwt>
<pdfrwt beam="2">  1        1 0.35055782E+00 0.36786643E+02</pdfrwt>
<totfact> 0.12211227E+02</totfact>
</mgrwt>
</event>
<event>
 7    1  0.4251803E-004  0.8997091E+02  0.7546771E-02  0.1398134E+00
          2   -1    0    0  502    0  0.00000000000E+00  0.00000000000E+00  0.16510899932E+04  0.16510899932E+04  0.00000000000E+00 0. -1.
          1   -1    0    0  503    0 -0.00000000000E+00 -0.00000000000E+00 -0.23229488697E+02  0.23229488697E+02  0.00000000000E+00 0. -1.
         25    2    1    2    0    0 -0.55796838968E+02  0.21817643671E+02  0.79899743359E+03  0.81093017770E+03  0.12498622886E+03 0.  0.
          4    1    3    3  501    0 -0.76524016377E+02  0.16522467954E+02  0.26064416724E+03  0.27215053159E+03  0.12700000000E+01 0. -1.
         -4    1    3    3    0  501  0.20727177408E+02  0.52951757178E+01  0.53835326635E+03  0.53877964610E+03  0.12700000000E+01 0. -1.
          2    1    1    2  502    0 -0.38741219089E+02 -0.96170659668E+01  0.70956045108E+03  0.71068235081E+03  0.00000000000E+00 0. -1.
          1    1    1    2  503    0  0.94538058057E+02 -0.12200577704E+02  0.11930261988E+03  0.15270695344E+03  0.00000000000E+00 0. -1.
<mgrwt>
<rscale>  0 0.59928059E+02</rscale>
<asrwt>0</asrwt>
<pdfrwt beam="1">  1        2 0.25401375E+00 0.39917039E+02</pdfrwt>
<pdfrwt beam="2">  1        1 0.35737688E-02 0.89970909E+02</pdfrwt>
<totfact> 0.43731145E+03</totfact>
</mgrwt>
</event>
<event>
 7    1  0.4251803E-004  0.7112557E+02  0.7546771E-02  0.1442732E+00
         -1   -1    0    0    0  501 -0.00000000000E+00  0.00000000000E+00  0.94159230711E+03  0.94159230711E+03  0.00000000000E+00 0.  1.
          1   -1    0    0  503    0  0.00000000000E+00 -0.00000000000E+00 -0.23333480156E+02  0.23333480156E+02  0.00000000000E+00 0. -1.
         25    2    1    2    0    0 -0.28073154042E+02  0.81245345499E+02  0.32464239120E+03  0.35833917769E+03  0.12500150385E+03 0.  0.
          4    1    3    3  502    0 -0.16851010979E+02 -0.31251553321E+02  0.50019348988E+02  0.61352785830E+02  0.12700000000E+01 0. -1.
         -4    1    3    3    0  502 -0.11222143062E+02  0.11249689882E+03  0.27462304221E+03  0.29698639186E+03  0.12700000000E+01 0. -1.
          1    1    1    2  503    0  0.33925409867E+02 -0.11548799746E+02  0.73313857041E+02  0.81604104336E+02  0.00000000000E+00 0. -1.
         -1    1    1    2    0  501 -0.58522558254E+01 -0.69696545753E+02  0.52030257872E+03  0.52498250524E+03  0.00000000000E+00 0.  1.
<mgrwt>
<rscale>  0 0.50487073E+02</rscale>
<asrwt>0</asrwt>
<pdfrwt beam="2">  1        1 0.35897669E-02 0.35837246E+02</pdfrwt>
<pdfrwt beam="1">  1       -1 0.14486033E+00 0.71125571E+02</pdfrwt>
<totfact> 0.96150203E+02</totfact>
</mgrwt>
</event>
<event>
 7    1  0.4251803E-004  0.5103046E+02  0.7546771E-02  0.1552503E+00
          1   -1    0    0  503    0  0.00000000000E+00  0.00000000000E+00  0.10177043265E+03  0.10177043265E+03  0.00000000000E+00 0. -1.
          1   -1    0    0  502    0 -0.00000000000E+00 -0.00000000000E+00 -0.13067478582E+03  0.13067478582E+03  0.00000000000E+00 0. -1.
         25    2    1    2    0    0  0.49535164469E+02  0.39873342508E+02 -0.40088498775E+02  0.14586107671E+03  0.12499900001E+03 0.  0.
          4    1    3    3  501    0  0.12083972771E+02  0.56645545495E+02 -0.73033783540E+02  0.93221707024E+02  0.12700000000E+01 0. -1.
         -4    1    3    3    0  501  0.37451191698E+02 -0.16772202987E+02  0.32945284764E+02  0.52639369685E+02  0.12700000000E+01 0. -1.
          1    1    1    2  502    0 -0.28515396403E+01 -0.23237143503E+02 -0.17584663863E+02  0.29279967891E+02  0.00000000000E+00 0. -1.
          1    1    1    2  503    0 -0.46683624829E+02 -0.16636199005E+02  0.28768809476E+02  0.57304173872E+02  0.00000000000E+00 0. -1.
<mgrwt>
<rscale>  0 0.34564392E+02</rscale>
<asrwt>0</asrwt>
<pdfrwt beam="1">  1        1 0.15656990E-01 0.51030460E+02</pdfrwt>
<pdfrwt beam="2">  1        1 0.20103813E-01 0.23411453E+02</pdfrwt>
<totfact> 0.89249113E+03</totfact>
</mgrwt>
</event>
<event>
 7    1  0.4251803E-004  0.4677691E+02  0.7546771E-02  0.1499164E+00
          1   -1    0    0  503    0  0.00000000000E+00  0.00000000000E+00  0.11330740083E+04  0.11330740083E+04  0.00000000000E+00 0. -1.
         -2   -1    0    0    0  501 -0.00000000000E+00 -0.00000000000E+00 -0.27169888778E+02  0.27169888778E+02  0.00000000000E+00 0.  1.
         25    2    1    2    0    0 -0.45257994298E+02  0.23094406201E+02  0.15840981261E+03  0.20808686626E+03  0.12499935012E+03 0.  0.
          4    1    3    3  502    0 -0.79261661391E+02 -0.10033513091E+02  0.63887155252E+02  0.10230475970E+03  0.12700000000E+01 0.  1.
         -4    1    3    3    0  502  0.34003667093E+02  0.33127919292E+02  0.94522657361E+02  0.10578210655E+03  0.12700000000E+01 0.  1.
          1    1    1    2  503    0  0.15728935092E+02 -0.44356694464E+02  0.74009672365E+03  0.74159158308E+03  0.00000000000E+00 0. -1.
         -2    1    1    2    0  501  0.29529059206E+02  0.21262288263E+02  0.20739758327E+03  0.21056544775E+03  0.00000000000E+00 0.  1.
<mgrwt>
<rscale>  0 0.41256454E+02</rscale>
<asrwt>0</asrwt>
<pdfrwt beam="1">  1        1 0.17431904E+00 0.46776914E+02</pdfrwt>
<pdfrwt beam="2">  1       -2 0.41799838E-02 0.36387501E+02</pdfrwt>
<totfact> 0.26607839E+03</totfact>
</mgrwt>
</event>
<event>
 7    1  0.4251803E-004  0.6484918E+02  0.7546771E-02  0.1408414E+00
          2   -1    0    0  502    0  0.00000000000E+00  0.00000000000E+00  0.79755456093E+03  0.79755456093E+03  0.00000000000E+00 0. -1.
          2   -1    0    0  503    0 -0.00000000000E+00 -0.00000000000E+00 -0.12199552035E+04  0.12199552035E+04  0.00000000000E+00 0. -1.
         25    2    1    2    0    0 -0.21740691787E+02  0.30147186303E+02 -0.69135987741E+02  0.14755315927E+03  0.12494254475E+03 0.  0.
          4    1    3    3  501    0 -0.30000038635E+02  0.36014169394E+02  0.24813547945E+02  0.53050426736E+02  0.12700000000E+01 0.  1.
         -4    1    3    3    0  501  0.82593468481E+01 -0.58669830905E+01 -0.93949535685E+02  0.94502732534E+02  0.12700000000E+01 0.  1.
          2    1    1    2  502    0 -0.43996599842E+02 -0.25933737195E+02  0.75650838971E+03  0.75823031014E+03  0.00000000000E+00 0. -1.
          2    1    1    2  503    0  0.65737291629E+02 -0.42134491084E+01 -0.11097730446E+04  0.11117262951E+04  0.00000000000E+00 0. -1.
<mgrwt>
<rscale>  0 0.57549289E+02</rscale>
<asrwt>0</asrwt>
<pdfrwt beam="1">  1        2 0.12270070E+00 0.51071122E+02</pdfrwt>
<pdfrwt beam="2">  1        2 0.18768542E+00 0.64849185E+02</pdfrwt>
<totfact> 0.12627347E+02</totfact>
</mgrwt>
</event>
<event>
 7    1  0.4251803E-004  0.9722293E+02  0.7546771E-02  0.1379723E+00
         -2   -1    0    0    0  501 -0.00000000000E+00  0.00000000000E+00  0.45287879781E+02  0.45287879781E+02  0.00000000000E+00 0. -1.
          1   -1    0    0  503    0  0.00000000000E+00 -0.00000000000E+00 -0.55628875457E+03  0.55628875457E+03  0.00000000000E+00 0. -1.
         25    2    1    2    0    0 -0.18891355844E+02  0.62678705150E+02 -0.14967469454E+03  0.20569888043E+03  0.12499604721E+03 0.  0.
          4    1    3    3  502    0 -0.58579167440E+02 -0.51576674275E+01 -0.41518299661E+02  0.71996545042E+02  0.12700000000E+01 0. -1.
         -4    1    3    3    0  502  0.39687811596E+02  0.67836372577E+02 -0.10815639488E+03  0.13370233539E+03  0.12700000000E+01 0. -1.
          1    1    1    2  503    0  0.20218873106E+02 -0.10549773365E+03 -0.31484990101E+03  0.33266955797E+03  0.00000000000E+00 0. -1.
         -2    1    1    2    0  501 -0.13275172617E+01  0.42819028498E+02 -0.46476279231E+02  0.63208195947E+02  0.00000000000E+00 0. -1.
<mgrwt>
<rscale>  0 0.64536747E+02</rscale>
<asrwt>0</asrwt>
<pdfrwt beam="2">  1        1 0.85582889E-01 0.97222932E+02</pdfrwt>
<pdfrwt beam="1">  1       -2 0.69673658E-02 0.42839602E+02</pdfrwt>
<totfact> 0.35637046E+03</totfact>
</mgrwt>
</event>
<event>
 7    1  0.4251803E-004  0.4417863E+02  0.7546771E-02  0.1518023E+00
          2   -1    0    0  503    0  0.00000000000E+00  0.00000000000E+00  0.15959019434E+04  0.15959019434E+04  0.00000000000E+00 0. -1.
         -1   -1    0    0    0  501 -0.00000000000E+00 -0.00000000000E+00 -0.10186977341E+02  0.10186977341E+02  0.00000000000E+00 0.  1.
         25    2    1    2    0    0  0.14899384162E+02  0.35446615142E+02  0.50860599019E+03  0.52515186268E+03  0.12500388570E+03 0.  0.
          4    1    3    3  502    0  0.16583272761E+02  0.68708890148E+02  0.15957071298E+03  0.17452891411E+03  0.12700000000E+01 0.  1.
         -4    1    3    3    0  502 -0.16838885994E+01 -0.33262275006E+02  0.34903527722E+03  0.35062294857E+03  0.12700000000E+01 0.  1.
          2    1    1    2  503    0 -0.28527734514E+02  0.18305948673E+02  0.50928288641E+03  0.51040963724E+03  0.00000000000E+00 0. -1.
         -1    1    1    2    0  501  0.13628350352E+02 -0.53752563815E+02  0.56782608945E+03  0.57052742082E+03  0.00000000000E+00 0.  1.
<mgrwt>
<rscale>  0 0.38697278E+02</rscale>
<asrwt>0</asrwt>
<pdfrwt beam="1">  1        2 0.24552318E+00 0.33896009E+02</pdfrwt>
<pdfrwt beam="2">  1       -1 0.15672285E-02 0.44178633E+02</pdfrwt>
<totfact> 0.12587809E+04</totfact>
</mgrwt>
</event>
<event>
 7    1  0.4251803E-004  0.3582279E+02  0.7546771E-02  0.1581821E+00
         -1   -1    0    0    0  501 -0.00000000000E+00  0.00000000000E+00  0.22701699948E+03  0.22701699948E+03  0.00000000000E+00 0.  1.
          2   -1    0    0  503    0  0.00000000000E+00 -0.00000000000E+00 -0.50439903586E+02  0.50439903586E+02  0.00000000000E+00 0. -1.
         25    2    1    2    0    0  0.19381157841E+02  0.18576405417E+02  0.10547514602E+03  0.16574301216E+03  0.12500011013E+03 0.  0.
          4    1    3    3  502    0  0.10519615761E+02 -0.53842101863E+02  0.44485314323E+02  0.70641279286E+02  0.12700000000E+01 0.  1.
         -4    1    3    3    0  502  0.88615420792E+01  0.72418507280E+02  0.60989831697E+02  0.95101732871E+02  0.12700000000E+01 0.  1.
          2    1    1    2  503    0 -0.19426386472E+02  0.19805403518E+02 -0.33568329304E+01  0.27944710182E+02  0.00000000000E+00 0. -1.
         -1    1    1    2    0  501  0.45228631214E-01 -0.38381808935E+02  0.74458782801E+02  0.83769180722E+02  0.00000000000E+00 0.  1.
<mgrwt>
<rscale>  0 0.31524731E+02</rscale>
<asrwt>0</asrwt>
<pdfrwt beam="2">  1        2 0.77599853E-02 0.27742359E+02</pdfrwt>
<pdfrwt beam="1">  1       -1 0.34925692E-01 0.35822789E+02</pdfrwt>
<totfact> 0.64417987E+03</totfact>
</mgrwt>
</event>
<event>
 7    1  0.4251803E-004  0.7124838E+02  0.7546771E-02  0.1369229E+00
          1   -1    0    0  502    0  0.00000000000E+00  0.00000000000E+00  0.14240171899E+04  0.14240171899E+04  0.00000000000E+00 0. -1.
          1   -1    0    0  503    0 -0.00000000000E+00 -0.00000000000E+00 -0.10781234952E+04  0.10781234952E+04  0.00000000000E+00 0. -1.
         25    2    1    2    0    0 -0.63730977395E+02 -0.11263953033E+03 -0.24071640441E+02  0.18153345605E+03  0.12500260205E+03 0.  0.
          4    1    3    3  501    0 -0.10055616810E+02 -0.56983605624E+02 -0.70593132651E+02  0.91286636573E+02  0.12700000000E+01 0. -1.
         -4    1    3    3    0  501 -0.53675360584E+02 -0.55655924709E+02  0.46521492210E+02  0.90246819481E+02  0.12700000000E+01 0. -1.
          1    1    1    2  502    0  0.17775808366E+02  0.68491397855E+02  0.13433131628E+04  0.13451755663E+04  0.00000000000E+00 0. -1.
          1    1    1    2  503    0  0.45955169029E+02  0.44148132477E+02 -0.97334782760E+03  0.97543166273E+03  0.00000000000E+00 0. -1.
<mgrwt>
<rscale>  0 0.67382019E+02</rscale>
<asrwt>0</asrwt>
<pdfrwt beam="1">  1        1 0.21907957E+00 0.71248384E+02</pdfrwt>
<pdfrwt beam="2">  1        1 0.16586515E+00 0.63725467E+02</pdfrwt>
<totfact> 0.16958054E+01</totfact>
</mgrwt>
</event>
<event>
 7    1  0.4251803E-004  0.8032632E+02  0.7546771E-02  0.1478717E+00
         -1   -1    0    0    0  501 -0.00000000000E+00  0.00000000000E+00  0.27707705005E+02  0.27707705005E+02  0.00000000000E+00 0.  1.
          2   -1    0    0  503    0  0.00000000000E+00 -0.00000000000E+00 -0.76565631607E+03  0.76565631607E+03  0.00000000000E+00 0. -1.
         25    2    1    2    0    0 -0.82595124590E+02 -0.58799295168E+01 -0.24600080429E+03  0.28809353998E+03  0.12499985556E+03 0.  0.
          4    1    3    3  502    0 -0.29886888971E+02 -0.48264309165E+02 -0.19576273859E+03  0.20383162756E+03  0.12700000000E+01 0.  1.
         -4    1    3    3    0  502 -0.52708235618E+02  0.42384379648E+02 -0.50238065697E+02  0.84261912423E+02  0.12700000000E+01 0.  1.
          2    1    1    2  503    0  0.74983724497E+02  0.29103216283E+02 -0.26306894032E+03  0.27509057327E+03  0.00000000000E+00 0. -1.
         -1    1    1    2    0  501  0.76114000923E+01 -0.23223286766E+02 -0.22887886645E+03  0.23017990783E+03  0.00000000000E+00 0.  1.
<mgrwt>
<rscale>  0 0.44306636E+02</rscale>
<asrwt>0</asrwt>
<pdfrwt beam="2">  1        2 0.11779326E+00 0.80326315E+02</pdfrwt>
<pdfrwt beam="1">  1       -1 0.42627245E-02 0.24438790E+02</pdfrwt>
<totfact> 0.76400885E+03</totfact>
</mgrwt>
</event>
<event>
 7    1  0.4251803E-004  0.3927078E+02  0.7546771E-02  0.1588094E+00
          2   -1    0    0  503    0  0.00000000000E+00  0.00000000000E+00  0.12117813652E+04  0.12117813652E+04  0.00000000000E+00 0. -1.
         -1   -1    0    0    0  501 -0.00000000000E+00 -0.00000000000E+00 -0.93835452737E+01  0.93835452737E+01  0.00000000000E+00 0.  1.
         25    2    1    2    0    0  0.69228000645E+01  0.23377981449E+02  0.70817911787E+03  0.71954012310E+03  0.12500348225E+03 0.  0.
          4    1    3    3  502    0 -0.13522962102E+02 -0.41310496987E+02  0.12341270680E+03  0.13085005451E+03  0.12700000000E+01 0. -1.
         -4    1    3    3    0  502  0.20445762167E+02  0.64688478436E+02  0.58476641108E+03  0.58869006859E+03  0.12700000000E+01 0. -1.
          2    1    1    2  503    0  0.14647307879E+01  0.24307179355E+02  0.60573332654E+02  0.65284860674E+02  0.00000000000E+00 0. -1.
         -1    1    1    2    0  501 -0.83875308524E+01 -0.47685160804E+02  0.43364536943E+03  0.43633992673E+03  0.00000000000E+00 0.  1.
<mgrwt>
<rscale>  0 0.30923995E+02</rscale>
<asrwt>0</asrwt>
<pdfrwt beam="1">  1        2 0.18642778E+00 0.24351271E+02</pdfrwt>
<pdfrwt beam="2">  1       -1 0.14436233E-02 0.39270782E+02</pdfrwt>
<totfact> 0.21859434E+04</totfact>
</mgrwt>
</event>
<event>
 7    1  0.4251803E-004  0.8915204E+02  0.7546771E-02  0.1427078E+00
          1   -1    0    0  502    0  0.00000000000E+00  0.00000000000E+00  0.31029759217E+03  0.31029759217E+03  0.00000000000E+00 0. -1.
          1   -1    0    0  503    0 -0.00000000000E+00 -0.00000000000E+00 -0.79132877311E+03  0.79132877311E+03  0.00000000000E+00 0. -1.
         25    2    1    2    0    0  0.32578151032E+02  0.49951949404E+02 -0.46506530800E+03  0.48524176443E+03  0.12496918047E+03 0.  0.
          4    1    3    3  501    0 -0.42478050104E+02  0.12455001708E+02 -0.83048869459E+02  0.94118220481E+02  0.12700000000E+01 0.  1.
         -4    1    3    3    0  501  0.75056201136E+02  0.37496947695E+02 -0.38201643854E+03  0.39112354395E+03  0.12700000000E+01 0.  1.
          1    1    1    2  502    0 -0.60329026230E+02 -0.66217957841E+02  0.29267251425E+03  0.30607451698E+03  0.00000000000E+00 0. -1.
          1    1    1    2  503    0  0.27750875199E+02  0.16266008437E+02 -0.30863838719E+03  0.31031008387E+03  0.00000000000E+00 0. -1.
<mgrwt>
<rscale>  0 0.53551131E+02</rscale>
<asrwt>0</asrwt>
<pdfrwt beam="1">  1        1 0.47738091E-01 0.89152044E+02</pdfrwt>
<pdfrwt beam="2">  1        1 0.12174289E+00 0.32166661E+02</pdfrwt>
<totfact> 0.26317052E+02</totfact>
</mgrwt>
</event>
<event>
 7    1  0.4251803E-004  0.4762318E+02  0.7546771E-02  0.1555246E+00
          1   -1    0    0  503    0  0.00000000000E+00  0.00000000000E+00  0.93066969087E+03  0.93066969087E+03  0.00000000000E+00 0. -1.
         -2   -1    0    0    0  501 -0.00000000000E+00 -0.00000000000E+00 -0.12929066004E+02  0.12929066004E+02  0.00000000000E+00 0.  1.
         25    2    1    2    0    0 -0.34875743210E+02 -0.25546758865E+02  0.51898154111E+03  0.53557051740E+03  0.12499993894E+03 0.  0.
          4    1    3    3  502    0 -0.31854060482E+02  0.41618733196E+02  0.11985895497E+03  0.13082271251E+03  0.12700000000E+01 0. -1.
         -4    1    3    3    0  502 -0.30216827289E+01 -0.67165492061E+02  0.39912258614E+03  0.40474780488E+03  0.12700000000E+01 0. -1.
          1    1    1    2  503    0  0.22050081097E+02  0.46597948691E+02  0.16236740020E+03  0.17035476966E+03  0.00000000000E+00 0. -1.
         -2    1    1    2    0  501  0.12825662114E+02 -0.21051189826E+02  0.23639168356E+03  0.23767346982E+03  0.00000000000E+00 0.  1.
<mgrwt>
<rscale>  0 0.34262782E+02</rscale>
<asrwt>0</asrwt>
<pdfrwt beam="1">  1        1 0.14317990E+00 0.47623184E+02</pdfrwt>
<pdfrwt beam="2">  1       -2 0.19890878E-02 0.24650562E+02</pdfrwt>
<totfact> 0.97554417E+03</totfact>
</mgrwt>
</event>
<event>
 7    1  0.4251803E-004  0.5833655E+02  0.7546771E-02  0.1463241E+00
          1   -1    0    0  503    0 -0.00000000000E+00  0.00000000000E+00  0.89498600584E+02  0.89498600584E+02  0.00000000000E+00 0. -1.
          2   -1    0    0  502    0  0.00000000000E+00 -0.00000000000E+00 -0.58109329341E+03  0.58109329341E+03  0.00000000000E+00 0. -1.
         25    2    1    2    0    0 -0.77156448146E+02 -0.37039227132E+02 -0.23095618017E+03  0.27620458735E+03  0.12499278012E+03 0.  0.
          4    1    3    3  501    0 -0.33264238411E+02  0.89826474124E+01  0.21785631569E+01  0.34547887765E+02  0.12700000000E+01 0. -1.
         -4    1    3    3    0  501 -0.43892209735E+02 -0.46021874544E+02 -0.23313474332E+03  0.24165669959E+03  0.12700000000E+01 0. -1.
          2    1    1    2  502    0  0.20161572576E+02  0.31726008312E+02 -0.31393351788E+03  0.31617603049E+03  0.00000000000E+00 0. -1.
          1    1    1    2  503    0  0.56994875571E+02  0.53132188192E+01  0.53295005216E+02  0.78211276147E+02  0.00000000000E+00 0. -1.
<mgrwt>
<rscale>  0 0.46828271E+02</rscale>
<asrwt>0</asrwt>
<pdfrwt beam="2">  1        2 0.89398968E-01 0.37590273E+02</pdfrwt>
<pdfrwt beam="1">  1        1 0.13769016E-01 0.58336555E+02</pdfrwt>
<totfact> 0.28661642E+03</totfact>
</mgrwt>
</event>
<event>
 7    1  0.4251803E-004  0.9649487E+02  0.7546771E-02  0.1455475E+00
         -2   -1    0    0    0  501 -0.00000000000E+00  0.00000000000E+00  0.30458124088E+03  0.30458124088E+03  0.00000000000E+00 0.  1.
          1   -1    0    0  503    0  0.00000000000E+00 -0.00000000000E+00 -0.72943297213E+02  0.72943297213E+02  0.00000000000E+00 0. -1.
         25    2    1    2    0    0  0.47045576865E+02 -0.80884802632E+02  0.19297535824E+03  0.24823305701E+03  0.12499809641E+03 0.  0.
          4    1    3    3  502    0 -0.35713124419E+02 -0.58129161657E+02  0.10575190482E+03  0.12585509511E+03  0.12700000000E+01 0.  1.
         -4    1    3    3    0  502  0.82758701284E+02 -0.22755640975E+02  0.87223453418E+02  0.12237796191E+03  0.12700000000E+01 0.  1.
          1    1    1    2  503    0 -0.26992842555E+02  0.94154013579E+02  0.23051570158E+02  0.10062289356E+03  0.00000000000E+00 0. -1.
         -2    1    1    2    0  501 -0.20052734310E+02 -0.13269210947E+02  0.15611015268E+02  0.28668587516E+02  0.00000000000E+00 0.  1.
<mgrwt>
<rscale>  0 0.48169113E+02</rscale>
<asrwt>0</asrwt>
<pdfrwt beam="2">  1        1 0.11222046E-01 0.96494868E+02</pdfrwt>
<pdfrwt beam="1">  1       -2 0.46858652E-01 0.24045459E+02</pdfrwt>
<totfact> 0.19636787E+03</totfact>
</mgrwt>
</event>
<event>
 7    1  0.4251803E-004  0.8456408E+02  0.7546771E-02  0.1333615E+00
          2   -1    0    0  502    0  0.00000000000E+00  0.00000000000E+00  0.60466326015E+03  0.60466326015E+03  0.00000000000E+00 0. -1.
          1   -1    0    0  503    0 -0.00000000000E+00 -0.00000000000E+00 -0.50577070249E+03  0.50577070249E+03  0.00000000000E+00 0. -1.
         25    2    1    2    0    0 -0.20380514841E+02 -0.13782283629E+02  0.70679693876E+00  0.12739926474E+03  0.12499902547E+03 0.  0.
          4    1    3    3  501    0  0.17355904262E+02 -0.46057732410E+02  0.40500206292E+02  0.63752817485E+02  0.12700000000E+01 0.  1.
         -4    1    3    3    0  501 -0.37736419103E+02  0.32275448781E+02 -0.39793409353E+02  0.63646447259E+02  0.12700000000E+01 0.  1.
          2    1    1    2  502    0  0.87084109521E+02 -0.15155415889E+02  0.53396466893E+03  0.54123155527E+03  0.00000000000E+00 0. -1.
          1    1    1    2  503    0 -0.66703594680E+02  0.28937699517E+02 -0.43577890820E+03  0.44180314262E+03  0.00000000000E+00 0. -1.
<mgrwt>
<rscale>  0 0.78413412E+02</rscale>
<asrwt>0</asrwt>
<pdfrwt beam="1">  1        2 0.93025117E-01 0.84564076E+02</pdfrwt>
<pdfrwt beam="2">  1        1 0.77810877E-01 0.72710109E+02</pdfrwt>
<totfact> 0.32235647E+02</totfact>
</mgrwt>
</event>
<event>
 7    1  0.4251803E-004  0.2678557E+02  0.7546771E-02  0.1640796E+00
         -3   -1    0    0    0  501 -0.00000000000E+00  0.00000000000E+00  0.61902169400E+01  0.61902169400E+01  0.00000000000E+00 0.  1.
          2   -1    0    0  503    0  0.00000000000E+00 -0.00000000000E+00 -0.19347492501E+04  0.19347492501E+04  0.00000000000E+00 0. -1.
         25    2    1    2    0    0  0.86397374248E+01 -0.27253165695E+02 -0.14997457642E+04  0.15052178079E+04  0.12500364786E+03 0.  0.
          4    1    3    3  502    0 -0.40175755463E+02 -0.38525761557E+02 -0.35179844212E+03  0.35617703801E+03  0.12700000000E+01 0. -1.
         -4    1    3    3    0  502  0.48815492887E+02  0.11272595862E+02 -0.11479473220E+04  0.11490407699E+04  0.12700000000E+01 0. -1.
          2    1    1    2  503    0  0.17438507613E+02  0.19486796956E+02 -0.36995539253E+03  0.37087845619E+03  0.00000000000E+00 0. -1.
         -3    1    1    2    0  501 -0.26078245037E+02  0.77663687386E+01 -0.58857876493E+02  0.64843202981E+02  0.00000000000E+00 0.  1.
<mgrwt>
<rscale>  0 0.26466016E+02</rscale>
<asrwt>0</asrwt>
<pdfrwt beam="2">  1        2 0.29765339E+00 0.26150273E+02</pdfrwt>
<pdfrwt beam="1">  1       -3 0.95234216E-03 0.26785571E+02</pdfrwt>
<totfact> 0.11968271E+04</totfact>
</mgrwt>
</event>
<event>
 7    1  0.4251803E-004  0.7603324E+02  0.7546771E-02  0.1378552E+00
          1   -1    0    0  503    0 -0.00000000000E+00  0.00000000000E+00  0.77750344705E+02  0.77750344705E+02  0.00000000000E+00 0. -1.
          2   -1    0    0  502    0  0.00000000000E+00 -0.00000000000E+00 -0.65454464773E+03  0.65454464773E+03  0.00000000000E+00 0. -1.
         25    2    1    2    0    0  0.12544065761E+02 -0.73879565436E+02 -0.16422228070E+03  0.21956691058E+03  0.12500050788E+03 0.  0.
          4    1    3    3  501    0  0.57991810610E+02 -0.61496485990E+02 -0.14665832662E+03  0.16927830799E+03  0.12700000000E+01 0.  1.
         -4    1    3    3    0  501 -0.45447744848E+02 -0.12383079446E+02 -0.17563954075E+02  0.50288602597E+02  0.12700000000E+01 0.  1.
          2    1    1    2  502    0 -0.54848072899E+02  0.70920634763E+01 -0.42852277665E+03  0.43207682022E+03  0.00000000000E+00 0. -1.
          1    1    1    2  503    0  0.42304007137E+02  0.66787501960E+02  0.15950754329E+02  0.80651261624E+02  0.00000000000E+00 0. -1.
<mgrwt>
<rscale>  0 0.64845928E+02</rscale>
<asrwt>0</asrwt>
<pdfrwt beam="2">  1        2 0.10069918E+00 0.55304688E+02</pdfrwt>
<pdfrwt beam="1">  1        1 0.11961591E-01 0.76033236E+02</pdfrwt>
<totfact> 0.30338172E+03</totfact>
</mgrwt>
</event>
<event>
 7    1  0.4251803E-004  0.3187669E+02  0.7546771E-02  0.1583975E+00
          2   -1    0    0  502    0  0.00000000000E+00  0.00000000000E+00  0.58613252126E+03  0.58613252126E+03  0.00000000000E+00 0. -1.
          1   -1    0    0  503    0 -0.00000000000E+00 -0.00000000000E+00 -0.50676380561E+03  0.50676380561E+03  0.00000000000E+00 0. -1.
         25    2    1    2    0    0  0.18792880189E+02  0.29712248972E+02  0.33423508509E+02  0.13413234490E+03  0.12505344834E+03 0.  0.
          4    1    3    3  501    0 -0.16462015858E+02  0.45218546023E+02 -0.32281645341E+02  0.57960610732E+02  0.12700000000E+01 0.  1.
         -4    1    3    3    0  501  0.35254896047E+02 -0.15506297050E+02  0.65705153850E+02  0.76171734166E+02  0.12700000000E+01 0.  1.
          2    1    1    2  502    0  0.13104103680E+02 -0.27836178074E+02  0.50132320149E+03  0.50226638619E+03  0.00000000000E+00 0. -1.
          1    1    1    2  503    0 -0.31896983869E+02 -0.18760708987E+01 -0.45537799435E+03  0.45649759578E+03  0.00000000000E+00 0. -1.
<mgrwt>
<rscale>  0 0.31316617E+02</rscale>
<asrwt>0</asrwt>
<pdfrwt beam="1">  1        2 0.90174234E-01 0.30766383E+02</pdfrwt>
<pdfrwt beam="2">  1        1 0.77963663E-01 0.31876691E+02</pdfrwt>
<totfact> 0.34603157E+02</totfact>
</mgrwt>
</event>
<event>
 7    1  0.4251803E-004  0.6760703E+02  0.7546771E-02  0.1426815E+00
         -2   -1    0    0    0  501 -0.00000000000E+00  0.00000000000E+00  0.28755022745E+03  0.28755022745E+03  0.00000000000E+00 0.  1.
          1   -1    0    0  503    0  0.00000000000E+00 -0.00000000000E+00 -0.72040927075E+02  0.72040927075E+02  0.00000000000E+00 0. -1.
         25    2    1    2    0    0  0.41038642829E+02  0.71540036964E+02  0.18937496013E+03  0.24143082308E+03  0.12499527877E+03 0.  0.
          4    1    3    3  502    0 -0.63751836546E+01  0.61374138937E+02  0.19437848183E+02  0.64706033249E+02  0.12700000000E+01 0.  1.
         -4    1    3    3    0  502  0.47413826483E+02  0.10165898027E+02  0.16993711194E+03  0.17672478983E+03  0.12700000000E+01 0.  1.
          1    1    1    2  503    0  0.12576579642E+02 -0.40599198679E+02 -0.13572972363E+02  0.44617158892E+02  0.00000000000E+00 0. -1.
         -2    1    1    2    0  501 -0.53615222470E+02 -0.30940838285E+02  0.39707312607E+02  0.73543172551E+02  0.00000000000E+00 0.  1.
<mgrwt>
<rscale>  0 0.53604756E+02</rscale>
<asrwt>0</asrwt>
<pdfrwt beam="2">  1        1 0.11083220E-01 0.42502533E+02</pdfrwt>
<pdfrwt beam="1">  1       -2 0.44238496E-01 0.67607027E+02</pdfrwt>
<totfact> 0.21414470E+03</totfact>
</mgrwt>
</event>
<event>
 7    1  0.4251803E-004  0.1845761E+03  0.7546771E-02  0.1310392E+00
          1   -1    0    0  503    0 -0.00000000000E+00  0.00000000000E+00  0.12828617457E+04  0.12828617457E+04  0.00000000000E+00 0. -1.
          2   -1    0    0  502    0  0.00000000000E+00 -0.00000000000E+00 -0.16217236983E+03  0.16217236983E+03  0.00000000000E+00 0. -1.
         25    2    1    2    0    0  0.10605795039E+03  0.11872151842E+03  0.24069191564E+03  0.31449278370E+03  0.12502009826E+03 0.  0.
          4    1    3    3  501    0  0.72473166500E+02  0.10379365802E+03  0.80250584356E+02  0.14989080191E+03  0.12700000000E+01 0. -1.
         -4    1    3    3    0  501  0.33584783891E+02  0.14927860394E+02  0.16044133128E+03  0.16460198179E+03  0.12700000000E+01 0. -1.
          2    1    1    2  502    0 -0.88606334015E+00  0.40957689838E+02 -0.11253493775E+03  0.11975988343E+03  0.00000000000E+00 0. -1.
          1    1    1    2  503    0 -0.10517188705E+03 -0.15967920826E+03  0.99253239802E+03  0.10107814484E+04  0.00000000000E+00 0. -1.
<mgrwt>
<rscale>  0 0.86957333E+02</rscale>
<asrwt>0</asrwt>
<pdfrwt beam="2">  1        2 0.24949596E-01 0.40967273E+02</pdfrwt>
<pdfrwt beam="1">  1        1 0.19736334E+00 0.18457606E+03</pdfrwt>
<totfact> 0.28751423E+02</totfact>
</mgrwt>
</event>
<event>
 7    1  0.4251803E-004  0.1020343E+03  0.7546771E-02  0.1277178E+00
         -1   -1    0    0    0  502 -0.00000000000E+00  0.00000000000E+00  0.58660382581E+03  0.58660382581E+03  0.00000000000E+00 0.  1.
         -2   -1    0    0    0  501  0.00000000000E+00 -0.00000000000E+00 -0.23242798290E+03  0.23242798290E+03  0.00000000000E+00 0.  1.
         25    2    1    2    0    0 -0.21120367885E+02 -0.77347493632E+01  0.35823852500E+02  0.13195813692E+03  0.12499482071E+03 0.  0.
          4    1    3    3  503    0  0.10730180657E+02 -0.22354148460E+02 -0.40760188622E+02  0.47726833195E+02  0.12700000000E+01 0.  1.
         -4    1    3    3    0  503 -0.31850548542E+02  0.14619399097E+02  0.76584041122E+02  0.84231303723E+02  0.12700000000E+01 0.  1.
         -2    1    1    2    0  501 -0.18773042210E+02 -0.99202831288E+02 -0.16335048145E+03  0.19203387368E+03  0.00000000000E+00 0.  1.
         -1    1    1    2    0  502  0.39893410095E+02  0.10693758065E+03  0.48170247186E+03  0.49503979812E+03  0.00000000000E+00 0.  1.
<mgrwt>
<rscale>  0 0.10149750E+03</rscale>
<asrwt>0</asrwt>
<pdfrwt beam="2">  1       -2 0.35758151E-01 0.10096350E+03</pdfrwt>
<pdfrwt beam="1">  1       -1 0.90246742E-01 0.10203433E+03</pdfrwt>
<totfact> 0.71410209E+01</totfact>
</mgrwt>
</event>
<event>
 7    1  0.4251803E-004  0.1445308E+03  0.7546771E-02  0.1424558E+00
         -1   -1    0    0    0  501 -0.00000000000E+00  0.00000000000E+00  0.10842092441E+03  0.10842092441E+03  0.00000000000E+00 0.  1.
          1   -1    0    0  503    0  0.00000000000E+00 -0.00000000000E+00 -0.31259320330E+03  0.31259320330E+03  0.00000000000E+00 0. -1.
         25    2    1    2    0    0 -0.14457427272E+03  0.17437697602E+02 -0.81048575491E+02  0.20832690274E+03  0.12500173273E+03 0.  0.
          4    1    3    3  502    0 -0.86105024374E+02  0.69395619044E+02 -0.28901475926E+02  0.11430982187E+03  0.12700000000E+01 0. -1.
         -4    1    3    3    0  502 -0.58469248346E+02 -0.51957921441E+02 -0.52147099565E+02  0.94017080872E+02  0.12700000000E+01 0. -1.
          1    1    1    2  503    0  0.51466798049E+01  0.19560741964E+02 -0.43371330505E+02  0.47855859087E+02  0.00000000000E+00 0. -1.
         -1    1    1    2    0  501  0.13942759291E+03 -0.36998439566E+02 -0.79752372891E+02  0.16483136588E+03  0.00000000000E+00 0.  1.
<mgrwt>
<rscale>  0 0.54068028E+02</rscale>
<asrwt>0</asrwt>
<pdfrwt beam="2">  1        1 0.48091262E-01 0.20226491E+02</pdfrwt>
<pdfrwt beam="1">  1       -1 0.16680142E-01 0.14453084E+03</pdfrwt>
<totfact> 0.21932484E+03</totfact>
</mgrwt>
</event>
<event>
 7    1  0.4251803E-004  0.4996321E+02  0.7546771E-02  0.1448068E+00
          2   -1    0    0  503    0  0.00000000000E+00  0.00000000000E+00  0.14076615162E+04  0.14076615162E+04  0.00000000000E+00 0. -1.
         -2   -1    0    0    0  501 -0.00000000000E+00 -0.00000000000E+00 -0.40370993140E+02  0.40370993140E+02  0.00000000000E+00 0.  1.
         25    2    1    2    0    0  0.16230830956E+02 -0.32921802114E+01  0.76723536622E+03  0.77752653594E+03  0.12499251409E+03 0.  0.
          4    1    3    3  502    0  0.24842832597E+02  0.10312020034E+02  0.75885164854E+03  0.75932927079E+03  0.12700000000E+01 0.  1.
         -4    1    3    3    0  502 -0.86120016408E+01 -0.13604200245E+02  0.83837176806E+01  0.18197265144E+02  0.12700000000E+01 0.  1.
          2    1    1    2  503    0 -0.38159725735E+02  0.47152984498E+02  0.61597097177E+03  0.61895056885E+03  0.00000000000E+00 0. -1.
         -2    1    1    2    0  501  0.21928894780E+02 -0.43860804287E+02 -0.15915814893E+02  0.51555404592E+02  0.00000000000E+00 0.  1.
<mgrwt>
<rscale>  0 0.49498036E+02</rscale>
<asrwt>0</asrwt>
<pdfrwt beam="1">  1        2 0.21656327E+00 0.49963208E+02</pdfrwt>
<pdfrwt beam="2">  1       -2 0.62109231E-02 0.49037196E+02</pdfrwt>
<totfact> 0.21128183E+03</totfact>
</mgrwt>
</event>
<event>
 7    1  0.4251803E-004  0.8302637E+02  0.7546771E-02  0.1502386E+00
         -1   -1    0    0    0  501 -0.00000000000E+00  0.00000000000E+00  0.32904030358E+02  0.32904030358E+02  0.00000000000E+00 0.  1.
          2   -1    0    0  503    0  0.00000000000E+00 -0.00000000000E+00 -0.56516320384E+03  0.56516320384E+03  0.00000000000E+00 0. -1.
         25    2    1    2    0    0  0.49027738341E+02 -0.51981709614E+02 -0.41753281103E+03  0.44164118206E+03  0.12492985288E+03 0.  0.
          4    1    3    3  502    0  0.58130884947E+02 -0.83287359645E+02 -0.23200767880E+03  0.25326894792E+03  0.12700000000E+01 0.  1.
         -4    1    3    3    0  502 -0.91031466057E+01  0.31305650031E+02 -0.18552513223E+03  0.18837223413E+03  0.12700000000E+01 0.  1.
          2    1    1    2  503    0  0.20049432149E+02  0.33422640103E+00 -0.20167953457E+02  0.28440073548E+02  0.00000000000E+00 0. -1.
         -1    1    1    2    0  501 -0.69077170490E+02  0.51647483213E+02 -0.94558409001E+02  0.12798597860E+03  0.00000000000E+00 0.  1.
<mgrwt>
<rscale>  0 0.40802731E+02</rscale>
<asrwt>0</asrwt>
<pdfrwt beam="2">  1        2 0.86948185E-01 0.20052218E+02</pdfrwt>
<pdfrwt beam="1">  1       -1 0.50621585E-02 0.83026372E+02</pdfrwt>
<totfact> 0.10036953E+04</totfact>
</mgrwt>
</event>
<event>
 7    1  0.4251803E-004  0.7280056E+02  0.7546771E-02  0.1362158E+00
          1   -1    0    0  502    0  0.00000000000E+00  0.00000000000E+00  0.44748458689E+03  0.44748458689E+03  0.00000000000E+00 0. -1.
          1   -1    0    0  503    0 -0.00000000000E+00 -0.00000000000E+00 -0.92912071632E+02  0.92912071632E+02  0.00000000000E+00 0. -1.
         25    2    1    2    0    0  0.43123575144E+02  0.31986755892E+02  0.25014084887E+03  0.28474190436E+03  0.12499885015E+03 0.  0.
          4    1    3    3  501    0  0.71685668732E+02  0.59876637991E+01  0.69566988151E+02  0.10007929836E+03  0.12700000000E+01 0.  1.
         -4    1    3    3    0  501 -0.28562093588E+02  0.25999092093E+02  0.18057386072E+03  0.18466260600E+03  0.12700000000E+01 0.  1.
          1    1    1    2  502    0  0.27758367069E+02 -0.60045602870E+02  0.15201848941E+03  0.16578788402E+03  0.00000000000E+00 0. -1.
          1    1    1    2  503    0 -0.70881942213E+02  0.28058846978E+02 -0.47586823014E+02  0.89866870148E+02  0.00000000000E+00 0. -1.
<mgrwt>
<rscale>  0 0.69396366E+02</rscale>
<asrwt>0</asrwt>
<pdfrwt beam="1">  1        1 0.68843781E-01 0.66151352E+02</pdfrwt>
<pdfrwt beam="2">  1        1 0.14294165E-01 0.72800562E+02</pdfrwt>
<totfact> 0.23917484E+03</totfact>
</mgrwt>
</event>
<event>
 7    1  0.4251803E-004  0.6881812E+02  0.7546771E-02  0.1460811E+00
         -2   -1    0    0    0  501 -0.00000000000E+00  0.00000000000E+00  0.92994709494E+03  0.92994709494E+03  0.00000000000E+00 0.  1.
          1   -1    0    0  503    0  0.00000000000E+00 -0.00000000000E+00 -0.23005928664E+02  0.23005928664E+02  0.00000000000E+00 0. -1.
         25    2    1    2    0    0  0.44947812332E+02 -0.57186089377E+02  0.26751396394E+03  0.30410387907E+03  0.12499957483E+03 0.  0.
          4    1    3    3  502    0  0.47856252421E+02  0.79517647463E+01  0.28339531743E+02  0.56197806165E+02  0.12700000000E+01 0.  1.
         -4    1    3    3    0  502 -0.29084400891E+01 -0.65137854123E+02  0.23917443220E+03  0.24790607290E+03  0.12700000000E+01 0.  1.
          1    1    1    2  503    0 -0.30689536536E+02 -0.10483300303E+02  0.10306093809E+03  0.10804306640E+03  0.00000000000E+00 0. -1.
         -2    1    1    2    0  501 -0.14258275795E+02  0.67669389679E+02  0.53636626425E+03  0.54080607814E+03  0.00000000000E+00 0.  1.
<mgrwt>
<rscale>  0 0.47242105E+02</rscale>
<asrwt>0</asrwt>
<pdfrwt beam="2">  1        1 0.35393744E-02 0.32430653E+02</pdfrwt>
<pdfrwt beam="1">  1       -2 0.14306875E+00 0.68818117E+02</pdfrwt>
<totfact> 0.71766585E+02</totfact>
</mgrwt>
</event>
<event>
 7    1  0.4251803E-004  0.1526041E+03  0.7546771E-02  0.1389995E+00
          3   -1    0    0  503    0 -0.00000000000E+00  0.00000000000E+00  0.45527441226E+03  0.45527441226E+03  0.00000000000E+00 0. -1.
          1   -1    0    0  502    0  0.00000000000E+00 -0.00000000000E+00 -0.13380728717E+03  0.13380728717E+03  0.00000000000E+00 0. -1.
         25    2    1    2    0    0 -0.80620879311E+02  0.13545521616E+03  0.14120186246E+03  0.24579725186E+03  0.12502192324E+03 0.  0.
          4    1    3    3  501    0 -0.93000914173E+02  0.80177791988E+02  0.38829432858E+02  0.12879047372E+03  0.12700000000E+01 0.  1.
         -4    1    3    3    0  501  0.12380034862E+02  0.55277424176E+02  0.10237242961E+03  0.11700677814E+03  0.12700000000E+01 0.  1.
          1    1    1    2  502    0  0.96805355830E+02 -0.11625078892E+03 -0.97719326532E+01  0.15159489935E+03  0.00000000000E+00 0. -1.
          3    1    1    2  503    0 -0.16184476519E+02 -0.19204427247E+02  0.19003719529E+03  0.19168954822E+03  0.00000000000E+00 0. -1.
<mgrwt>
<rscale>  0 0.61908017E+02</rscale>
<asrwt>0</asrwt>
<pdfrwt beam="2">  1        1 0.20585737E-01 0.15260406E+03</pdfrwt>
<pdfrwt beam="1">  1        3 0.70042216E-01 0.25114683E+02</pdfrwt>
<totfact> 0.23494062E+02</totfact>
</mgrwt>
</event>
<event>
 7    1  0.4251803E-004  0.1622007E+03  0.7546771E-02  0.1302939E+00
          2   -1    0    0  502    0  0.00000000000E+00  0.00000000000E+00  0.24665256550E+04  0.24665256550E+04  0.00000000000E+00 0. -1.
          1   -1    0    0  503    0 -0.00000000000E+00 -0.00000000000E+00 -0.13268137414E+04  0.13268137414E+04  0.00000000000E+00 0. -1.
         25    2    1    2    0    0 -0.18035765733E+03 -0.70978583083E+02 -0.80252330204E+02  0.24420295607E+03  0.12501121325E+03 0.  0.
          4    1    3    3  501    0 -0.56799110811E+02  0.16743045137E+02  0.19989579235E+02  0.62511316794E+02  0.12700000000E+01 0.  1.
         -4    1    3    3    0  501 -0.12355854652E+03 -0.87721628221E+02 -0.10024190944E+03  0.18169163928E+03  0.12700000000E+01 0.  1.
          2    1    1    2  502    0  0.22189533447E+02  0.44692908532E+02  0.23787687398E+04  0.23792920268E+04  0.00000000000E+00 0. -1.
          1    1    1    2  503    0  0.15816812388E+03  0.26285674551E+02 -0.11588044959E+04  0.11698444135E+04  0.00000000000E+00 0. -1.
<mgrwt>
<rscale>  0 0.89964026E+02</rscale>
<asrwt>0</asrwt>
<pdfrwt beam="1">  1        2 0.37946548E+00 0.49898211E+02</pdfrwt>
<pdfrwt beam="2">  1        1 0.20412519E+00 0.16220072E+03</pdfrwt>
<totfact> 0.70382923E+00</totfact>
</mgrwt>
</event>
<event>
 7    1  0.4251803E-004  0.4044197E+02  0.7546771E-02  0.1524293E+00
         -1   -1    0    0    0  501 -0.00000000000E+00  0.00000000000E+00  0.67268670029E+02  0.67268670029E+02  0.00000000000E+00 0.  1.
          2   -1    0    0  503    0  0.00000000000E+00 -0.00000000000E+00 -0.16706312078E+03  0.16706312078E+03  0.00000000000E+00 0. -1.
         25    2    1    2    0    0 -0.10911169918E+02 -0.19974255723E+02 -0.66816416925E+02  0.14355979007E+03  0.12500782069E+03 0.  0.
          4    1    3    3  502    0  0.45686104774E+02  0.16503643609E+02  0.14103204585E+00  0.48592419284E+02  0.12700000000E+01 0.  1.
         -4    1    3    3    0  502 -0.56597274692E+02 -0.36477899332E+02 -0.66957448971E+02  0.94967370791E+02  0.12700000000E+01 0.  1.
          2    1    1    2  503    0 -0.32694505280E+02  0.23803826845E+02 -0.11696748436E+02  0.42099486600E+02  0.00000000000E+00 0. -1.
         -1    1    1    2    0  501  0.43605675198E+02 -0.38295711217E+01 -0.21281285393E+02  0.48672514137E+02  0.00000000000E+00 0.  1.
<mgrwt>
<rscale>  0 0.37895744E+02</rscale>
<asrwt>0</asrwt>
<pdfrwt beam="2">  1        2 0.25702018E-01 0.40441969E+02</pdfrwt>
<pdfrwt beam="1">  1       -1 0.10349026E-01 0.35509830E+02</pdfrwt>
<totfact> 0.11259396E+04</totfact>
</mgrwt>
</event>
<event>
 7    1  0.4251803E-004  0.1795379E+03  0.7546771E-02  0.1211785E+00
          3   -1    0    0  503    0 -0.00000000000E+00  0.00000000000E+00  0.19962989705E+03  0.19962989705E+03  0.00000000000E+00 0. -1.
          2   -1    0    0  502    0  0.00000000000E+00 -0.00000000000E+00 -0.10414389313E+04  0.10414389313E+04  0.00000000000E+00 0. -1.
         25    2    1    2    0    0 -0.10386618673E+03 -0.59010131331E+01 -0.17977290740E+03  0.24240869597E+03  0.12498268257E+03 0.  0.
          4    1    3    3  501    0 -0.15937608843E+02  0.47666278025E+02 -0.10080055663E+03  0.11264300490E+03  0.12700000000E+01 0. -1.
         -4    1    3    3    0  501 -0.87928577886E+02 -0.53567291159E+02 -0.78972350768E+02  0.12976569106E+03  0.12700000000E+01 0. -1.
          2    1    1    2  502    0  0.21074629208E+03  0.35773636091E+02 -0.79628667485E+03  0.82447936373E+03  0.00000000000E+00 0. -1.
          3    1    1    2  503    0 -0.10688010535E+03 -0.29872622958E+02  0.13425054802E+03  0.17418076864E+03  0.00000000000E+00 0. -1.
<mgrwt>
<rscale>  0 0.14115399E+03</rscale>
<asrwt>0</asrwt>
<pdfrwt beam="2">  1        2 0.16022138E+00 0.17953794E+03</pdfrwt>
<pdfrwt beam="1">  1        3 0.30712291E-01 0.11097626E+03</pdfrwt>
<totfact> 0.15501631E+02</totfact>
</mgrwt>
</event>
<event>
 7    1  0.4251803E-004  0.1548206E+03  0.7546771E-02  0.1296733E+00
          2   -1    0    0  503    0  0.00000000000E+00  0.00000000000E+00  0.22696179256E+03  0.22696179256E+03  0.00000000000E+00 0.  1.
          2   -1    0    0  502    0 -0.00000000000E+00 -0.00000000000E+00 -0.41177853853E+03  0.41177853853E+03  0.00000000000E+00 0. -1.
         25    2    1    2    0    0 -0.54317692650E+02 -0.19600131632E+03  0.77784767068E+02  0.25108131845E+03  0.12499772299E+03 0.  0.
          4    1    3    3  501    0  0.37918311795E+02 -0.35343566261E+02  0.29416287582E+02  0.59614569700E+02  0.12700000000E+01 0. -1.
         -4    1    3    3    0  501 -0.92236004445E+02 -0.16065775006E+03  0.48368479486E+02  0.19146674875E+03  0.12700000000E+01 0. -1.
          2    1    1    2  502    0  0.29332594600E+02  0.14660534684E+03 -0.28971590282E+03  0.32601968219E+03  0.00000000000E+00 0. -1.
          2    1    1    2  503    0  0.24985098050E+02  0.49395969478E+02  0.27114389779E+02  0.61639330450E+02  0.00000000000E+00 0.  1.
<mgrwt>
<rscale>  0 0.92575115E+02</rscale>
<asrwt>0</asrwt>
<pdfrwt beam="1">  1        2 0.34917199E-01 0.55355369E+02</pdfrwt>
<pdfrwt beam="2">  1        2 0.63350544E-01 0.15482061E+03</pdfrwt>
<totfact> 0.17325970E+03</totfact>
</mgrwt>
</event>
<event>
 7    1  0.4251803E-004  0.1032252E+03  0.7546771E-02  0.1332082E+00
          1   -1    0    0  503    0  0.00000000000E+00  0.00000000000E+00  0.73089607256E+03  0.73089607256E+03  0.00000000000E+00 0. -1.
         -3   -1    0    0    0  501 -0.00000000000E+00 -0.00000000000E+00 -0.34742675831E+03  0.34742675831E+03  0.00000000000E+00 0.  1.
         25    2    1    2    0    0  0.11584747044E+03 -0.27067075100E+02  0.58599829804E+03  0.61088692872E+03  0.12504227852E+03 0.  0.
          4    1    3    3  502    0  0.13749354737E+02 -0.14795584948E+02  0.38101683693E+03  0.38155392412E+03  0.12700000000E+01 0.  1.
         -4    1    3    3    0  502  0.10209811570E+03 -0.12271490152E+02  0.20498146111E+03  0.22933300461E+03  0.12700000000E+01 0.  1.
          1    1    1    2  503    0 -0.66458987585E+02  0.61786112041E+02  0.11371369488E+03  0.14548238751E+03  0.00000000000E+00 0. -1.
         -3    1    1    2    0  501 -0.49388482855E+02 -0.34719036941E+02 -0.31624267868E+03  0.32195351463E+03  0.00000000000E+00 0.  1.
<mgrwt>
<rscale>  0 0.78941684E+02</rscale>
<asrwt>0</asrwt>
<pdfrwt beam="1">  1        1 0.11244555E+00 0.10322522E+03</pdfrwt>
<pdfrwt beam="2">  1       -3 0.53450270E-01 0.60370802E+02</pdfrwt>
<totfact> 0.49482944E+01</totfact>
</mgrwt>
</event>
<event>
 7    1  0.4251803E-004  0.6286738E+02  0.7546771E-02  0.1521323E+00
          1   -1    0    0  503    0 -0.00000000000E+00  0.00000000000E+00  0.73537490250E+02  0.73537490250E+02  0.00000000000E+00 0. -1.
          2   -1    0    0  502    0  0.00000000000E+00 -0.00000000000E+00 -0.28551736472E+03  0.28551736472E+03  0.00000000000E+00 0. -1.
         25    2    1    2    0    0  0.61123877032E+02 -0.30410240037E+02 -0.18922804893E+03  0.23683562527E+03  0.12499179114E+03 0.  0.
          4    1    3    3  501    0  0.71067722771E+02 -0.67017461281E+02 -0.99649079606E+02  0.13954753062E+03  0.12700000000E+01 0.  1.
         -4    1    3    3    0  501 -0.99438457390E+01  0.36607221244E+02 -0.89578969324E+02  0.97288094649E+02  0.12700000000E+01 0.  1.
          2    1    1    2  502    0 -0.60776804669E+02  0.71133135341E+01 -0.55106887690E+02  0.82347970747E+02  0.00000000000E+00 0. -1.
          1    1    1    2  503    0 -0.34707236313E+00  0.23296926503E+02  0.32355062150E+02  0.39871258952E+02  0.00000000000E+00 0. -1.
<mgrwt>
<rscale>  0 0.38272433E+02</rscale>
<asrwt>0</asrwt>
<pdfrwt beam="2">  1        2 0.43925748E-01 0.62867376E+02</pdfrwt>
<pdfrwt beam="1">  1        1 0.11313460E-01 0.23299512E+02</pdfrwt>
<totfact> 0.71440280E+03</totfact>
</mgrwt>
</event>
<event>
 7    1  0.4251803E-004  0.1074350E+03  0.7546771E-02  0.1288508E+00
          1   -1    0    0  503    0  0.00000000000E+00  0.00000000000E+00  0.51637694976E+03  0.51637694976E+03  0.00000000000E+00 0.  1.
         -1   -1    0    0    0  501 -0.00000000000E+00 -0.00000000000E+00 -0.86311722143E+02  0.86311722143E+02  0.00000000000E+00 0. -1.
         25    2    1    2    0    0  0.54264242154E+02 -0.12489467922E+03  0.18779908668E+03  0.26350669883E+03  0.12499597791E+03 0.  0.
          4    1    3    3  502    0  0.53081457667E+02 -0.13261353911E+03  0.20190819735E+03  0.24733080067E+03  0.12700000000E+01 0. -1.
         -4    1    3    3    0  502  0.11827844868E+01  0.77188598890E+01 -0.14109110672E+02  0.16175898154E+02  0.12700000000E+01 0. -1.
          1    1    1    2  503    0  0.23447452797E+02  0.82877375235E+02  0.53109042155E+01  0.86293963126E+02  0.00000000000E+00 0. -1.
         -1    1    1    2    0  501 -0.77711694951E+02  0.42017303990E+02  0.23695523673E+03  0.25288800995E+03  0.00000000000E+00 0.  1.
<mgrwt>
<rscale>  0 0.96194696E+02</rscale>
<asrwt>0</asrwt>
<pdfrwt beam="1">  1        1 0.79442606E-01 0.86130380E+02</pdfrwt>
<pdfrwt beam="2">  1       -1 0.13278727E-01 0.10743503E+03</pdfrwt>
<totfact> 0.16643341E+03</totfact>
</mgrwt>
</event>
<event>
 7    1  0.4251803E-004  0.8782325E+02  0.7546771E-02  0.1407639E+00
          3   -1    0    0  503    0  0.00000000000E+00  0.00000000000E+00  0.82338753513E+02  0.82338753513E+02  0.00000000000E+00 0. -1.
         -3   -1    0    0    0  501 -0.00000000000E+00 -0.00000000000E+00 -0.31241232923E+03  0.31241232923E+03  0.00000000000E+00 0.  1.
         25    2    1    2    0    0  0.11669684010E+03 -0.28462535537E+01 -0.11559654399E+03  0.20643686459E+03  0.12500945737E+03 0.  0.
          4    1    3    3  502    0  0.64102053866E+02  0.13231957429E+02  0.12841460673E+02  0.66713372119E+02  0.12700000000E+01 0.  1.
         -4    1    3    3    0  502  0.52594786236E+02 -0.16078210983E+02 -0.12843800466E+03  0.13972349247E+03  0.12700000000E+01 0.  1.
          3    1    1    2  503    0 -0.36570778202E+02  0.10102437795E+02  0.10782130168E+02  0.39442811749E+02  0.00000000000E+00 0. -1.
         -3    1    1    2    0  501 -0.80126061900E+02 -0.72561842413E+01 -0.12525916189E+03  0.14887140640E+03  0.00000000000E+00 0.  1.
<mgrwt>
<rscale>  0 0.57723978E+02</rscale>
<asrwt>0</asrwt>
<pdfrwt beam="1">  1        3 0.12667500E-01 0.37940494E+02</pdfrwt>
<pdfrwt beam="2">  1       -3 0.48063436E-01 0.87823255E+02</pdfrwt>
<totfact> 0.41533432E+02</totfact>
</mgrwt>
</event>
<event>
 7    1  0.4251803E-004  0.9973624E+02  0.7546771E-02  0.1450842E+00
          1   -1    0    0  503    0  0.00000000000E+00  0.00000000000E+00  0.25675110725E+03  0.25675110725E+03  0.00000000000E+00 0. -1.
         -1   -1    0    0    0  501 -0.00000000000E+00 -0.00000000000E+00 -0.60066384673E+03  0.60066384673E+03  0.00000000000E+00 0.  1.
         25    2    1    2    0    0 -0.66058891306E+02  0.40721024080E+02  0.30235245202E+02  0.15020431547E+03  0.12500074964E+03 0.  0.
          4    1    3    3  502    0  0.35151853665E+02  0.44307269186E+01 -0.75187600545E+01  0.36241258393E+02  0.12700000000E+01 0. -1.
         -4    1    3    3    0  502 -0.10121074497E+03  0.36290297161E+02  0.37754005256E+02  0.11396305708E+03  0.12700000000E+01 0. -1.
          1    1    1    2  503    0 -0.23240768287E+02  0.62557942651E+01  0.16092095239E+03  0.16271085148E+03  0.00000000000E+00 0. -1.
         -1    1    1    2    0  501  0.89299659593E+02 -0.46976818345E+02 -0.53506893707E+03  0.54449978703E+03  0.00000000000E+00 0.  1.
<mgrwt>
<rscale>  0 0.48994398E+02</rscale>
<asrwt>0</asrwt>
<pdfrwt beam="1">  1        1 0.39500170E-01 0.24067993E+02</pdfrwt>
<pdfrwt beam="2">  1       -1 0.92409823E-01 0.99736236E+02</pdfrwt>
<totfact> 0.13130391E+02</totfact>
</mgrwt>
</event>
<event>
 7    1  0.4251803E-004  0.5420061E+02  0.7546771E-02  0.1454862E+00
          1   -1    0    0  503    0  0.00000000000E+00  0.00000000000E+00  0.25726988878E+03  0.25726988878E+03  0.00000000000E+00 0. -1.
         -1   -1    0    0    0  501 -0.00000000000E+00 -0.00000000000E+00 -0.12069955999E+03  0.12069955999E+03  0.00000000000E+00 0.  1.
         25    2    1    2    0    0 -0.44605415547E+02 -0.66981227381E+01  0.21404239471E+03  0.25193865151E+03  0.12499771776E+03 0.  0.
          4    1    3    3  502    0 -0.14935946001E+02  0.51407929563E+02  0.42374657734E+02  0.68286764625E+02  0.12700000000E+01 0.  1.
         -4    1    3    3    0  502 -0.29669469546E+02 -0.58106052301E+02  0.17166773698E+03  0.18365188688E+03  0.12700000000E+01 0.  1.
          1    1    1    2  503    0  0.22410591525E+01  0.42942632986E+02 -0.40952797724E+02  0.59382015083E+02  0.00000000000E+00 0. -1.
         -1    1    1    2    0  501  0.42364356394E+02 -0.36244510248E+02 -0.36519268194E+02  0.66648782174E+02  0.00000000000E+00 0.  1.
<mgrwt>
<rscale>  0 0.48277160E+02</rscale>
<asrwt>0</asrwt>
<pdfrwt beam="1">  1        1 0.39579983E-01 0.43001071E+02</pdfrwt>
<pdfrwt beam="2">  1       -1 0.18569163E-01 0.54200609E+02</pdfrwt>
<totfact> 0.22502562E+03</totfact>
</mgrwt>
</event>
<event>
 7    1  0.4251803E-004  0.1416544E+03  0.7546771E-02  0.1293205E+00
         -1   -1    0    0    0  501 -0.00000000000E+00  0.00000000000E+00  0.69559420187E+02  0.69559420187E+02  0.00000000000E+00 0.  1.
          3   -1    0    0  503    0  0.00000000000E+00 -0.00000000000E+00 -0.72268090540E+03  0.72268090540E+03  0.00000000000E+00 0. -1.
         25    2    1    2    0    0 -0.17934035308E+03  0.39369696479E+02 -0.36098923948E+03  0.42385284596E+03  0.12500027506E+03 0.  0.
          4    1    3    3  502    0 -0.71326792071E+01 -0.34112009659E+02 -0.54933103146E+02  0.65067373060E+02  0.12700000000E+01 0. -1.
         -4    1    3    3    0  502 -0.17220767387E+03  0.73481706138E+02 -0.30605613633E+03  0.35878547290E+03  0.12700000000E+01 0. -1.
          3    1    1    2  503    0  0.61210371100E+02  0.12710750993E+02 -0.20063960977E+03  0.21015357653E+03  0.00000000000E+00 0. -1.
         -1    1    1    2    0  501  0.11812998198E+03 -0.52080447472E+02 -0.91492635964E+02  0.15823390309E+03  0.00000000000E+00 0.  1.
<mgrwt>
<rscale>  0 0.94104682E+02</rscale>
<asrwt>0</asrwt>
<pdfrwt beam="2">  1        3 0.11118169E+00 0.62516180E+02</pdfrwt>
<pdfrwt beam="1">  1       -1 0.10701448E-01 0.14165439E+03</pdfrwt>
<totfact> 0.16759445E+02</totfact>
</mgrwt>
</event>
<event>
 7    1  0.4251803E-004  0.5373029E+02  0.7546771E-02  0.1457487E+00
          2   -1    0    0  503    0  0.00000000000E+00  0.00000000000E+00  0.43028157440E+03  0.43028157440E+03  0.00000000000E+00 0. -1.
          2   -1    0    0  502    0 -0.00000000000E+00 -0.00000000000E+00 -0.27925925183E+03  0.27925925183E+03  0.00000000000E+00 0. -1.
         25    2    1    2    0    0  0.65958855446E+01 -0.22931899475E+02 -0.12604373004E+03  0.17910886226E+03  0.12499433962E+03 0.  0.
          4    1    3    3  501    0 -0.38399757346E+02 -0.77856501759E+01  0.51916854455E+01  0.39543952896E+02  0.12700000000E+01 0.  1.
         -4    1    3    3    0  501  0.44995642890E+02 -0.15146249299E+02 -0.13123541549E+03  0.13956490936E+03  0.12700000000E+01 0.  1.
          2    1    1    2  502    0 -0.40621680147E+02  0.48487287798E+02 -0.11757121040E+03  0.13350703162E+03  0.00000000000E+00 0. -1.
          2    1    1    2  503    0  0.34025794603E+02 -0.25555388324E+02  0.39463726301E+03  0.39692493236E+03  0.00000000000E+00 0. -1.
<mgrwt>
<rscale>  0 0.47816652E+02</rscale>
<asrwt>0</asrwt>
<pdfrwt beam="1">  1        2 0.66197166E-01 0.42553878E+02</pdfrwt>
<pdfrwt beam="2">  1        2 0.42962962E-01 0.53730289E+02</pdfrwt>
<totfact> 0.13450884E+03</totfact>
</mgrwt>
</event>
<event>
 7    1  0.4251803E-004  0.1245345E+03  0.7546771E-02  0.1341174E+00
          2   -1    0    0  502    0  0.00000000000E+00  0.00000000000E+00  0.13359059565E+04  0.13359059565E+04  0.00000000000E+00 0. -1.
          1   -1    0    0  503    0 -0.00000000000E+00 -0.00000000000E+00 -0.78079547389E+03  0.78079547389E+03  0.00000000000E+00 0. -1.
         25    2    1    2    0    0 -0.49645898991E+02  0.15324408348E+03 -0.55878001322E+02  0.21141366021E+03  0.12499968114E+03 0.  0.
          4    1    3    3  501    0 -0.62042682644E+02  0.13698655868E+02 -0.12659606852E+02  0.64798350195E+02  0.12700000000E+01 0.  1.
         -4    1    3    3    0  501  0.12396783654E+02  0.13954542761E+03 -0.43218394470E+02  0.14661531002E+03  0.12700000000E+01 0.  1.
          2    1    1    2  502    0  0.14781313304E+02 -0.12288226073E+03  0.12542626340E+04  0.12603544312E+04  0.00000000000E+00 0. -1.
          1    1    1    2  503    0  0.34864585687E+02 -0.30361822751E+02 -0.64327415005E+03  0.64493333898E+03  0.00000000000E+00 0. -1.
<mgrwt>
<rscale>  0 0.75877887E+02</rscale>
<asrwt>0</asrwt>
<pdfrwt beam="1">  1        2 0.20552399E+00 0.12453448E+03</pdfrwt>
<pdfrwt beam="2">  1        1 0.12012238E+00 0.46231803E+02</pdfrwt>
<totfact> 0.63347331E+01</totfact>
</mgrwt>
</event>
<event>
 7    1  0.4251803E-004  0.8661917E+02  0.7546771E-02  0.1424789E+00
          2   -1    0    0  502    0  0.00000000000E+00  0.00000000000E+00  0.70055480868E+03  0.70055480868E+03  0.00000000000E+00 0. -1.
          1   -1    0    0  503    0 -0.00000000000E+00 -0.00000000000E+00 -0.10807909599E+04  0.10807909599E+04  0.00000000000E+00 0. -1.
         25    2    1    2    0    0  0.10831832703E+02  0.11850513607E+03  0.21824752708E+03  0.27823854142E+03  0.12499562783E+03 0.  0.
          4    1    3    3  501    0  0.16196417536E+02  0.51205259409E+02  0.20167781675E+03  0.20870998347E+03  0.12700000000E+01 0. -1.
         -4    1    3    3    0  501 -0.53645848327E+01  0.67299876661E+02  0.16569710333E+02  0.69528557942E+02  0.12700000000E+01 0. -1.
          2    1    1    2  502    0 -0.10173937515E+02 -0.32117272907E+02  0.44990525718E+03  0.45116490185E+03  0.00000000000E+00 0. -1.
          1    1    1    2  503    0 -0.65789518825E+00 -0.86387863163E+02 -0.10483889355E+04  0.10519423253E+04  0.00000000000E+00 0. -1.
<mgrwt>
<rscale>  0 0.54020510E+02</rscale>
<asrwt>0</asrwt>
<pdfrwt beam="1">  1        2 0.10777766E+00 0.33690180E+02</pdfrwt>
<pdfrwt beam="2">  1        1 0.16627553E+00 0.86619173E+02</pdfrwt>
<totfact> 0.92248183E+01</totfact>
</mgrwt>
</event>
<event>
 7    1  0.4251803E-004  0.6258037E+02  0.7546771E-02  0.1533583E+00
          1   -1    0    0  503    0  0.00000000000E+00  0.00000000000E+00  0.25130409149E+03  0.25130409149E+03  0.00000000000E+00 0. -1.
          1   -1    0    0  502    0 -0.00000000000E+00 -0.00000000000E+00 -0.11587185241E+04  0.11587185241E+04  0.00000000000E+00 0. -1.
         25    2    1    2    0    0 -0.50681439614E+02  0.22592768688E+02 -0.27092351048E+02  0.13939652406E+03  0.12497341283E+03 0.  0.
          4    1    3    3  501    0  0.24672728874E+02 -0.15881627947E+02  0.26231538391E+02  0.39378625709E+02  0.12700000000E+01 0.  1.
         -4    1    3    3    0  501 -0.75354168488E+02  0.38474396635E+02 -0.53323889439E+02  0.10001789835E+03  0.12700000000E+01 0.  1.
          1    1    1    2  502    0  0.49274727136E+01  0.21011900371E+02 -0.10702449011E+04  0.10704624834E+04  0.00000000000E+00 0. -1.
          1    1    1    2  503    0  0.45753966901E+02 -0.43604669059E+02  0.18992281955E+03  0.20016360817E+03  0.00000000000E+00 0. -1.
<mgrwt>
<rscale>  0 0.36750584E+02</rscale>
<asrwt>0</asrwt>
<pdfrwt beam="1">  1        1 0.38662168E-01 0.62580367E+02</pdfrwt>
<pdfrwt beam="2">  1        1 0.17826439E+00 0.21581936E+02</pdfrwt>
<totfact> 0.19447732E+02</totfact>
</mgrwt>
</event>
<event>
 7    1  0.4251803E-004  0.4753468E+02  0.7546771E-02  0.1468709E+00
          2   -1    0    0  502    0  0.00000000000E+00  0.00000000000E+00  0.21649430716E+04  0.21649430716E+04  0.00000000000E+00 0.  1.
          2   -1    0    0  503    0 -0.00000000000E+00 -0.00000000000E+00 -0.37743646811E+03  0.37743646811E+03  0.00000000000E+00 0.  1.
         25    2    1    2    0    0  0.38288855064E+02 -0.20669964564E+02 -0.30953381291E+03  0.33664466182E+03  0.12500065256E+03 0.  0.
          4    1    3    3  501    0  0.80861081337E+02 -0.27210650156E+02 -0.24131914512E+03  0.25595991221E+03  0.12700000000E+01 0. -1.
         -4    1    3    3    0  501 -0.42572226273E+02  0.65406855915E+01 -0.68214667789E+02  0.80684749608E+02  0.12700000000E+01 0. -1.
          2    1    1    2  502    0  0.12715202234E+02  0.45802507733E+02  0.21361783007E+04  0.21367071111E+04  0.00000000000E+00 0.  1.
          2    1    1    2  503    0 -0.51004057298E+02 -0.25132543168E+02 -0.39137884378E+02  0.69027766736E+02  0.00000000000E+00 0.  1.
<mgrwt>
<rscale>  0 0.45915001E+02</rscale>
<asrwt>0</asrwt>
<pdfrwt beam="1">  1        2 0.33306816E+00 0.47534683E+02</pdfrwt>
<pdfrwt beam="2">  1        2 0.58067150E-01 0.44350507E+02</pdfrwt>
<totfact> 0.99118784E+01</totfact>
</mgrwt>
</event>
<event>
 7    1  0.4251803E-004  0.1202467E+03  0.7546771E-02  0.1266267E+00
          2   -1    0    0  502    0  0.00000000000E+00  0.00000000000E+00  0.25094752715E+02  0.25094752715E+02  0.00000000000E+00 0. -1.
          2   -1    0    0  503    0 -0.00000000000E+00 -0.00000000000E+00 -0.25822359962E+04  0.25822359962E+04  0.00000000000E+00 0. -1.
         25    2    1    2    0    0  0.12454528501E+01 -0.14740700578E+02 -0.73514549030E+03  0.74584380079E+03  0.12500097549E+03 0.  0.
          4    1    3    3  501    0 -0.23624475805E+02 -0.55892417478E+01 -0.23856704816E+02  0.34060398486E+02  0.12700000000E+01 0. -1.
         -4    1    3    3    0  501  0.24869928655E+02 -0.91514588306E+01 -0.71128878548E+03  0.71178340231E+03  0.12700000000E+01 0. -1.
          2    1    1    2  502    0 -0.12130278214E+03  0.79947244631E+01 -0.19323684127E+03  0.22829532934E+03  0.00000000000E+00 0. -1.
          2    1    1    2  503    0  0.12005732929E+03  0.67459761153E+01 -0.16287589120E+04  0.16331916188E+04  0.00000000000E+00 0. -1.
<mgrwt>
<rscale>  0 0.10697973E+03</rscale>
<asrwt>0</asrwt>
<pdfrwt beam="1">  1        2 0.38607309E-02 0.95176523E+02</pdfrwt>
<pdfrwt beam="2">  1        2 0.39726711E+00 0.12024671E+03</pdfrwt>
<totfact> 0.12536642E+03</totfact>
</mgrwt>
</event>
<event>
 7    1  0.4251803E-004  0.5564267E+02  0.7546771E-02  0.1557363E+00
         -3   -1    0    0    0  501 -0.00000000000E+00  0.00000000000E+00  0.32934123658E+02  0.32934123658E+02  0.00000000000E+00 0.  1.
          1   -1    0    0  503    0  0.00000000000E+00 -0.00000000000E+00 -0.59622816711E+03  0.59622816711E+03  0.00000000000E+00 0. -1.
         25    2    1    2    0    0 -0.33567147334E+02  0.26228260215E+02 -0.25988898141E+03  0.29151731052E+03  0.12500153864E+03 0.  0.
          4    1    3    3  502    0 -0.18291836841E+02  0.76347772312E+02 -0.13675315717E+03  0.15769151064E+03  0.12700000000E+01 0. -1.
         -4    1    3    3    0  502 -0.15275310494E+02 -0.50119512097E+02 -0.12313582423E+03  0.13382579988E+03  0.12700000000E+01 0. -1.
          1    1    1    2  503    0  0.53895409352E+02 -0.21751870952E+02 -0.31031655016E+03  0.31571224294E+03  0.00000000000E+00 0. -1.
         -3    1    1    2    0  501 -0.20328262018E+02 -0.44763892628E+01  0.69114881199E+01  0.21932737301E+02  0.00000000000E+00 0.  1.
<mgrwt>
<rscale>  0 0.34032608E+02</rscale>
<asrwt>0</asrwt>
<pdfrwt beam="2">  1        1 0.91727404E-01 0.55642675E+02</pdfrwt>
<pdfrwt beam="1">  1       -3 0.50667886E-02 0.20815290E+02</pdfrwt>
<totfact> 0.30584359E+03</totfact>
</mgrwt>
</event>
<event>
 7    1  0.4251803E-004  0.1281670E+03  0.7546771E-02  0.1357938E+00
          2   -1    0    0  502    0  0.00000000000E+00  0.00000000000E+00  0.23154000106E+03  0.23154000106E+03  0.00000000000E+00 0. -1.
          2   -1    0    0  503    0 -0.00000000000E+00 -0.00000000000E+00 -0.27461564573E+03  0.27461564573E+03  0.00000000000E+00 0. -1.
         25    2    1    2    0    0  0.43028355370E+02  0.10875692439E+03 -0.10953427852E+03  0.20322668726E+03  0.12499528102E+03 0.  0.
          4    1    3    3  501    0  0.99050209526E+01  0.11574528927E+03 -0.12072998517E+03  0.16754827258E+03  0.12700000000E+01 0. -1.
         -4    1    3    3    0  501  0.33123334418E+02 -0.69883648769E+01  0.11195706648E+02  0.35678414678E+02  0.12700000000E+01 0. -1.
          2    1    1    2  502    0 -0.81379601893E+02 -0.10206307574E+03  0.15711548032E+03  0.20426645635E+03  0.00000000000E+00 0. -1.
          2    1    1    2  503    0  0.38351246523E+02 -0.66938486464E+01 -0.90656846473E+02  0.98662503171E+02  0.00000000000E+00 0. -1.
<mgrwt>
<rscale>  0 0.70637629E+02</rscale>
<asrwt>0</asrwt>
<pdfrwt beam="1">  1        2 0.35621539E-01 0.12816701E+03</pdfrwt>
<pdfrwt beam="2">  1        2 0.42248561E-01 0.38931038E+02</pdfrwt>
<totfact> 0.26103451E+03</totfact>
</mgrwt>
</event>
<event>
 7    1  0.4251803E-004  0.9084794E+02  0.7546771E-02  0.1331488E+00
          1   -1    0    0  503    0 -0.00000000000E+00  0.00000000000E+00  0.51673015624E+03  0.51673015624E+03  0.00000000000E+00 0.  1.
          2   -1    0    0  502    0  0.00000000000E+00 -0.00000000000E+00 -0.11922015712E+04  0.11922015712E+04  0.00000000000E+00 0. -1.
         25    2    1    2    0    0 -0.24303162744E+02 -0.11327157248E+03  0.77053764072E+02  0.18703278390E+03  0.12499154710E+03 0.  0.
          4    1    3    3  501    0 -0.59229287545E+02 -0.10658965725E+02  0.40847165047E+02  0.72744936909E+02  0.12700000000E+01 0. -1.
         -4    1    3    3    0  501  0.34926124802E+02 -0.10261260675E+03  0.36206599025E+02  0.11428784699E+03  0.12700000000E+01 0. -1.
          2    1    1    2  502    0 -0.37506038808E+02  0.82704709306E+02 -0.11322895031E+04  0.11359253015E+04  0.00000000000E+00 0. -1.
          1    1    1    2  503    0  0.61809201552E+02  0.30566863169E+02  0.37976432403E+03  0.38597364201E+03  0.00000000000E+00 0.  1.
<mgrwt>
<rscale>  0 0.79147746E+02</rscale>
<asrwt>0</asrwt>
<pdfrwt beam="2">  1        2 0.18341562E+00 0.90847935E+02</pdfrwt>
<pdfrwt beam="1">  1        1 0.79496949E-01 0.68954409E+02</pdfrwt>
<totfact> 0.13242867E+02</totfact>
</mgrwt>
</event>
<event>
 7    1  0.4251803E-004  0.3972983E+02  0.7546771E-02  0.1533853E+00
         -2   -1    0    0    0  501 -0.00000000000E+00  0.00000000000E+00  0.47833771950E+02  0.47833771950E+02  0.00000000000E+00 0.  1.
          1   -1    0    0  503    0  0.00000000000E+00 -0.00000000000E+00 -0.24546770419E+03  0.24546770419E+03  0.00000000000E+00 0. -1.
         25    2    1    2    0    0 -0.20578830615E+02  0.37101290117E+01 -0.98744617662E+02  0.16066705077E+03  0.12500459335E+03 0.  0.
          4    1    3    3  502    0  0.50578151638E+02  0.14708843246E+02 -0.27780022766E+02  0.59563764636E+02  0.12700000000E+01 0.  1.
         -4    1    3    3    0  502 -0.71156982253E+02 -0.10998714234E+02 -0.70964594895E+02  0.10110328613E+03  0.12700000000E+01 0.  1.
          1    1    1    2  503    0 -0.30685942129E+02 -0.14488473524E+02 -0.25411013633E+02  0.42394133123E+02  0.00000000000E+00 0. -1.
         -2    1    1    2    0  501  0.51264772745E+02  0.10778344513E+02 -0.73478300943E+02  0.90240292245E+02  0.00000000000E+00 0.  1.
<mgrwt>
<rscale>  0 0.36717947E+02</rscale>
<asrwt>0</asrwt>
<pdfrwt beam="2">  1        1 0.37764262E-01 0.33934391E+02</pdfrwt>
<pdfrwt beam="1">  1       -2 0.73590419E-02 0.39729831E+02</pdfrwt>
<totfact> 0.89289246E+03</totfact>
</mgrwt>
</event>
<event>
 7    1  0.4251803E-004  0.1638816E+03  0.7546771E-02  0.1262396E+00
          2   -1    0    0  502    0  0.00000000000E+00  0.00000000000E+00  0.20367093373E+03  0.20367093373E+03  0.00000000000E+00 0. -1.
          1   -1    0    0  503    0 -0.00000000000E+00 -0.00000000000E+00 -0.69856938923E+03  0.69856938923E+03  0.00000000000E+00 0. -1.
         25    2    1    2    0    0 -0.17331803332E+03  0.14181795493E+03 -0.31563778468E+03  0.40669429041E+03  0.12498624612E+03 0.  0.
          4    1    3    3  501    0 -0.63713107918E+02  0.88240586167E+01 -0.16751619356E+03  0.17944501146E+03  0.12700000000E+01 0.  1.
         -4    1    3    3    0  501 -0.10960492540E+03  0.13299389631E+03 -0.14812159112E+03  0.22724927895E+03  0.12700000000E+01 0.  1.
          2    1    1    2  502    0  0.13570447888E+03 -0.79810186561E+02  0.11340652310E+03  0.19402683048E+03  0.00000000000E+00 0. -1.
          1    1    1    2  503    0  0.37613554445E+02 -0.62007768368E+02 -0.29266719392E+03  0.30151920206E+03  0.00000000000E+00 0. -1.
<mgrwt>
<rscale>  0 0.10902000E+03</rscale>
<asrwt>0</asrwt>
<pdfrwt beam="1">  1        2 0.31333990E-01 0.16388158E+03</pdfrwt>
<pdfrwt beam="2">  1        1 0.10747221E+00 0.72524084E+02</pdfrwt>
<totfact> 0.67320973E+02</totfact>
</mgrwt>
</event>
<event>
 7    1  0.4251803E-004  0.1214829E+03  0.7546771E-02  0.1259052E+00
          2   -1    0    0  502    0  0.00000000000E+00  0.00000000000E+00  0.22965779169E+04  0.22965779169E+04  0.00000000000E+00 0. -1.
          1   -1    0    0  503    0 -0.00000000000E+00 -0.00000000000E+00 -0.62999715781E+03  0.62999715781E+03  0.00000000000E+00 0. -1.
         25    2    1    2    0    0  0.51967299439E+02  0.19185148262E+03  0.16961801151E+03  0.28965989664E+03  0.12499997720E+03 0.  0.
          4    1    3    3  501    0  0.35798627470E+02  0.18595964666E+03  0.92735808376E+02  0.21086506342E+03  0.12700000000E+01 0.  1.
         -4    1    3    3    0  501  0.16168671969E+02  0.58918359585E+01  0.76882203133E+02  0.78794833224E+02  0.12700000000E+01 0.  1.
          2    1    1    2  502    0  0.23038074194E+02 -0.98440133303E+02  0.20593904048E+04  0.20618705226E+04  0.00000000000E+00 0. -1.
          1    1    1    2  503    0 -0.75005373632E+02 -0.93411349315E+02 -0.56242765717E+03  0.57504465549E+03  0.00000000000E+00 0. -1.
<mgrwt>
<rscale>  0 0.11082386E+03</rscale>
<asrwt>0</asrwt>
<pdfrwt beam="1">  1        2 0.35331968E+00 0.10110001E+03</pdfrwt>
<pdfrwt beam="2">  1        1 0.96922641E-01 0.12148294E+03</pdfrwt>
<totfact> 0.26985607E+01</totfact>
</mgrwt>
</event>
<event>
 7    1  0.4251803E-004  0.1821604E+03  0.7546771E-02  0.1286773E+00
          2   -1    0    0  503    0  0.00000000000E+00  0.00000000000E+00  0.28670466755E+04  0.28670466755E+04  0.00000000000E+00 0. -1.
          2   -1    0    0  502    0 -0.00000000000E+00 -0.00000000000E+00 -0.31962473566E+03  0.31962473566E+03  0.00000000000E+00 0. -1.
         25    2    1    2    0    0  0.21555916172E+03 -0.71505205229E+02  0.71177049839E+03  0.75751175806E+03  0.12501229793E+03 0.  0.
          4    1    3    3  501    0  0.18658555682E+03 -0.68430148151E+02  0.69707773146E+03  0.72485573171E+03  0.12700000000E+01 0.  1.
         -4    1    3    3    0  501  0.28973604897E+02 -0.30750570784E+01  0.14692766933E+02  0.32656026349E+02  0.12700000000E+01 0.  1.
          2    1    1    2  502    0 -0.17655292267E+03  0.37674624740E+02 -0.26895248707E+03  0.32392244775E+03  0.00000000000E+00 0. -1.
          2    1    1    2  503    0 -0.39006239048E+02  0.33830580489E+02  0.21046039285E+04  0.21052372053E+04  0.00000000000E+00 0. -1.
<mgrwt>
<rscale>  0 0.96982161E+02</rscale>
<asrwt>0</asrwt>
<pdfrwt beam="1">  1        2 0.44108409E+00 0.51633273E+02</pdfrwt>
<pdfrwt beam="2">  1        2 0.49173038E-01 0.18216044E+03</pdfrwt>
<totfact> 0.50934088E+01</totfact>
</mgrwt>
</event>
<event>
 7    1  0.4251803E-004  0.8976613E+02  0.7546771E-02  0.1351889E+00
          2   -1    0    0  502    0  0.00000000000E+00  0.00000000000E+00  0.13545028012E+03  0.13545028012E+03  0.00000000000E+00 0.  1.
          2   -1    0    0  503    0 -0.00000000000E+00 -0.00000000000E+00 -0.69515348949E+03  0.69515348949E+03  0.00000000000E+00 0. -1.
         25    2    1    2    0    0 -0.29585132752E+02  0.25999413119E+02 -0.25992663351E+03  0.29109848181E+03  0.12500088697E+03 0.  0.
          4    1    3    3  501    0  0.32639467413E+02  0.36502159689E+02 -0.43011481221E+02  0.65186984221E+02  0.12700000000E+01 0. -1.
         -4    1    3    3    0  501 -0.62224600166E+02 -0.10502746570E+02 -0.21691515229E+03  0.22591149759E+03  0.12700000000E+01 0. -1.
          2    1    1    2  502    0  0.87826048657E+02 -0.31570458435E+02  0.99235288541E+02  0.13622683715E+03  0.00000000000E+00 0.  1.
          2    1    1    2  503    0 -0.58240915905E+02  0.55710453157E+01 -0.39901186440E+03  0.40327845066E+03  0.00000000000E+00 0. -1.
<mgrwt>
<rscale>  0 0.72470170E+02</rscale>
<asrwt>0</asrwt>
<pdfrwt beam="1">  1        2 0.20838505E-01 0.89766133E+02</pdfrwt>
<pdfrwt beam="2">  1        2 0.10694669E+00 0.58506759E+02</pdfrwt>
<totfact> 0.17482199E+03</totfact>
</mgrwt>
</event>
<event>
 7    1  0.4251803E-004  0.3949009E+03  0.7546771E-02  0.1122709E+00
          1   -1    0    0  502    0  0.00000000000E+00  0.00000000000E+00  0.23069658086E+04  0.23069658086E+04  0.00000000000E+00 0. -1.
          1   -1    0    0  503    0 -0.00000000000E+00 -0.00000000000E+00 -0.18324887125E+04  0.18324887125E+04  0.00000000000E+00 0. -1.
         25    2    1    2    0    0 -0.90709330725E+02 -0.26830331652E+03 -0.81527202543E+02  0.32013388554E+03  0.12499667027E+03 0.  0.
          4    1    3    3  501    0 -0.33409613194E+01 -0.72511747303E+02  0.29885426358E+02  0.78510299503E+02  0.12700000000E+01 0.  1.
         -4    1    3    3    0  501 -0.87368369406E+02 -0.19579156922E+03 -0.11141262890E+03  0.24162358603E+03  0.12700000000E+01 0.  1.
          1    1    1    2  502    0 -0.82447061078E+01 -0.14040609878E+03  0.21582409857E+04  0.21628189938E+04  0.00000000000E+00 0. -1.
          1    1    1    2  503    0  0.98954036833E+02  0.40870941530E+03 -0.16022366870E+04  0.16565016417E+04  0.00000000000E+00 0. -1.
<mgrwt>
<rscale>  0 0.23567351E+03</rscale>
<asrwt>0</asrwt>
<pdfrwt beam="1">  1        1 0.35491782E+00 0.14064796E+03</pdfrwt>
<pdfrwt beam="2">  1        1 0.28192134E+00 0.39490091E+03</pdfrwt>
<totfact> 0.11725421E+00</totfact>
</mgrwt>
</event>
<event>
 7    1  0.4251803E-004  0.5534826E+02  0.7546771E-02  0.1470728E+00
          1   -1    0    0  503    0 -0.00000000000E+00  0.00000000000E+00  0.38458480876E+03  0.38458480876E+03  0.00000000000E+00 0.  1.
          2   -1    0    0  502    0  0.00000000000E+00 -0.00000000000E+00 -0.90569791721E+03  0.90569791721E+03  0.00000000000E+00 0. -1.
         25    2    1    2    0    0 -0.18854013069E+02 -0.43984546159E+01 -0.51357197618E+02  0.13652060587E+03  0.12500197545E+03 0.  0.
          4    1    3    3  501    0 -0.35523754982E+02 -0.21210519772E+02  0.30424097610E+02  0.51371800946E+02  0.12700000000E+01 0.  1.
         -4    1    3    3    0  501  0.16669741914E+02  0.16812065156E+02 -0.81781295228E+02  0.85148804920E+02  0.12700000000E+01 0.  1.
          2    1    1    2  502    0 -0.37383862427E+02  0.34453907705E+01 -0.80900820462E+03  0.80987881750E+03  0.00000000000E+00 0. -1.
          1    1    1    2  503    0  0.56237875496E+02  0.95306384544E+00  0.33925229379E+03  0.34388330261E+03  0.00000000000E+00 0.  1.
<mgrwt>
<rscale>  0 0.45583997E+02</rscale>
<asrwt>0</asrwt>
<pdfrwt beam="2">  1        2 0.13933814E+00 0.37542295E+02</pdfrwt>
<pdfrwt beam="1">  1        1 0.59166895E-01 0.55348262E+02</pdfrwt>
<totfact> 0.29203746E+02</totfact>
</mgrwt>
</event>
<event>
 7    1  0.4251803E-004  0.5639499E+02  0.7546771E-02  0.1535826E+00
         -1   -1    0    0    0  501 -0.00000000000E+00  0.00000000000E+00  0.46261459414E+02  0.46261459414E+02  0.00000000000E+00 0.  1.
          2   -1    0    0  503    0  0.00000000000E+00 -0.00000000000E+00 -0.41593836101E+03  0.41593836101E+03  0.00000000000E+00 0. -1.
         25    2    1    2    0    0 -0.50338957684E+02  0.13434644778E+02 -0.80742421119E+02  0.15767900723E+03  0.12501532070E+03 0.  0.
          4    1    3    3  502    0  0.12964612633E+02 -0.18124217565E+02 -0.83944486283E+02  0.86861142753E+02  0.12700000000E+01 0.  1.
         -4    1    3    3    0  502 -0.63303570317E+02  0.31558862343E+02  0.32020651643E+01  0.70817864473E+02  0.12700000000E+01 0.  1.
          2    1    1    2  503    0  0.56301039857E+02  0.93992457654E+01 -0.26435060962E+03  0.27044296574E+03  0.00000000000E+00 0. -1.
         -1    1    1    2    0  501 -0.59620821729E+01 -0.22833890544E+02 -0.24583870855E+02  0.34077847458E+02  0.00000000000E+00 0.  1.
<mgrwt>
<rscale>  0 0.36481357E+02</rscale>
<asrwt>0</asrwt>
<pdfrwt beam="2">  1        2 0.63990516E-01 0.56394987E+02</pdfrwt>
<pdfrwt beam="1">  1       -1 0.71171477E-02 0.23599428E+02</pdfrwt>
<totfact> 0.72791838E+03</totfact>
</mgrwt>
</event>
<event>
 7    1  0.4251803E-004  0.6658718E+02  0.7546771E-02  0.1405689E+00
          2   -1    0    0  503    0  0.00000000000E+00  0.00000000000E+00  0.16818678298E+04  0.16818678298E+04  0.00000000000E+00 0. -1.
         -2   -1    0    0    0  501 -0.00000000000E+00 -0.00000000000E+00 -0.38235582916E+02  0.38235582916E+02  0.00000000000E+00 0.  1.
         25    2    1    2    0    0  0.41759738433E+02  0.34430453160E+02  0.22207370464E+03  0.26051484616E+03  0.12498769106E+03 0.  0.
          4    1    3    3  502    0 -0.27371897546E+02  0.34034560847E+02  0.22182442941E+02  0.49002507916E+02  0.12700000000E+01 0.  1.
         -4    1    3    3    0  502  0.69131635979E+02  0.39589231309E+00  0.19989126170E+03  0.21151233824E+03  0.12700000000E+01 0.  1.
          2    1    1    2  503    0 -0.67170634580E+02  0.95706663906E+01  0.14042821297E+04  0.14059202650E+04  0.00000000000E+00 0. -1.
         -2    1    1    2    0  501  0.25410896146E+02 -0.44001119550E+02  0.17276412614E+02  0.53668301608E+02  0.00000000000E+00 0.  1.
<mgrwt>
<rscale>  0 0.58166976E+02</rscale>
<asrwt>0</asrwt>
<pdfrwt beam="1">  1        2 0.25874884E+00 0.66587185E+02</pdfrwt>
<pdfrwt beam="2">  1       -2 0.58823987E-02 0.50811536E+02</pdfrwt>
<totfact> 0.16366181E+03</totfact>
</mgrwt>
</event>
<event>
 7    1  0.4251803E-004  0.1155561E+03  0.7546771E-02  0.1312776E+00
          1   -1    0    0  503    0 -0.00000000000E+00  0.00000000000E+00  0.51297824984E+03  0.51297824984E+03  0.00000000000E+00 0. -1.
          2   -1    0    0  502    0  0.00000000000E+00 -0.00000000000E+00 -0.10589258599E+03  0.10589258599E+03  0.00000000000E+00 0. -1.
         25    2    1    2    0    0 -0.85346515463E+02 -0.79672462892E+02  0.16594573365E+02  0.17184754476E+03  0.12499787890E+03 0.  0.
          4    1    3    3  501    0 -0.29704294177E+02  0.32756117111E+02  0.13894584487E+02  0.46367884131E+02  0.12700000000E+01 0.  1.
         -4    1    3    3    0  501 -0.55642221286E+02 -0.11242858000E+03  0.26999888779E+01  0.12547966063E+03  0.12700000000E+01 0.  1.
          2    1    1    2  502    0 -0.29709651648E+02  0.56730899202E+02  0.35657808662E+02  0.73297596440E+02  0.00000000000E+00 0. -1.
          1    1    1    2  503    0  0.11505616711E+03  0.22941563690E+02  0.35483328183E+03  0.37372569463E+03  0.00000000000E+00 0. -1.
<mgrwt>
<rscale>  0 0.86024168E+02</rscale>
<asrwt>0</asrwt>
<pdfrwt beam="2">  1        2 0.16291167E-01 0.64039506E+02</pdfrwt>
<pdfrwt beam="1">  1        1 0.78919730E-01 0.11555613E+03</pdfrwt>
<totfact> 0.20076543E+03</totfact>
</mgrwt>
</event>
<event>
 7    1  0.4251803E-004  0.4206721E+02  0.7546771E-02  0.1548414E+00
          2   -1    0    0  503    0  0.00000000000E+00  0.00000000000E+00  0.44187488307E+03  0.44187488307E+03  0.00000000000E+00 0. -1.
         -1   -1    0    0    0  501 -0.00000000000E+00 -0.00000000000E+00 -0.26012529983E+02  0.26012529983E+02  0.00000000000E+00 0.  1.
         25    2    1    2    0    0  0.14327589281E+02  0.19155062458E+02  0.23990018793E+03  0.27156853569E+03  0.12500069270E+03 0.  0.
          4    1    3    3  502    0 -0.14210556231E+02 -0.49212546025E+02  0.75535155697E+02  0.91274241935E+02  0.12700000000E+01 0.  1.
         -4    1    3    3    0  502  0.28538145512E+02  0.68367608482E+02  0.16436503223E+03  0.18029429375E+03  0.12700000000E+01 0.  1.
          2    1    1    2  503    0 -0.19669872355E+02 -0.47816463756E+02  0.74023046969E+02  0.90292466835E+02  0.00000000000E+00 0. -1.
         -1    1    1    2    0  501  0.53422830742E+01  0.28661401298E+02  0.10193911819E+03  0.10602641053E+03  0.00000000000E+00 0.  1.
<mgrwt>
<rscale>  0 0.35021005E+02</rscale>
<asrwt>0</asrwt>
<pdfrwt beam="1">  1        2 0.67980746E-01 0.42067207E+02</pdfrwt>
<pdfrwt beam="2">  1       -1 0.40019280E-02 0.29155032E+02</pdfrwt>
<totfact> 0.15846012E+04</totfact>
</mgrwt>
</event>
<event>
 7    1  0.9347859E-004  0.3829367E+03  0.7546771E-02  0.1049854E+00
          1   -1    0    0  503    0  0.00000000000E+00  0.00000000000E+00  0.10069840121E+04  0.10069840121E+04  0.00000000000E+00 0. -1.
         -2   -1    0    0    0  501 -0.00000000000E+00 -0.00000000000E+00 -0.36405862212E+02  0.36405862212E+02  0.00000000000E+00 0.  1.
         25    2    1    2    0    0  0.13132746859E+03 -0.76920337802E+02  0.65192122898E+03  0.68102138318E+03  0.12500077269E+03 0.  0.
          4    1    3    3  502    0  0.54867270316E+02  0.31082222956E+02  0.17241385492E+03  0.18358832262E+03  0.12700000000E+01 0. -1.
         -4    1    3    3    0  502  0.76460198272E+02 -0.10800256076E+03  0.47950737407E+03  0.49743306056E+03  0.12700000000E+01 0. -1.
          1    1    1    2  503    0 -0.38008803533E+02  0.69112353172E+02  0.14821027768E+03  0.16789125325E+03  0.00000000000E+00 0. -1.
         -2    1    1    2    0  501 -0.93318665054E+02  0.78079846291E+01  0.17044664326E+03  0.19447723792E+03  0.00000000000E+00 0.  1.
<mgrwt>
<rscale>  0 0.38293666E+03</rscale>
<asrwt>0</asrwt>
<pdfrwt beam="1">  1        1 0.15492060E+00 0.38293666E+03</pdfrwt>
<pdfrwt beam="2">  1       -2 0.56009027E-02 0.38293666E+03</pdfrwt>
<totfact> 0.22901667E+03</totfact>
</mgrwt>
</event>
<event>
 7    1  0.4251803E-004  0.5443500E+02  0.7546771E-02  0.1534831E+00
         -2   -1    0    0    0  501 -0.00000000000E+00  0.00000000000E+00  0.30641855525E+02  0.30641855525E+02  0.00000000000E+00 0. -1.
          2   -1    0    0  503    0  0.00000000000E+00 -0.00000000000E+00 -0.77058679283E+03  0.77058679283E+03  0.00000000000E+00 0. -1.
         25    2    1    2    0    0 -0.29474734486E+02 -0.25983432328E+02 -0.45883924258E+03  0.47718251203E+03  0.12500320208E+03 0.  0.
          4    1    3    3  502    0  0.32357997816E+02  0.13556279885E+02 -0.45986428349E+02  0.57854794436E+02  0.12700000000E+01 0. -1.
         -4    1    3    3    0  502 -0.61832732301E+02 -0.39539712212E+02 -0.41285281423E+03  0.41932771759E+03  0.12700000000E+01 0. -1.
          2    1    1    2  503    0  0.32278730816E+02  0.50432191872E+02 -0.29131382126E+03  0.29740387505E+03  0.00000000000E+00 0. -1.
         -2    1    1    2    0  501 -0.28039963298E+01 -0.24448759545E+02  0.10208126527E+02  0.26642261276E+02  0.00000000000E+00 0. -1.
<mgrwt>
<rscale>  0 0.36600444E+02</rscale>
<asrwt>0</asrwt>
<pdfrwt beam="2">  1        2 0.11855181E+00 0.54435004E+02</pdfrwt>
<pdfrwt beam="1">  1       -2 0.47141319E-02 0.24609028E+02</pdfrwt>
<totfact> 0.65330745E+03</totfact>
</mgrwt>
</event>
<event>
 7    1  0.4251803E-004  0.1037451E+03  0.7546771E-02  0.1441768E+00
          2   -1    0    0  503    0  0.00000000000E+00  0.00000000000E+00  0.84520061153E+03  0.84520061153E+03  0.00000000000E+00 0. -1.
         -1   -1    0    0    0  501 -0.00000000000E+00 -0.00000000000E+00 -0.28629263558E+02  0.28629263558E+02  0.00000000000E+00 0.  1.
         25    2    1    2    0    0 -0.10798049916E+03 -0.41617658560E+02  0.40821122566E+03  0.44231424619E+03  0.12495467148E+03 0.  0.
          4    1    3    3  502    0 -0.81776426189E+02 -0.18631081639E+02  0.93244012493E+02  0.12542152865E+03  0.12700000000E+01 0. -1.
         -4    1    3    3    0  502 -0.26204072975E+02 -0.22986576922E+02  0.31496721316E+03  0.31689271754E+03  0.12700000000E+01 0. -1.
          2    1    1    2  503    0  0.23445381216E+02 -0.79181601539E+01  0.19701878310E+03  0.19856682516E+03  0.00000000000E+00 0. -1.
         -1    1    1    2    0  501  0.84535117947E+02  0.49535818714E+02  0.21134133921E+03  0.23294880374E+03  0.00000000000E+00 0.  1.
<mgrwt>
<rscale>  0 0.50668686E+02</rscale>
<asrwt>0</asrwt>
<pdfrwt beam="1">  1        2 0.13003084E+00 0.24746377E+02</pdfrwt>
<pdfrwt beam="2">  1       -1 0.44045027E-02 0.10374512E+03</pdfrwt>
<totfact> 0.80835784E+03</totfact>
</mgrwt>
</event>
<event>
 7    1  0.4251803E-004  0.6426288E+02  0.7546771E-02  0.1407746E+00
          1   -1    0    0  503    0  0.00000000000E+00  0.00000000000E+00  0.39117501448E+03  0.39117501448E+03  0.00000000000E+00 0. -1.
         -1   -1    0    0    0  501 -0.00000000000E+00 -0.00000000000E+00 -0.46643283573E+03  0.46643283573E+03  0.00000000000E+00 0.  1.
         25    2    1    2    0    0  0.33033088270E+02  0.10736999985E+03  0.86753046280E+02  0.18913111369E+03  0.12499994135E+03 0.  0.
          4    1    3    3  502    0  0.34729275763E+02  0.13064448545E+03  0.47202196743E+02  0.14319135606E+03  0.12700000000E+01 0. -1.
         -4    1    3    3    0  502 -0.16961874939E+01 -0.23274485597E+02  0.39550849537E+02  0.45939757628E+02  0.12700000000E+01 0. -1.
          1    1    1    2  503    0 -0.13954301287E+02 -0.59204041803E+02  0.24792633228E+03  0.25527888147E+03  0.00000000000E+00 0. -1.
         -1    1    1    2    0  501 -0.19078786983E+02 -0.48165958047E+02 -0.40993719981E+03  0.41319785505E+03  0.00000000000E+00 0.  1.
<mgrwt>
<rscale>  0 0.57699769E+02</rscale>
<asrwt>0</asrwt>
<pdfrwt beam="1">  1        1 0.60180772E-01 0.64262876E+02</pdfrwt>
<pdfrwt beam="2">  1       -1 0.71758897E-01 0.51806946E+02</pdfrwt>
<totfact> 0.13622847E+02</totfact>
</mgrwt>
</event>
<event>
 7    1  0.4251803E-004  0.8764092E+02  0.7546771E-02  0.1474263E+00
          2   -1    0    0  503    0  0.00000000000E+00  0.00000000000E+00  0.19646203893E+03  0.19646203893E+03  0.00000000000E+00 0. -1.
         -1   -1    0    0    0  501 -0.00000000000E+00 -0.00000000000E+00 -0.92103867247E+02  0.92103867247E+02  0.00000000000E+00 0.  1.
         25    2    1    2    0    0 -0.63499976841E+02  0.53843639737E+02  0.37290454491E+02  0.15474602024E+03  0.12499747271E+03 0.  0.
          4    1    3    3  502    0 -0.84408773301E+02  0.67234634504E+02  0.57882678304E+02  0.12246368619E+03  0.12700000000E+01 0. -1.
         -4    1    3    3    0  502  0.20908796460E+02 -0.13390994767E+02 -0.20592223813E+02  0.32282334052E+02  0.12700000000E+01 0. -1.
          2    1    1    2  503    0 -0.19375118841E+02 -0.12612386572E+02  0.11042049653E+02  0.25620194879E+02  0.00000000000E+00 0. -1.
         -1    1    1    2    0  501  0.82875095682E+02 -0.41231253166E+02  0.56025667538E+02  0.10819969106E+03  0.00000000000E+00 0.  1.
<mgrwt>
<rscale>  0 0.45012568E+02</rscale>
<asrwt>0</asrwt>
<pdfrwt beam="1">  1        2 0.30224929E-01 0.23118554E+02</pdfrwt>
<pdfrwt beam="2">  1       -1 0.14169826E-01 0.87640917E+02</pdfrwt>
<totfact> 0.61783159E+03</totfact>
</mgrwt>
</event>
<event>
 7    1  0.4251803E-004  0.9308083E+02  0.7546771E-02  0.1312001E+00
          2   -1    0    0  503    0  0.00000000000E+00  0.00000000000E+00  0.59722892116E+03  0.59722892116E+03  0.00000000000E+00 0. -1.
          2   -1    0    0  502    0 -0.00000000000E+00 -0.00000000000E+00 -0.85966186480E+03  0.85966186480E+03  0.00000000000E+00 0. -1.
         25    2    1    2    0    0  0.17888782780E+02 -0.91561001361E+02  0.25575638916E+03  0.29956876455E+03  0.12500675414E+03 0.  0.
          4    1    3    3  501    0  0.53085396977E+02 -0.38586329937E+01  0.14213139178E+03  0.15177580126E+03  0.12700000000E+01 0.  1.
         -4    1    3    3    0  501 -0.35196614196E+02 -0.87702368367E+02  0.11362499738E+03  0.14779296329E+03  0.12700000000E+01 0.  1.
          2    1    1    2  502    0 -0.79399714148E+02  0.10269341432E+02 -0.82764488589E+03  0.83150816659E+03  0.00000000000E+00 0. -1.
          2    1    1    2  503    0  0.61510931367E+02  0.81291659929E+02  0.30945555308E+03  0.32581385481E+03  0.00000000000E+00 0. -1.
<mgrwt>
<rscale>  0 0.86325837E+02</rscale>
<asrwt>0</asrwt>
<pdfrwt beam="1">  1        2 0.91881372E-01 0.93080828E+02</pdfrwt>
<pdfrwt beam="2">  1        2 0.13225567E+00 0.80061064E+02</pdfrwt>
<totfact> 0.27501089E+02</totfact>
</mgrwt>
</event>
<event>
 7    1  0.4251803E-004  0.6873675E+02  0.7546771E-02  0.1435892E+00
         -1   -1    0    0    0  501 -0.00000000000E+00  0.00000000000E+00  0.16745774998E+03  0.16745774998E+03  0.00000000000E+00 0.  1.
          2   -1    0    0  503    0  0.00000000000E+00 -0.00000000000E+00 -0.12703635954E+04  0.12703635954E+04  0.00000000000E+00 0. -1.
         25    2    1    2    0    0  0.30017926732E+01 -0.38706301627E+02 -0.37281873614E+03  0.39512807077E+03  0.12500077500E+03 0.  0.
          4    1    3    3  502    0 -0.34289824552E+02 -0.69866890261E+02 -0.27634650727E+03  0.28709959840E+03  0.12700000000E+01 0.  1.
         -4    1    3    3    0  502  0.37291617225E+02  0.31160588634E+02 -0.96472228875E+02  0.10802847237E+03  0.12700000000E+01 0.  1.
          2    1    1    2  503    0  0.33188992140E+02 -0.20537312536E+02 -0.87822663708E+03  0.87909346288E+03  0.00000000000E+00 0. -1.
         -1    1    1    2    0  501 -0.36190784813E+02  0.59243614163E+02  0.14813952776E+03  0.16359981177E+03  0.00000000000E+00 0.  1.
<mgrwt>
<rscale>  0 0.51795280E+02</rscale>
<asrwt>0</asrwt>
<pdfrwt beam="2">  1        2 0.19544056E+00 0.39029353E+02</pdfrwt>
<pdfrwt beam="1">  1       -1 0.25762730E-01 0.68736754E+02</pdfrwt>
<totfact> 0.30659226E+02</totfact>
</mgrwt>
</event>
<event>
 7    1  0.4251803E-004  0.4375591E+02  0.7546771E-02  0.1543563E+00
          2   -1    0    0  503    0  0.00000000000E+00  0.00000000000E+00  0.51366303981E+03  0.51366303981E+03  0.00000000000E+00 0. -1.
         -1   -1    0    0    0  501 -0.00000000000E+00 -0.00000000000E+00 -0.35262660035E+02  0.35262660035E+02  0.00000000000E+00 0.  1.
         25    2    1    2    0    0 -0.54106405803E+02  0.15743663504E+02  0.40138601210E+03  0.42415925995E+03  0.12499992400E+03 0.  0.
          4    1    3    3  502    0 -0.62241558500E+02 -0.37136216843E+02  0.30902836831E+03  0.31741653316E+03  0.12700000000E+01 0.  1.
         -4    1    3    3    0  502  0.81351526964E+01  0.52879880346E+02  0.92357643791E+02  0.10674272679E+03  0.12700000000E+01 0.  1.
          2    1    1    2  503    0  0.39528658416E+02  0.92354955710E+01  0.85481846515E+02  0.94630625582E+02  0.00000000000E+00 0. -1.
         -1    1    1    2    0  501  0.14577747388E+02 -0.24979159075E+02 -0.84674788339E+01  0.30135814321E+02  0.00000000000E+00 0.  1.
<mgrwt>
<rscale>  0 0.35573846E+02</rscale>
<asrwt>0</asrwt>
<pdfrwt beam="1">  1        2 0.79025077E-01 0.43755908E+02</pdfrwt>
<pdfrwt beam="2">  1       -1 0.54250250E-02 0.28921776E+02</pdfrwt>
<totfact> 0.88218683E+03</totfact>
</mgrwt>
</event>
<event>
 7    1  0.4251803E-004  0.4630351E+02  0.7546771E-02  0.1487756E+00
         -1   -1    0    0    0  501 -0.00000000000E+00  0.00000000000E+00  0.34841839475E+03  0.34841839475E+03  0.00000000000E+00 0.  1.
          2   -1    0    0  503    0  0.00000000000E+00 -0.00000000000E+00 -0.45016677903E+02  0.45016677903E+02  0.00000000000E+00 0. -1.
         25    2    1    2    0    0 -0.43831526311E+02  0.29205728278E+02  0.24819808035E+03  0.28284473136E+03  0.12499871081E+03 0.  0.
          4    1    3    3  502    0 -0.45217867568E+02 -0.18247409628E+01  0.24764838315E+03  0.25175249711E+03  0.12700000000E+01 0.  1.
         -4    1    3    3    0  502  0.13863412570E+01  0.31030469241E+02  0.54969720502E+00  0.31092234246E+02  0.12700000000E+01 0.  1.
          2    1    1    2  503    0  0.35175170850E+02  0.18589391017E+02  0.39559544398E+01  0.39981341626E+02  0.00000000000E+00 0. -1.
         -1    1    1    2    0  501  0.86563554608E+01 -0.47795119295E+02  0.51247682057E+02  0.70608999670E+02  0.00000000000E+00 0.  1.
<mgrwt>
<rscale>  0 0.42920767E+02</rscale>
<asrwt>0</asrwt>
<pdfrwt beam="2">  1        2 0.69256430E-02 0.39785149E+02</pdfrwt>
<pdfrwt beam="1">  1       -1 0.53602828E-01 0.46303515E+02</pdfrwt>
<totfact> 0.36778706E+03</totfact>
</mgrwt>
</event>
<event>
 7    1  0.4251803E-004  0.4490246E+02  0.7546771E-02  0.1504620E+00
          1   -1    0    0  503    0  0.00000000000E+00  0.00000000000E+00  0.11905686939E+04  0.11905686939E+04  0.00000000000E+00 0. -1.
         -2   -1    0    0    0  501 -0.00000000000E+00 -0.00000000000E+00 -0.61842648855E+02  0.61842648855E+02  0.00000000000E+00 0.  1.
         25    2    1    2    0    0 -0.77762433420E+02  0.22050293385E+02  0.10126939656E+03  0.18003271971E+03  0.12499231175E+03 0.  0.
          4    1    3    3  502    0 -0.44559264678E+02  0.56442219245E+02  0.10999489395E+03  0.13142199883E+03  0.12700000000E+01 0.  1.
         -4    1    3    3    0  502 -0.33203168743E+02 -0.34391925860E+02 -0.87254973975E+01  0.48610720873E+02  0.12700000000E+01 0.  1.
          1    1    1    2  503    0  0.42034563731E+02 -0.14508983648E+02  0.10342766048E+04  0.10352321046E+04  0.00000000000E+00 0. -1.
         -2    1    1    2    0  501  0.35727869690E+02 -0.75413097378E+01 -0.68199563531E+01  0.37146518407E+02  0.00000000000E+00 0.  1.
<mgrwt>
<rscale>  0 0.40492189E+02</rscale>
<asrwt>0</asrwt>
<pdfrwt beam="1">  1        1 0.18316440E+00 0.44902456E+02</pdfrwt>
<pdfrwt beam="2">  1       -2 0.95142545E-02 0.36515093E+02</pdfrwt>
<totfact> 0.73325101E+02</totfact>
</mgrwt>
</event>
<event>
 7    1  0.4251803E-004  0.7217993E+02  0.7546771E-02  0.1374321E+00
          1   -1    0    0  503    0  0.00000000000E+00  0.00000000000E+00  0.47940817928E+03  0.47940817928E+03  0.00000000000E+00 0. -1.
         -2   -1    0    0    0  501 -0.00000000000E+00 -0.00000000000E+00 -0.79586930184E+02  0.79586930184E+02  0.00000000000E+00 0.  1.
         25    2    1    2    0    0  0.11286406335E+02  0.69255837524E+02  0.25704034187E+03  0.29432396862E+03  0.12503242440E+03 0.  0.
          4    1    3    3  502    0 -0.18332344379E+02 -0.32526420590E+02  0.68196185794E+02  0.77758443552E+02  0.12700000000E+01 0. -1.
         -4    1    3    3    0  502  0.29618750714E+02  0.10178225811E+03  0.18884415608E+03  0.21656552506E+03  0.12700000000E+01 0. -1.
          1    1    1    2  503    0 -0.59062427808E+02 -0.12220359539E+02  0.17387109715E+03  0.18403495861E+03  0.00000000000E+00 0. -1.
         -2    1    1    2    0  501  0.47776021474E+02 -0.57035477985E+02 -0.31090189927E+02  0.80636182242E+02  0.00000000000E+00 0.  1.
<mgrwt>
<rscale>  0 0.65980435E+02</rscale>
<asrwt>0</asrwt>
<pdfrwt beam="1">  1        1 0.73755103E-01 0.60313411E+02</pdfrwt>
<pdfrwt beam="2">  1       -2 0.12244143E-01 0.72179930E+02</pdfrwt>
<totfact> 0.19294713E+03</totfact>
</mgrwt>
</event>
<event>
 7    1  0.4251803E-004  0.5692273E+02  0.7546771E-02  0.1465674E+00
          2   -1    0    0  502    0  0.00000000000E+00  0.00000000000E+00  0.23686181148E+04  0.23686181148E+04  0.00000000000E+00 0. -1.
          3   -1    0    0  503    0 -0.00000000000E+00 -0.00000000000E+00 -0.17636403125E+02  0.17636403125E+02  0.00000000000E+00 0. -1.
         25    2    1    2    0    0  0.26169661645E+02  0.11585936818E+02  0.92611779007E+03  0.93495387833E+03  0.12500203358E+03 0.  0.
          4    1    3    3  501    0 -0.25183139718E+02  0.28297489336E+02  0.74471867548E+03  0.74568254434E+03  0.12700000000E+01 0. -1.
         -4    1    3    3    0  501  0.51352801363E+02 -0.16711552519E+02  0.18139911459E+03  0.18927133399E+03  0.12700000000E+01 0. -1.
          2    1    1    2  502    0  0.32616182949E+02 -0.19210598369E+02  0.13700210868E+04  0.13705439215E+04  0.00000000000E+00 0. -1.
          3    1    1    2  503    0 -0.58785844594E+02  0.76246615518E+01  0.54842834809E+02  0.80756718100E+02  0.00000000000E+00 0. -1.
<mgrwt>
<rscale>  0 0.46418806E+02</rscale>
<asrwt>0</asrwt>
<pdfrwt beam="1">  1        2 0.36440254E+00 0.37853170E+02</pdfrwt>
<pdfrwt beam="2">  1        3 0.27132947E-02 0.56922725E+02</pdfrwt>
<totfact> 0.18281939E+03</totfact>
</mgrwt>
</event>
<event>
 7    1  0.4251803E-004  0.1384867E+03  0.7546771E-02  0.1419369E+00
          1   -1    0    0  503    0  0.00000000000E+00  0.00000000000E+00  0.12202384460E+04  0.12202384460E+04  0.00000000000E+00 0. -1.
         -2   -1    0    0    0  501 -0.00000000000E+00 -0.00000000000E+00 -0.55572713163E+02  0.55572713163E+02  0.00000000000E+00 0.  1.
         25    2    1    2    0    0  0.10407670410E+03 -0.70219416549E+02  0.59117339024E+03  0.61715096302E+03  0.12500642794E+03 0.  0.
          4    1    3    3  502    0  0.94873151775E+02 -0.19176780865E+02  0.19615064323E+03  0.21873580317E+03  0.12700000000E+01 0. -1.
         -4    1    3    3    0  502  0.92035523217E+01 -0.51042635684E+02  0.39502274702E+03  0.39841515984E+03  0.12700000000E+01 0. -1.
          1    1    1    2  503    0 -0.12033590717E+03  0.84989509961E+02  0.60364067260E+03  0.62135819700E+03  0.00000000000E+00 0. -1.
         -2    1    1    2    0  501  0.16259203072E+02 -0.14770093412E+02 -0.30148329964E+02  0.37301999190E+02  0.00000000000E+00 0.  1.
<mgrwt>
<rscale>  0 0.55154675E+02</rscale>
<asrwt>0</asrwt>
<pdfrwt beam="1">  1        1 0.18772897E+00 0.13848674E+03</pdfrwt>
<pdfrwt beam="2">  1       -2 0.85496491E-02 0.21966277E+02</pdfrwt>
<totfact> 0.71218651E+02</totfact>
</mgrwt>
</event>
<event>
 7    1  0.4251803E-004  0.5460630E+02  0.7546771E-02  0.1429259E+00
          1   -1    0    0  503    0  0.00000000000E+00  0.00000000000E+00  0.43010978995E+03  0.43010978995E+03  0.00000000000E+00 0. -1.
          1   -1    0    0  502    0 -0.00000000000E+00 -0.00000000000E+00 -0.19579879643E+03  0.19579879643E+03  0.00000000000E+00 0. -1.
         25    2    1    2    0    0 -0.63762886049E+02 -0.33747434916E+02 -0.68319260968E+01  0.14448664505E+03  0.12500048153E+03 0.  0.
          4    1    3    3  501    0 -0.10186616096E+03 -0.28539839175E+02 -0.33215281600E+01  0.10584839450E+03  0.12700000000E+01 0.  1.
         -4    1    3    3    0  501  0.38103274909E+02 -0.52075957416E+01 -0.35103979368E+01  0.38638250554E+02  0.12700000000E+01 0.  1.
          1    1    1    2  502    0  0.15639091904E+02  0.52512435097E+02 -0.11191382023E+03  0.12460674217E+03  0.00000000000E+00 0. -1.
          1    1    1    2  503    0  0.48123794146E+02 -0.18765000181E+02  0.35305673985E+03  0.35681519916E+03  0.00000000000E+00 0. -1.
<mgrwt>
<rscale>  0 0.53109088E+02</rscale>
<asrwt>0</asrwt>
<pdfrwt beam="1">  1        1 0.66170737E-01 0.51652926E+02</pdfrwt>
<pdfrwt beam="2">  1        1 0.30122892E-01 0.54606301E+02</pdfrwt>
<totfact> 0.99084980E+02</totfact>
</mgrwt>
</event>
<event>
 7    1  0.4251803E-004  0.1037371E+03  0.7546771E-02  0.1424977E+00
         -1   -1    0    0    0  501  0.00000000000E+00  0.00000000000E+00  0.79937599539E+02  0.79937599539E+02  0.00000000000E+00 0.  1.
         -1   -1    0    0    0  502 -0.00000000000E+00 -0.00000000000E+00 -0.30987356800E+03  0.30987356800E+03  0.00000000000E+00 0.  1.
         25    2    1    2    0    0  0.44503133359E+02  0.86961787507E+02 -0.78308950001E+02  0.17691754974E+03  0.12499858555E+03 0.  0.
          4    1    3    3  503    0 -0.65190490835E+01  0.15959968997E+02 -0.87317798231E+02  0.89012523833E+02  0.12700000000E+01 0.  1.
         -4    1    3    3    0  503  0.51022182442E+02  0.71001818510E+02  0.90088482294E+01  0.87905025904E+02  0.12700000000E+01 0.  1.
         -1    1    1    2    0  501 -0.25201067821E+02 -0.10737028892E+03 -0.80857920968E+02  0.13675334052E+03  0.00000000000E+00 0.  1.
         -1    1    1    2    0  502 -0.19302065538E+02  0.20408501411E+02 -0.70769097490E+02  0.76140277274E+02  0.00000000000E+00 0.  1.
<mgrwt>
<rscale>  0 0.53981746E+02</rscale>
<asrwt>0</asrwt>
<pdfrwt beam="1">  1       -1 0.12298092E-01 0.10373713E+03</pdfrwt>
<pdfrwt beam="2">  1       -1 0.47672856E-01 0.28090508E+02</pdfrwt>
<totfact> 0.15911150E+03</totfact>
</mgrwt>
</event>
<event>
 7    1  0.4693306E-004  0.1088114E+03  0.7546771E-02  0.1434644E+00
         -1   -1    0    0    0  501 -0.00000000000E+00  0.00000000000E+00  0.49104009223E+02  0.49104009223E+02  0.00000000000E+00 0.  1.
          2   -1    0    0  503    0  0.00000000000E+00 -0.00000000000E+00 -0.71855735593E+03  0.71855735593E+03  0.00000000000E+00 0. -1.
         25    2    1    2    0    0  0.81412208792E+02 -0.87223650955E+02 -0.56213238560E+03  0.58809434672E+03  0.12500491464E+03 0.  0.
          4    1    3    3  502    0  0.14107246509E+02  0.91561007950E+01 -0.30382500031E+03  0.30429277399E+03  0.12700000000E+01 0.  1.
         -4    1    3    3    0  502  0.67304962283E+02 -0.96379751750E+02 -0.25830738528E+03  0.28380157274E+03  0.12700000000E+01 0.  1.
          2    1    1    2  503    0 -0.60545080610E+02  0.73660678509E+02 -0.11865599039E+03  0.15221973065E+03  0.00000000000E+00 0. -1.
         -1    1    1    2    0  501 -0.20867128182E+02  0.13562972445E+02  0.11335029277E+02  0.27347287778E+02  0.00000000000E+00 0.  1.
<mgrwt>
<rscale>  0 0.52038936E+02</rscale>
<asrwt>0</asrwt>
<pdfrwt beam="2">  1        2 0.11054729E+00 0.10881137E+03</pdfrwt>
<pdfrwt beam="1">  1       -1 0.75544629E-02 0.24887572E+02</pdfrwt>
<totfact> 0.36518610E+03</totfact>
</mgrwt>
</event>
<event>
 7    1  0.4251803E-004  0.1365758E+03  0.7546771E-02  0.1242636E+00
          1   -1    0    0  503    0 -0.00000000000E+00  0.00000000000E+00  0.29473797544E+03  0.29473797544E+03  0.00000000000E+00 0. -1.
          2   -1    0    0  502    0  0.00000000000E+00 -0.00000000000E+00 -0.10269259666E+04  0.10269259666E+04  0.00000000000E+00 0. -1.
         25    2    1    2    0    0 -0.43969323829E+02 -0.17787667336E+02 -0.27844541658E+03  0.30887068943E+03  0.12497819900E+03 0.  0.
          4    1    3    3  501    0  0.25002507949E+02  0.33280966947E+02 -0.51463139490E+02  0.66202838238E+02  0.12700000000E+01 0. -1.
         -4    1    3    3    0  501 -0.68971831779E+02 -0.51068634283E+02 -0.22698227709E+03  0.24266785119E+03  0.12700000000E+01 0. -1.
          2    1    1    2  502    0 -0.38238032876E+02 -0.98786203057E+02 -0.71088608553E+03  0.71873492170E+03  0.00000000000E+00 0. -1.
          1    1    1    2  503    0  0.82207356705E+02  0.11657387039E+03  0.25714351095E+03  0.29405833092E+03  0.00000000000E+00 0. -1.
<mgrwt>
<rscale>  0 0.12028001E+03</rscale>
<asrwt>0</asrwt>
<pdfrwt beam="2">  1        2 0.15798861E+00 0.10592857E+03</pdfrwt>
<pdfrwt beam="1">  1        1 0.45344304E-01 0.13657582E+03</pdfrwt>
<totfact> 0.32499672E+02</totfact>
</mgrwt>
</event>
<event>
 7    1  0.4251803E-004  0.3028081E+02  0.7546771E-02  0.1631472E+00
          2   -1    0    0  503    0  0.00000000000E+00  0.00000000000E+00  0.24730110197E+02  0.24730110197E+02  0.00000000000E+00 0. -1.
         -1   -1    0    0    0  501 -0.00000000000E+00 -0.00000000000E+00 -0.46308372900E+03  0.46308372900E+03  0.00000000000E+00 0.  1.
         25    2    1    2    0    0  0.21535449162E+02  0.98959350989E+01 -0.24562603279E+03  0.27661749230E+03  0.12499353567E+03 0.  0.
          4    1    3    3  502    0  0.37897031640E+02 -0.35746206431E+02 -0.21017795991E+03  0.21654182971E+03  0.12700000000E+01 0. -1.
         -4    1    3    3    0  502 -0.16361582478E+02  0.45642141530E+02 -0.35448072876E+02  0.60075662587E+02  0.12700000000E+01 0. -1.
          2    1    1    2  503    0  0.70023102728E+01 -0.23378713755E+02 -0.11036745771E+02  0.26784442559E+02  0.00000000000E+00 0. -1.
         -1    1    1    2    0  501 -0.28537759435E+02  0.13482778656E+02 -0.18169084025E+03  0.18441190435E+03  0.00000000000E+00 0.  1.
<mgrwt>
<rscale>  0 0.27184528E+02</rscale>
<asrwt>0</asrwt>
<pdfrwt beam="1">  1        2 0.38046323E-02 0.24404848E+02</pdfrwt>
<pdfrwt beam="2">  1       -1 0.71243651E-01 0.30280811E+02</pdfrwt>
<totfact> 0.43214622E+03</totfact>
</mgrwt>
</event>
<event>
 7    1  0.4251803E-004  0.3547694E+02  0.7546771E-02  0.1591606E+00
          2   -1    0    0  503    0  0.00000000000E+00  0.00000000000E+00  0.38289388427E+02  0.38289388427E+02  0.00000000000E+00 0. -1.
         -1   -1    0    0    0  501 -0.00000000000E+00 -0.00000000000E+00 -0.50488618329E+03  0.50488618329E+03  0.00000000000E+00 0.  1.
         25    2    1    2    0    0 -0.14839156589E+02  0.20070994579E+02 -0.43498553091E+03  0.45327793481E+03  0.12500171477E+03 0.  0.
          4    1    3    3  502    0  0.30451489848E+02 -0.35914040894E+02 -0.98663796505E+02  0.10933100753E+03  0.12700000000E+01 0.  1.
         -4    1    3    3    0  502 -0.45290646438E+02  0.55985035473E+02 -0.33632173440E+03  0.34394692728E+03  0.12700000000E+01 0.  1.
          2    1    1    2  503    0 -0.67333804415E+01  0.25510847331E+02  0.59136272147E+01  0.27039096334E+02  0.00000000000E+00 0. -1.
         -1    1    1    2    0  501  0.21572537031E+02 -0.45581841910E+02 -0.37524891174E+02  0.62858540577E+02  0.00000000000E+00 0.  1.
<mgrwt>
<rscale>  0 0.30594793E+02</rscale>
<asrwt>0</asrwt>
<pdfrwt beam="1">  1        2 0.58906754E-02 0.26384498E+02</pdfrwt>
<pdfrwt beam="2">  1       -1 0.77674794E-01 0.35476943E+02</pdfrwt>
<totfact> 0.21489157E+03</totfact>
</mgrwt>
</event>
<event>
 7    1  0.4251803E-004  0.5587454E+02  0.7546771E-02  0.1502475E+00
          1   -1    0    0  503    0  0.00000000000E+00  0.00000000000E+00  0.11911192534E+04  0.11911192534E+04  0.00000000000E+00 0. -1.
          1   -1    0    0  502    0 -0.00000000000E+00 -0.00000000000E+00 -0.42549650968E+03  0.42549650968E+03  0.00000000000E+00 0. -1.
         25    2    1    2    0    0  0.26491016707E+02  0.42658188488E+02 -0.12178705618E+03  0.18160410855E+03  0.12500588058E+03 0.  0.
          4    1    3    3  501    0  0.66298526457E+02  0.14223266994E+01 -0.10057583927E+03  0.12047667811E+03  0.12700000000E+01 0. -1.
         -4    1    3    3    0  501 -0.39807509750E+02  0.41235861789E+02 -0.21211216913E+02  0.61127430445E+02  0.12700000000E+01 0. -1.
          1    1    1    2  502    0 -0.26655546596E+02  0.13275056278E+02 -0.27231524115E+03  0.27393856218E+03  0.00000000000E+00 0. -1.
          1    1    1    2  503    0  0.16452988850E+00 -0.55933244766E+02  0.11597250410E+04  0.11610730923E+04  0.00000000000E+00 0. -1.
<mgrwt>
<rscale>  0 0.40790282E+02</rscale>
<asrwt>0</asrwt>
<pdfrwt beam="1">  1        1 0.18324911E+00 0.55874540E+02</pdfrwt>
<pdfrwt beam="2">  1        1 0.65461002E-01 0.29778269E+02</pdfrwt>
<totfact> 0.91183034E+01</totfact>
</mgrwt>
</event>
<event>
 7    1  0.4251803E-004  0.1369600E+03  0.7546771E-02  0.1324078E+00
          2   -1    0    0  502    0  0.00000000000E+00  0.00000000000E+00  0.12079481335E+04  0.12079481335E+04  0.00000000000E+00 0. -1.
          2   -1    0    0  503    0 -0.00000000000E+00 -0.00000000000E+00 -0.75791249255E+03  0.75791249255E+03  0.00000000000E+00 0. -1.
         25    2    1    2    0    0 -0.39085554702E+02 -0.17870710107E+03  0.88030264407E+02  0.23840919700E+03  0.12500283679E+03 0.  0.
          4    1    3    3  501    0 -0.58615282956E+02 -0.17789226591E+03  0.47255913425E+02  0.19317386966E+03  0.12700000000E+01 0. -1.
         -4    1    3    3    0  501  0.19529728254E+02 -0.81483516113E+00  0.40774350983E+02  0.45235327346E+02  0.12700000000E+01 0. -1.
          2    1    1    2  502    0  0.20742611386E+01  0.48786120959E+02  0.10374659844E+04  0.10386144891E+04  0.00000000000E+00 0. -1.
          2    1    1    2  503    0  0.37011293563E+02  0.12992098011E+03 -0.67546060792E+03  0.68883693990E+03  0.00000000000E+00 0. -1.
<mgrwt>
<rscale>  0 0.81778863E+02</rscale>
<asrwt>0</asrwt>
<pdfrwt beam="1">  1        2 0.18583817E+00 0.48830197E+02</pdfrwt>
<pdfrwt beam="2">  1        2 0.11660192E+00 0.13695997E+03</pdfrwt>
<totfact> 0.13403498E+02</totfact>
</mgrwt>
</event>
<event>
 7    1  0.5040408E-004  0.4846340E+03  0.7546771E-02  0.1017869E+00
          2   -1    0    0  503    0  0.00000000000E+00  0.00000000000E+00  0.51774574046E+03  0.51774574046E+03  0.00000000000E+00 0. -1.
         -1   -1    0    0    0  501 -0.00000000000E+00 -0.00000000000E+00 -0.11340996716E+03  0.11340996716E+03  0.00000000000E+00 0.  1.
         25    2    1    2    0    0 -0.15249654597E+03 -0.13605408526E+03  0.10976166233E+03  0.26351299940E+03  0.12500227073E+03 0.  0.
          4    1    3    3  502    0 -0.73044248664E+02 -0.13564266813E+03  0.43610123004E+02  0.16011824196E+03  0.12700000000E+01 0.  1.
         -4    1    3    3    0  502 -0.79452297303E+02 -0.41141713109E+00  0.66151539327E+02  0.10339475744E+03  0.12700000000E+01 0.  1.
          2    1    1    2  503    0  0.32378828003E+02  0.30325215259E+02  0.13314357472E+03  0.14033965467E+03  0.00000000000E+00 0. -1.
         -1    1    1    2    0  501  0.12011771796E+03  0.10572887000E+03  0.16143053624E+03  0.22730305355E+03  0.00000000000E+00 0.  1.
<mgrwt>
<rscale>  0 0.48463400E+03</rscale>
<asrwt>0</asrwt>
<pdfrwt beam="1">  1        2 0.79653190E-01 0.48463400E+03</pdfrwt>
<pdfrwt beam="2">  1       -1 0.17447688E-01 0.48463400E+03</pdfrwt>
<totfact> 0.17237260E+03</totfact>
</mgrwt>
</event>
<event>
 7    1  0.4251803E-004  0.6588371E+02  0.7546771E-02  0.1493380E+00
          2   -1    0    0  503    0  0.00000000000E+00  0.00000000000E+00  0.21561692716E+02  0.21561692716E+02  0.00000000000E+00 0. -1.
         -1   -1    0    0    0  501 -0.00000000000E+00 -0.00000000000E+00 -0.14565481665E+04  0.14565481665E+04  0.00000000000E+00 0.  1.
         25    2    1    2    0    0  0.83217975245E+02 -0.37579430241E+02 -0.31026255595E+03  0.34673418839E+03  0.12499719513E+03 0.  0.
          4    1    3    3  502    0  0.88766958228E+01 -0.57710456345E+02 -0.22214936583E+03  0.22969816312E+03  0.12700000000E+01 0. -1.
         -4    1    3    3    0  502  0.74341279422E+02  0.20131026103E+02 -0.88113190124E+02  0.11703602527E+03  0.12700000000E+01 0. -1.
          2    1    1    2  503    0 -0.25182515474E+02  0.94229965592E+01 -0.75040825515E+02  0.79712467304E+02  0.00000000000E+00 0. -1.
         -1    1    1    2    0  501 -0.58035459771E+02  0.28156433682E+02 -0.10496830923E+04  0.10516632035E+04  0.00000000000E+00 0.  1.
<mgrwt>
<rscale>  0 0.42088783E+02</rscale>
<asrwt>0</asrwt>
<pdfrwt beam="1">  1        2 0.33171830E-02 0.26887766E+02</pdfrwt>
<pdfrwt beam="2">  1       -1 0.22408437E+00 0.65883706E+02</pdfrwt>
<totfact> 0.31831887E+02</totfact>
</mgrwt>
</event>
<event>
 7    1  0.4251803E-004  0.8209351E+02  0.7546771E-02  0.1444912E+00
          2   -1    0    0  502    0  0.00000000000E+00  0.00000000000E+00  0.19835728890E+04  0.19835728890E+04  0.00000000000E+00 0. -1.
          2   -1    0    0  503    0 -0.00000000000E+00 -0.00000000000E+00 -0.32459941088E+02  0.32459941088E+02  0.00000000000E+00 0. -1.
         25    2    1    2    0    0 -0.98067444642E+02 -0.21948693337E+02  0.69557480959E+03  0.71382650854E+03  0.12499999886E+03 0.  0.
          4    1    3    3  501    0 -0.49992725948E+02 -0.35013630868E+02  0.62184581353E+03  0.62483522284E+03  0.12700000000E+01 0. -1.
         -4    1    3    3    0  501 -0.48074718694E+02  0.13064937531E+02  0.73728996061E+02  0.88991285699E+02  0.12700000000E+01 0. -1.
          2    1    1    2  502    0  0.17567254451E+02  0.24994210848E+02  0.12085705273E+04  0.12089565909E+04  0.00000000000E+00 0. -1.
          2    1    1    2  503    0  0.80500190191E+02 -0.30455175106E+01  0.46967611014E+02  0.93249730734E+02  0.00000000000E+00 0. -1.
<mgrwt>
<rscale>  0 0.50079725E+02</rscale>
<asrwt>0</asrwt>
<pdfrwt beam="1">  1        2 0.30516497E+00 0.30550270E+02</pdfrwt>
<pdfrwt beam="2">  1        2 0.49938386E-02 0.82093507E+02</pdfrwt>
<totfact> 0.21199591E+03</totfact>
</mgrwt>
</event>
<event>
 7    1  0.5841231E-004  0.9812376E+02  0.7546771E-02  0.1349003E+00
          1   -1    0    0  503    0  0.00000000000E+00  0.00000000000E+00  0.18750720371E+03  0.18750720371E+03  0.00000000000E+00 0. -1.
         -1   -1    0    0    0  501 -0.00000000000E+00 -0.00000000000E+00 -0.15093675497E+03  0.15093675497E+03  0.00000000000E+00 0.  1.
         25    2    1    2    0    0 -0.11580783508E+03 -0.49656654419E+02  0.42719123283E+02  0.18255425872E+03  0.12499558348E+03 0.  0.
          4    1    3    3  502    0 -0.12514089856E+03 -0.53387055293E+02  0.70317327751E+02  0.15315535135E+03  0.12700000000E+01 0. -1.
         -4    1    3    3    0  502  0.93330634842E+01  0.37304008741E+01 -0.27598204468E+02  0.29398907370E+02  0.12700000000E+01 0. -1.
          1    1    1    2  503    0  0.87646931611E+02  0.25799766543E+01  0.27058681787E+02  0.91764988751E+02  0.00000000000E+00 0. -1.
         -1    1    1    2    0  501  0.28160903464E+02  0.47076677765E+02 -0.33207356327E+02  0.64124711208E+02  0.00000000000E+00 0.  1.
<mgrwt>
<rscale>  0 0.73367151E+02</rscale>
<asrwt>0</asrwt>
<pdfrwt beam="1">  1        1 0.28847262E-01 0.98123758E+02</pdfrwt>
<pdfrwt beam="2">  1       -1 0.23221039E-01 0.54856632E+02</pdfrwt>
<totfact> 0.23550787E+03</totfact>
</mgrwt>
</event>
<event>
 7    1  0.4251803E-004  0.1126148E+03  0.7546771E-02  0.1314415E+00
          1   -1    0    0  503    0 -0.00000000000E+00  0.00000000000E+00  0.41250700475E+03  0.41250700475E+03  0.00000000000E+00 0. -1.
          2   -1    0    0  502    0  0.00000000000E+00 -0.00000000000E+00 -0.17081035975E+03  0.17081035975E+03  0.00000000000E+00 0. -1.
         25    2    1    2    0    0  0.89317961571E+02  0.10823466742E+02  0.92336614966E+02  0.17957034813E+03  0.12499845508E+03 0.  0.
          4    1    3    3  501    0  0.78506099751E+02  0.45903576231E+02  0.10663643140E+03  0.14015451263E+03  0.12700000000E+01 0. -1.
         -4    1    3    3    0  501  0.10811861820E+02 -0.35080109489E+02 -0.14299816438E+02  0.39415835497E+02  0.12700000000E+01 0. -1.
          2    1    1    2  502    0 -0.93396754448E+02 -0.75442075078E+02 -0.93646072908E+02  0.15226308615E+03  0.00000000000E+00 0. -1.
          1    1    1    2  503    0  0.40787928767E+01  0.64618608335E+02  0.24300610293E+03  0.25148393022E+03  0.00000000000E+00 0. -1.
<mgrwt>
<rscale>  0 0.85390233E+02</rscale>
<asrwt>0</asrwt>
<pdfrwt beam="2">  1        2 0.26278517E-01 0.11261477E+03</pdfrwt>
<pdfrwt beam="1">  1        1 0.63462616E-01 0.64747209E+02</pdfrwt>
<totfact> 0.16058046E+03</totfact>
</mgrwt>
</event>
<event>
 7    1  0.4251803E-004  0.1359960E+03  0.7546771E-02  0.1265028E+00
         -3   -1    0    0    0  501 -0.00000000000E+00  0.00000000000E+00  0.36868385106E+03  0.36868385106E+03  0.00000000000E+00 0.  1.
          1   -1    0    0  503    0  0.00000000000E+00 -0.00000000000E+00 -0.14048433228E+04  0.14048433228E+04  0.00000000000E+00 0. -1.
         25    2    1    2    0    0  0.54549442270E+02 -0.14484005451E+02  0.19006162754E+02  0.13846108425E+03  0.12499923826E+03 0.  0.
          4    1    3    3  502    0  0.68305877642E+02 -0.38539098488E+02 -0.28494573286E+02  0.83453631673E+02  0.12700000000E+01 0.  1.
         -4    1    3    3    0  502 -0.13756435372E+02  0.24055093036E+02  0.47500736040E+02  0.55007452581E+02  0.12700000000E+01 0.  1.
          1    1    1    2  503    0 -0.13949205930E+03  0.81821671624E+01 -0.13351348127E+04  0.13424268884E+04  0.00000000000E+00 0. -1.
         -3    1    1    2    0  501  0.84942617032E+02  0.63018382890E+01  0.27996917822E+03  0.29263920125E+03  0.00000000000E+00 0.  1.
<mgrwt>
<rscale>  0 0.10762717E+03</rscale>
<asrwt>0</asrwt>
<pdfrwt beam="2">  1        1 0.21612974E+00 0.13599605E+03</pdfrwt>
<pdfrwt beam="1">  1       -3 0.56720593E-01 0.85176061E+02</pdfrwt>
<totfact> 0.14310282E+01</totfact>
</mgrwt>
</event>
<event>
 7    1  0.4251803E-004  0.1053885E+03  0.7546771E-02  0.1353968E+00
         -1   -1    0    0    0  501 -0.00000000000E+00  0.00000000000E+00  0.46903330970E+03  0.46903330970E+03  0.00000000000E+00 0.  1.
          1   -1    0    0  503    0  0.00000000000E+00 -0.00000000000E+00 -0.34365000689E+03  0.34365000689E+03  0.00000000000E+00 0. -1.
         25    2    1    2    0    0  0.10907473110E+03 -0.16434185133E+02 -0.41476821802E+02  0.17179333175E+03  0.12500097073E+03 0.  0.
          4    1    3    3  502    0  0.68878822250E+02 -0.51929083353E+02 -0.69949552458E+02  0.11106518195E+03  0.12700000000E+01 0.  1.
         -4    1    3    3    0  502  0.40195908847E+02  0.35494898219E+02  0.28472730656E+02  0.60728149805E+02  0.12700000000E+01 0.  1.
          1    1    1    2  503    0 -0.22079035631E+02 -0.43700744911E+02 -0.22744159931E+03  0.23265192889E+03  0.00000000000E+00 0. -1.
         -1    1    1    2    0  501 -0.86995695466E+02  0.60134930044E+02  0.39430172392E+03  0.40823805595E+03  0.00000000000E+00 0.  1.
<mgrwt>
<rscale>  0 0.71833061E+02</rscale>
<asrwt>0</asrwt>
<pdfrwt beam="2">  1        1 0.52869232E-01 0.48961607E+02</pdfrwt>
<pdfrwt beam="1">  1       -1 0.72158971E-01 0.10538847E+03</pdfrwt>
<totfact> 0.15532507E+02</totfact>
</mgrwt>
</event>
<event>
 7    1  0.4251803E-004  0.2047677E+03  0.7546771E-02  0.1275407E+00
          1   -1    0    0  503    0 -0.00000000000E+00  0.00000000000E+00  0.25434488945E+03  0.25434488945E+03  0.00000000000E+00 0. -1.
          2   -1    0    0  502    0  0.00000000000E+00 -0.00000000000E+00 -0.10282555163E+04  0.10282555163E+04  0.00000000000E+00 0. -1.
         25    2    1    2    0    0 -0.16676818102E+03  0.33889657049E+02 -0.22983592493E+03  0.31211188914E+03  0.12501657449E+03 0.  0.
          4    1    3    3  501    0 -0.43057384938E+02  0.67899609905E+02 -0.11221112293E+03  0.13804797873E+03  0.12700000000E+01 0. -1.
         -4    1    3    3    0  501 -0.12371079608E+03 -0.34009952856E+02 -0.11762480200E+03  0.17406391040E+03  0.12700000000E+01 0. -1.
          2    1    1    2  502    0  0.20905695416E+03 -0.62698930228E+02 -0.73817067111E+03  0.76976094057E+03  0.00000000000E+00 0. -1.
          1    1    1    2  503    0 -0.42288773141E+02  0.28809273180E+02  0.19409596916E+03  0.20072757608E+03  0.00000000000E+00 0. -1.
<mgrwt>
<rscale>  0 0.10236138E+03</rscale>
<asrwt>0</asrwt>
<pdfrwt beam="2">  1        2 0.15819316E+00 0.20476766E+03</pdfrwt>
<pdfrwt beam="1">  1        1 0.39129983E-01 0.51169469E+02</pdfrwt>
<totfact> 0.37329085E+02</totfact>
</mgrwt>
</event>
<event>
 7    1  0.4251803E-004  0.9260901E+02  0.7546771E-02  0.1482399E+00
          2   -1    0    0  503    0  0.00000000000E+00  0.00000000000E+00  0.14963739520E+04  0.14963739520E+04  0.00000000000E+00 0. -1.
         -1   -1    0    0    0  501 -0.00000000000E+00 -0.00000000000E+00 -0.16395331976E+02  0.16395331976E+02  0.00000000000E+00 0.  1.
         25    2    1    2    0    0 -0.65731586813E+01  0.10776239624E+03  0.10202712632E+04  0.10335515938E+04  0.12497802187E+03 0.  0.
          4    1    3    3  502    0  0.54506263257E+02  0.60764670760E+02  0.66647270307E+03  0.67145420900E+03  0.12700000000E+01 0. -1.
         -4    1    3    3    0  502 -0.61079421938E+02  0.46997725483E+02  0.35379856016E+03  0.36209738476E+03  0.12700000000E+01 0. -1.
          2    1    1    2  503    0  0.95214601125E+01 -0.18328115840E+02  0.25465209755E+03  0.25548829488E+03  0.00000000000E+00 0. -1.
         -1    1    1    2    0  501 -0.29483014312E+01 -0.89434280403E+02  0.20505525929E+03  0.22372939538E+03  0.00000000000E+00 0.  1.
<mgrwt>
<rscale>  0 0.43734708E+02</rscale>
<asrwt>0</asrwt>
<pdfrwt beam="1">  1        2 0.23021127E+00 0.20653766E+02</pdfrwt>
<pdfrwt beam="2">  1       -1 0.25223600E-02 0.92609007E+02</pdfrwt>
<totfact> 0.83822411E+03</totfact>
</mgrwt>
</event>
<event>
 7    1  0.4251803E-004  0.8526501E+02  0.7546771E-02  0.1399824E+00
          2   -1    0    0  503    0  0.00000000000E+00  0.00000000000E+00  0.53295984798E+02  0.53295984798E+02  0.00000000000E+00 0. -1.
          2   -1    0    0  502    0 -0.00000000000E+00 -0.00000000000E+00 -0.94935367562E+03  0.94935367562E+03  0.00000000000E+00 0. -1.
         25    2    1    2    0    0 -0.35708039313E+01  0.81024923508E+02 -0.12509183150E+03  0.19455266043E+03  0.12499993001E+03 0.  0.
          4    1    3    3  501    0 -0.30500673831E+02  0.95769686679E+02 -0.47655007539E+02  0.11124179356E+03  0.12700000000E+01 0. -1.
         -4    1    3    3    0  501  0.26929869899E+02 -0.14744763171E+02 -0.77436823965E+02  0.83310866876E+02  0.12700000000E+01 0. -1.
          2    1    1    2  502    0  0.41438789196E+02  0.31641579720E+01 -0.67001253809E+03  0.67130022072E+03  0.00000000000E+00 0. -1.
          2    1    1    2  503    0 -0.37867985265E+02 -0.84189081480E+02 -0.10095332123E+03  0.13679677926E+03  0.00000000000E+00 0. -1.
<mgrwt>
<rscale>  0 0.59527842E+02</rscale>
<asrwt>0</asrwt>
<pdfrwt beam="1">  1        2 0.81993828E-02 0.85265007E+02</pdfrwt>
<pdfrwt beam="2">  1        2 0.14605440E+00 0.41559417E+02</pdfrwt>
<totfact> 0.36384144E+03</totfact>
</mgrwt>
</event>
<event>
 7    1  0.4251803E-004  0.6973637E+02  0.7546771E-02  0.1506695E+00
          1   -1    0    0  503    0  0.00000000000E+00  0.00000000000E+00  0.77151169358E+03  0.77151169358E+03  0.00000000000E+00 0. -1.
         -3   -1    0    0    0  501 -0.00000000000E+00 -0.00000000000E+00 -0.86502122640E+02  0.86502122640E+02  0.00000000000E+00 0.  1.
         25    2    1    2    0    0  0.56696608477E+02  0.89711875141E+01  0.39261318458E+03  0.41600869388E+03  0.12499253202E+03 0.  0.
          4    1    3    3  502    0  0.25304033757E+02  0.28389709131E+02  0.37154318903E+03  0.37348657797E+03  0.12700000000E+01 0. -1.
         -4    1    3    3    0  502  0.31392574719E+02 -0.19418521617E+02  0.21069995551E+02  0.42522115914E+02  0.12700000000E+01 0. -1.
          1    1    1    2  503    0 -0.68204908438E+02 -0.29094264579E+02  0.36154685545E+03  0.36907250568E+03  0.00000000000E+00 0. -1.
         -3    1    1    2    0  501  0.11508299961E+02  0.20123077065E+02 -0.69150469082E+02  0.72932616660E+02  0.00000000000E+00 0.  1.
<mgrwt>
<rscale>  0 0.40206835E+02</rscale>
<asrwt>0</asrwt>
<pdfrwt beam="1">  1        1 0.11869410E+00 0.69736373E+02</pdfrwt>
<pdfrwt beam="2">  1       -3 0.13308019E-01 0.23181441E+02</pdfrwt>
<totfact> 0.48793629E+02</totfact>
</mgrwt>
</event>
<event>
 7    1  0.4251803E-004  0.1186217E+03  0.7546771E-02  0.1290902E+00
          2   -1    0    0  503    0  0.00000000000E+00  0.00000000000E+00  0.42702090732E+03  0.42702090732E+03  0.00000000000E+00 0.  1.
          2   -1    0    0  502    0 -0.00000000000E+00 -0.00000000000E+00 -0.37602708559E+03  0.37602708559E+03  0.00000000000E+00 0.  1.
         25    2    1    2    0    0 -0.16883450203E+03  0.45656431880E+02 -0.10737878175E+03  0.24029926753E+03  0.12499574537E+03 0.  0.
          4    1    3    3  501    0 -0.85561913909E+02  0.36176548292E+01 -0.11864664143E+03  0.14633033507E+03  0.12700000000E+01 0.  1.
         -4    1    3    3    0  501 -0.83272588116E+02  0.42038777051E+02  0.11267859677E+02  0.93968932468E+02  0.12700000000E+01 0.  1.
          2    1    1    2  502    0  0.10725561887E+03 -0.64209708136E+00 -0.18345792301E+03  0.21251115167E+03  0.00000000000E+00 0.  1.
          2    1    1    2  503    0  0.61578883155E+02 -0.45014334799E+02  0.34183052650E+03  0.35023757370E+03  0.00000000000E+00 0.  1.
<mgrwt>
<rscale>  0 0.95121818E+02</rscale>
<asrwt>0</asrwt>
<pdfrwt beam="1">  1        2 0.65695524E-01 0.76277449E+02</pdfrwt>
<pdfrwt beam="2">  1        2 0.57850321E-01 0.11862170E+03</pdfrwt>
<totfact> 0.99580697E+02</totfact>
</mgrwt>
</event>
<event>
 7    1  0.4251803E-004  0.7690836E+02  0.7546771E-02  0.1351053E+00
          1   -1    0    0  503    0  0.00000000000E+00  0.00000000000E+00  0.24209690140E+04  0.24209690140E+04  0.00000000000E+00 0. -1.
         -2   -1    0    0    0  501 -0.00000000000E+00 -0.00000000000E+00 -0.17834867773E+02  0.17834867773E+02  0.00000000000E+00 0. -1.
         25    2    1    2    0    0  0.13646364596E+03  0.22608098023E+02  0.14044383296E+04  0.14167591876E+04  0.12500448438E+03 0.  0.
          4    1    3    3  502    0  0.89733147371E+02  0.40610504123E+02  0.12606887330E+04  0.12645311167E+04  0.12700000000E+01 0.  1.
         -4    1    3    3    0  502  0.46730498587E+02 -0.18002406100E+02  0.14374959662E+03  0.15222807084E+03  0.12700000000E+01 0.  1.
          1    1    1    2  503    0 -0.64811190443E+02 -0.23014199371E+02  0.88490178587E+03  0.88757045603E+03  0.00000000000E+00 0. -1.
         -2    1    1    2    0  501 -0.71652455515E+02  0.40610134773E+00  0.11379403076E+03  0.13447423818E+03  0.00000000000E+00 0. -1.
<mgrwt>
<rscale>  0 0.72728624E+02</rscale>
<asrwt>0</asrwt>
<pdfrwt beam="1">  1        1 0.37245651E+00 0.68776041E+02</pdfrwt>
<pdfrwt beam="2">  1       -2 0.27438277E-02 0.76908364E+02</pdfrwt>
<totfact> 0.80206404E+02</totfact>
</mgrwt>
</event>
<event>
 7    1  0.4251803E-004  0.8600150E+02  0.7546771E-02  0.1356103E+00
          2   -1    0    0  502    0  0.00000000000E+00  0.00000000000E+00  0.20204532587E+04  0.20204532587E+04  0.00000000000E+00 0. -1.
          1   -1    0    0  503    0 -0.00000000000E+00 -0.00000000000E+00 -0.40830705934E+03  0.40830705934E+03  0.00000000000E+00 0. -1.
         25    2    1    2    0    0  0.47257142072E+02  0.44626923019E+01  0.76935814017E+03  0.78089056970E+03  0.12499992361E+03 0.  0.
          4    1    3    3  501    0  0.69404024990E+02  0.38789991546E+02  0.32216178328E+03  0.33183039288E+03  0.12700000000E+01 0.  1.
         -4    1    3    3    0  501 -0.22146882918E+02 -0.34327299244E+02  0.44719635689E+03  0.44906017682E+03  0.12700000000E+01 0.  1.
          2    1    1    2  502    0 -0.89874131204E+02 -0.45154861865E+02  0.12411272163E+04  0.12451960039E+04  0.00000000000E+00 0. -1.
          1    1    1    2  503    0  0.42616989132E+02  0.40692169563E+02 -0.39833915709E+03  0.40267374449E+03  0.00000000000E+00 0. -1.
<mgrwt>
<rscale>  0 0.71186858E+02</rscale>
<asrwt>0</asrwt>
<pdfrwt beam="1">  1        2 0.31083896E+00 0.86001496E+02</pdfrwt>
<pdfrwt beam="2">  1        1 0.62816472E-01 0.58924192E+02</pdfrwt>
<totfact> 0.67607986E+01</totfact>
</mgrwt>
</event>
<event>
 7    1  0.4251803E-004  0.1424332E+03  0.7546771E-02  0.1232080E+00
          1   -1    0    0  503    0  0.00000000000E+00  0.00000000000E+00  0.10261802040E+04  0.10261802040E+04  0.00000000000E+00 0. -1.
         -1   -1    0    0    0  501 -0.00000000000E+00 -0.00000000000E+00 -0.75118901441E+03  0.75118901441E+03  0.00000000000E+00 0.  1.
         25    2    1    2    0    0 -0.13080510469E+03 -0.14504058063E+02  0.34289477520E+02  0.18471559643E+03  0.12499496063E+03 0.  0.
          4    1    3    3  502    0 -0.79876960641E+02  0.53700235231E+02  0.14888905534E+02  0.97402959468E+02  0.12700000000E+01 0. -1.
         -4    1    3    3    0  502 -0.50928144054E+02 -0.68204293294E+02  0.19400571987E+02  0.87312636966E+02  0.12700000000E+01 0. -1.
          1    1    1    2  503    0  0.10999584143E+03 -0.96684163341E+02  0.90602407523E+03  0.91778349161E+03  0.00000000000E+00 0. -1.
         -1    1    1    2    0  501  0.20809263261E+02  0.11118822140E+03 -0.66532236313E+03  0.67487013040E+03  0.00000000000E+00 0.  1.
<mgrwt>
<rscale>  0 0.12693249E+03</rscale>
<asrwt>0</asrwt>
<pdfrwt beam="1">  1        1 0.15787388E+00 0.14243316E+03</pdfrwt>
<pdfrwt beam="2">  1       -1 0.11556754E+00 0.11311873E+03</pdfrwt>
<totfact> 0.12245668E+01</totfact>
</mgrwt>
</event>
<event>
 7    1  0.4251803E-004  0.1847601E+03  0.7546771E-02  0.1186840E+00
          2   -1    0    0  503    0  0.00000000000E+00  0.00000000000E+00  0.29113750993E+04  0.29113750993E+04  0.00000000000E+00 0. -1.
          2   -1    0    0  502    0 -0.00000000000E+00 -0.00000000000E+00 -0.24074724756E+04  0.24074724756E+04  0.00000000000E+00 0.  1.
         25    2    1    2    0    0  0.11812426366E+02  0.26750194042E+03  0.58164172676E+03  0.65240228893E+03  0.12499930694E+03 0.  0.
          4    1    3    3  501    0  0.53310331998E+02  0.20373492502E+03  0.48965301736E+03  0.53302120172E+03  0.12700000000E+01 0. -1.
         -4    1    3    3    0  501 -0.41497905632E+02  0.63767015403E+02  0.91988709402E+02  0.11938108721E+03  0.12700000000E+01 0. -1.
          2    1    1    2  502    0 -0.92368865316E+02 -0.10711417287E+03 -0.23664673215E+04  0.23706904136E+04  0.00000000000E+00 0.  1.
          2    1    1    2  503    0  0.80556438950E+02 -0.16038776755E+03  0.22887282185E+04  0.22957548724E+04  0.00000000000E+00 0. -1.
<mgrwt>
<rscale>  0 0.16165575E+03</rscale>
<asrwt>0</asrwt>
<pdfrwt beam="1">  1        2 0.44790386E+00 0.18476006E+03</pdfrwt>
<pdfrwt beam="2">  1        2 0.37038038E+00 0.14144064E+03</pdfrwt>
<totfact> 0.19011549E+00</totfact>
</mgrwt>
</event>
<event>
 7    1  0.4251803E-004  0.3787500E+02  0.7546771E-02  0.1529162E+00
          2   -1    0    0  502    0  0.00000000000E+00  0.00000000000E+00  0.22347835279E+02  0.22347835279E+02  0.00000000000E+00 0.  1.
          2   -1    0    0  503    0 -0.00000000000E+00 -0.00000000000E+00 -0.15284578295E+04  0.15284578295E+04  0.00000000000E+00 0. -1.
         25    2    1    2    0    0 -0.27455618109E+01 -0.56569083027E+02 -0.24072180956E+03  0.27708708076E+03  0.12499064549E+03 0.  0.
          4    1    3    3  501    0 -0.52168167645E+02  0.99206483222E+01 -0.76306188896E+02  0.92974105763E+02  0.12700000000E+01 0.  1.
         -4    1    3    3    0  501  0.49422605834E+02 -0.66489731349E+02 -0.16441562066E+03  0.18411297499E+03  0.12700000000E+01 0.  1.
          2    1    1    2  502    0  0.25498592636E+02  0.26412941831E+02 -0.83352819853E+02  0.91079713987E+02  0.00000000000E+00 0.  1.
          2    1    1    2  503    0 -0.22753030825E+02  0.30156141197E+02 -0.11820353648E+04  0.11826388700E+04  0.00000000000E+00 0. -1.
<mgrwt>
<rscale>  0 0.37289319E+02</rscale>
<asrwt>0</asrwt>
<pdfrwt beam="1">  1        2 0.34381267E-02 0.36712692E+02</pdfrwt>
<pdfrwt beam="2">  1        2 0.23514748E+00 0.37875004E+02</pdfrwt>
<totfact> 0.50312545E+03</totfact>
</mgrwt>
</event>
<event>
 7    1  0.4251803E-004  0.3487722E+02  0.7546771E-02  0.1550282E+00
          2   -1    0    0  503    0  0.00000000000E+00  0.00000000000E+00  0.11507513261E+04  0.11507513261E+04  0.00000000000E+00 0. -1.
         -1   -1    0    0    0  501 -0.00000000000E+00 -0.00000000000E+00 -0.11128559286E+02  0.11128559286E+02  0.00000000000E+00 0.  1.
         25    2    1    2    0    0  0.27556801849E+01 -0.14737709503E+02  0.86981510949E+03  0.87887661888E+03  0.12498396964E+03 0.  0.
          4    1    3    3  502    0  0.15764088583E+02 -0.67056393552E+02  0.58094851819E+03  0.58501953821E+03  0.12700000000E+01 0. -1.
         -4    1    3    3    0  502 -0.13008408398E+02  0.52318684050E+02  0.28886659130E+03  0.29385708067E+03  0.12700000000E+01 0. -1.
          2    1    1    2  503    0 -0.52168327241E+01  0.49527984289E+02  0.17644928440E+03  0.18334281152E+03  0.00000000000E+00 0. -1.
         -1    1    1    2    0  501  0.24611525393E+01 -0.34790274787E+02  0.93358372883E+02  0.99660454940E+02  0.00000000000E+00 0.  1.
<mgrwt>
<rscale>  0 0.34811376E+02</rscale>
<asrwt>0</asrwt>
<pdfrwt beam="1">  1        2 0.17703857E+00 0.34745656E+02</pdfrwt>
<pdfrwt beam="2">  1       -1 0.17120870E-02 0.34877220E+02</pdfrwt>
<totfact> 0.17729383E+04</totfact>
</mgrwt>
</event>
<event>
 7    1  0.4251803E-004  0.1625149E+03  0.7546771E-02  0.1238404E+00
          2   -1    0    0  502    0  0.00000000000E+00  0.00000000000E+00  0.15556666053E+04  0.15556666053E+04  0.00000000000E+00 0. -1.
          2   -1    0    0  503    0 -0.00000000000E+00 -0.00000000000E+00 -0.38906240135E+03  0.38906240135E+03  0.00000000000E+00 0.  1.
         25    2    1    2    0    0  0.13325735883E+03 -0.16393517632E+03 -0.18128403710E+02  0.24614262469E+03  0.12500114780E+03 0.  0.
          4    1    3    3  501    0  0.74329767136E+02 -0.17065482710E+03 -0.12949084481E+02  0.18659387981E+03  0.12700000000E+01 0.  1.
         -4    1    3    3    0  501  0.58927591690E+02  0.67196507738E+01 -0.51793192282E+01  0.59548744878E+02  0.12700000000E+01 0.  1.
          2    1    1    2  502    0 -0.91825955755E+02  0.14259929896E+02  0.14165282313E+04  0.14195730280E+04  0.00000000000E+00 0. -1.
          2    1    1    2  503    0 -0.41431403071E+02  0.14967524643E+03 -0.23179562364E+03  0.27901335396E+03  0.00000000000E+00 0.  1.
<mgrwt>
<rscale>  0 0.12289000E+03</rscale>
<asrwt>0</asrwt>
<pdfrwt beam="1">  1        2 0.23933332E+00 0.92926593E+02</pdfrwt>
<pdfrwt beam="2">  1        2 0.59855755E-01 0.16251486E+03</pdfrwt>
<totfact> 0.17874984E+02</totfact>
</mgrwt>
</event>
<event>
 7    1  0.4251803E-004  0.4025625E+02  0.7546771E-02  0.1534166E+00
          1   -1    0    0  502    0  0.00000000000E+00  0.00000000000E+00  0.87394955412E+03  0.87394955412E+03  0.00000000000E+00 0. -1.
          1   -1    0    0  503    0 -0.00000000000E+00 -0.00000000000E+00 -0.13834666334E+03  0.13834666334E+03  0.00000000000E+00 0.  1.
         25    2    1    2    0    0 -0.76939412657E+01 -0.22022586032E+01  0.12931130680E+03  0.18002932157E+03  0.12500038353E+03 0.  0.
          4    1    3    3  501    0 -0.28049091717E+02  0.51278524478E+02  0.30756428333E+02  0.66059135648E+02  0.12700000000E+01 0.  1.
         -4    1    3    3    0  501  0.20355150451E+02 -0.53480783081E+02  0.98554878472E+02  0.11397018592E+03  0.12700000000E+01 0.  1.
          1    1    1    2  502    0 -0.33349694887E+02  0.21983240088E+01  0.71514868876E+03  0.71592924358E+03  0.00000000000E+00 0. -1.
          1    1    1    2  503    0  0.41043636153E+02  0.39345943665E-02 -0.10885710478E+03  0.11633765231E+03  0.00000000000E+00 0.  1.
<mgrwt>
<rscale>  0 0.36680337E+02</rscale>
<asrwt>0</asrwt>
<pdfrwt beam="1">  1        1 0.13445377E+00 0.33422070E+02</pdfrwt>
<pdfrwt beam="2">  1        1 0.21284103E-01 0.40256247E+02</pdfrwt>
<totfact> 0.59579496E+02</totfact>
</mgrwt>
</event>
<event>
 7    1  0.4251803E-004  0.7863845E+02  0.7546771E-02  0.1438832E+00
          2   -1    0    0  502    0  0.00000000000E+00  0.00000000000E+00  0.12127767953E+04  0.12127767953E+04  0.00000000000E+00 0. -1.
          3   -1    0    0  503    0 -0.00000000000E+00 -0.00000000000E+00 -0.39702964020E+02  0.39702964020E+02  0.00000000000E+00 0. -1.
         25    2    1    2    0    0  0.10549532399E+03 -0.13107444065E+02  0.50986796009E+03  0.53562544919E+03  0.12501286581E+03 0.  0.
          4    1    3    3  501    0  0.10452043576E+03 -0.13369269800E+02  0.51734804140E+03  0.52797146486E+03  0.12700000000E+01 0. -1.
         -4    1    3    3    0  501  0.97488823150E+00  0.26182573550E+00 -0.74800813071E+01  0.76539843311E+01  0.12700000000E+01 0. -1.
          2    1    1    2  502    0 -0.72360004236E+02  0.17065033914E+02  0.67676333902E+03  0.68083463678E+03  0.00000000000E+00 0. -1.
          3    1    1    2  503    0 -0.33135319758E+02 -0.39575898491E+01 -0.13557467846E+02  0.36019673336E+02  0.00000000000E+00 0. -1.
<mgrwt>
<rscale>  0 0.51227239E+02</rscale>
<asrwt>0</asrwt>
<pdfrwt beam="1">  1        2 0.18658102E+00 0.78638454E+02</pdfrwt>
<pdfrwt beam="2">  1        3 0.61081492E-02 0.33370825E+02</pdfrwt>
<totfact> 0.16607992E+03</totfact>
</mgrwt>
</event>
<event>
 7    1  0.4251803E-004  0.5257658E+02  0.7546771E-02  0.1461352E+00
         -1   -1    0    0    0  501 -0.00000000000E+00  0.00000000000E+00  0.35459200464E+02  0.35459200464E+02  0.00000000000E+00 0.  1.
          1   -1    0    0  503    0  0.00000000000E+00 -0.00000000000E+00 -0.40880597880E+03  0.40880597880E+03  0.00000000000E+00 0. -1.
         25    2    1    2    0    0 -0.17075099247E+02  0.47799966561E+02 -0.23591467403E+03  0.27175514968E+03  0.12497492603E+03 0.  0.
          4    1    3    3  502    0 -0.63901199760E+02  0.26012380041E+02 -0.71297893498E+02  0.99222022573E+02  0.12700000000E+01 0. -1.
         -4    1    3    3    0  502  0.46826100513E+02  0.21787586520E+02 -0.16461678054E+03  0.17253312711E+03  0.12700000000E+01 0. -1.
          1    1    1    2  503    0 -0.24635132259E+02 -0.54733598700E+02 -0.63763958372E+02  0.87569966058E+02  0.00000000000E+00 0. -1.
         -1    1    1    2    0  501  0.41710231507E+02  0.69336321388E+01 -0.73668145926E+02  0.84940063522E+02  0.00000000000E+00 0.  1.
<mgrwt>
<rscale>  0 0.47149495E+02</rscale>
<asrwt>0</asrwt>
<pdfrwt beam="2">  1        1 0.62893231E-01 0.52576584E+02</pdfrwt>
<pdfrwt beam="1">  1       -1 0.54552613E-02 0.42282605E+02</pdfrwt>
<totfact> 0.78173291E+03</totfact>
</mgrwt>
</event>
<event>
 7    1  0.4251803E-004  0.3571907E+02  0.7546771E-02  0.1548371E+00
         -2   -1    0    0    0  501 -0.00000000000E+00  0.00000000000E+00  0.20706120692E+02  0.20706120692E+02  0.00000000000E+00 0.  1.
          1   -1    0    0  503    0  0.00000000000E+00 -0.00000000000E+00 -0.50880774245E+03  0.50880774245E+03  0.00000000000E+00 0. -1.
         25    2    1    2    0    0  0.76852302906E+01  0.11636351379E+02 -0.29536248158E+03  0.32102369379E+03  0.12499099573E+03 0.  0.
          4    1    3    3  502    0  0.47447174727E+02  0.39771201661E+02 -0.85440622857E+02  0.10552106806E+03  0.12700000000E+01 0. -1.
         -4    1    3    3    0  502 -0.39761944436E+02 -0.28134850282E+02 -0.20992185873E+03  0.21550262573E+03  0.12700000000E+01 0. -1.
          1    1    1    2  503    0  0.17564226230E+02 -0.36901278737E+02 -0.13027005182E+03  0.13653019013E+03  0.00000000000E+00 0. -1.
         -2    1    1    2    0  501 -0.25249456521E+02  0.25264927359E+02 -0.62469088346E+02  0.71959979210E+02  0.00000000000E+00 0.  1.
<mgrwt>
<rscale>  0 0.35025875E+02</rscale>
<asrwt>0</asrwt>
<pdfrwt beam="2">  1        1 0.78278112E-01 0.34346137E+02</pdfrwt>
<pdfrwt beam="1">  1       -2 0.31855571E-02 0.35719065E+02</pdfrwt>
<totfact> 0.12420836E+04</totfact>
</mgrwt>
</event>
<event>
 7    1  0.4251803E-004  0.2925759E+02  0.7546771E-02  0.1608096E+00
          2   -1    0    0  503    0  0.00000000000E+00  0.00000000000E+00  0.54024023468E+03  0.54024023468E+03  0.00000000000E+00 0.  1.
          2   -1    0    0  502    0 -0.00000000000E+00 -0.00000000000E+00 -0.64115131175E+03  0.64115131175E+03  0.00000000000E+00 0. -1.
         25    2    1    2    0    0  0.33676265192E+02  0.38390167567E+02  0.37299777990E+02  0.14006872620E+03  0.12498031372E+03 0.  0.
          4    1    3    3  501    0 -0.24177004041E+02  0.31111282694E+02 -0.31076114043E+02  0.50197382395E+02  0.12700000000E+01 0.  1.
         -4    1    3    3    0  501  0.57853269233E+02  0.72788848725E+01  0.68375892033E+02  0.89871343805E+02  0.12700000000E+01 0.  1.
          2    1    1    2  502    0 -0.27186847866E+02 -0.10009115551E+02 -0.58894114016E+03  0.58965326563E+03  0.00000000000E+00 0. -1.
          2    1    1    2  503    0 -0.64894173267E+01 -0.28381052015E+02  0.45073028510E+03  0.45166955460E+03  0.00000000000E+00 0.  1.
<mgrwt>
<rscale>  0 0.29113842E+02</rscale>
<asrwt>0</asrwt>
<pdfrwt beam="1">  1        2 0.83113883E-01 0.29257594E+02</pdfrwt>
<pdfrwt beam="2">  1        2 0.98638663E-01 0.28970797E+02</pdfrwt>
<totfact> 0.45416852E+02</totfact>
</mgrwt>
</event>
<event>
 7    1  0.4251803E-004  0.6143149E+02  0.7546771E-02  0.1484712E+00
          1   -1    0    0  503    0  0.00000000000E+00  0.00000000000E+00  0.23488604879E+04  0.23488604879E+04  0.00000000000E+00 0. -1.
         -1   -1    0    0    0  501 -0.00000000000E+00 -0.00000000000E+00 -0.32229678672E+02  0.32229678672E+02  0.00000000000E+00 0.  1.
         25    2    1    2    0    0  0.50564614797E+02  0.38793377336E+01  0.16547867696E+03  0.21347895014E+03  0.12497295745E+03 0.  0.
          4    1    3    3  502    0  0.34375027081E+02 -0.23971656484E+02  0.17492848242E+03  0.17988293322E+03  0.12700000000E+01 0. -1.
         -4    1    3    3    0  502  0.16189587716E+02  0.27850994217E+02 -0.94498054645E+01  0.33596016916E+02  0.12700000000E+01 0. -1.
          1    1    1    2  503    0 -0.51212834268E+02 -0.34506307287E+02  0.21287856264E+04  0.21296811223E+04  0.00000000000E+00 0. -1.
         -1    1    1    2    0  501  0.64821947091E+00  0.30626969553E+02  0.22366505816E+02  0.37930094053E+02  0.00000000000E+00 0.  1.
<mgrwt>
<rscale>  0 0.43380662E+02</rscale>
<asrwt>0</asrwt>
<pdfrwt beam="1">  1        1 0.36136302E+00 0.61431493E+02</pdfrwt>
<pdfrwt beam="2">  1       -1 0.49584140E-02 0.30633829E+02</pdfrwt>
<totfact> 0.35164943E+02</totfact>
</mgrwt>
</event>
<event>
 7    1  0.4251803E-004  0.1322321E+03  0.7546771E-02  0.1261049E+00
          2   -1    0    0  503    0  0.00000000000E+00  0.00000000000E+00  0.14299111314E+04  0.14299111314E+04  0.00000000000E+00 0. -1.
          2   -1    0    0  502    0 -0.00000000000E+00 -0.00000000000E+00 -0.22829978172E+04  0.22829978172E+04  0.00000000000E+00 0.  1.
         25    2    1    2    0    0  0.13675117287E+03 -0.73104461319E+02 -0.10655493133E+03  0.22588458719E+03  0.12499899116E+03 0.  0.
          4    1    3    3  501    0  0.14802479235E+03 -0.94011119425E+02 -0.92614707841E+02  0.19831421214E+03  0.12700000000E+01 0.  1.
         -4    1    3    3    0  501 -0.11273619483E+02  0.20906658107E+02 -0.13940223491E+02  0.27570375050E+02  0.12700000000E+01 0.  1.
          2    1    1    2  502    0 -0.58086239028E+02  0.11900386006E+03 -0.21131898169E+04  0.21173349126E+04  0.00000000000E+00 0.  1.
          2    1    1    2  503    0 -0.78664933844E+02 -0.45899398741E+02  0.13666580624E+04  0.13696894488E+04  0.00000000000E+00 0. -1.
<mgrwt>
<rscale>  0 0.10974168E+03</rscale>
<asrwt>0</asrwt>
<pdfrwt beam="1">  1        2 0.21998633E+00 0.91076488E+02</pdfrwt>
<pdfrwt beam="2">  1        2 0.35123043E+00 0.13223211E+03</pdfrwt>
<totfact> 0.14479624E+01</totfact>
</mgrwt>
</event>
<event>
 7    1  0.4251803E-004  0.5481531E+02  0.7546771E-02  0.1435116E+00
          2   -1    0    0  502    0  0.00000000000E+00  0.00000000000E+00  0.81212506582E+03  0.81212506582E+03  0.00000000000E+00 0.  1.
          1   -1    0    0  503    0 -0.00000000000E+00 -0.00000000000E+00 -0.19287203072E+03  0.19287203072E+03  0.00000000000E+00 0. -1.
         25    2    1    2    0    0 -0.34813357660E+02  0.70050913023E+02  0.20333364715E+03  0.25117401980E+03  0.12499886349E+03 0.  0.
          4    1    3    3  501    0 -0.51154655574E+02  0.66994562715E+02  0.21492557533E+03  0.23086724768E+03  0.12700000000E+01 0.  1.
         -4    1    3    3    0  501  0.16341297914E+02  0.30563503074E+01 -0.11591928186E+02  0.20306772116E+02  0.12700000000E+01 0.  1.
          2    1    1    2  502    0 -0.11441697791E+02 -0.53202342053E+02  0.57998434993E+03  0.58253175692E+03  0.00000000000E+00 0.  1.
          1    1    1    2  503    0  0.46255055451E+02 -0.16848570969E+02 -0.16406496198E+03  0.17129131983E+03  0.00000000000E+00 0. -1.
<mgrwt>
<rscale>  0 0.51946636E+02</rscale>
<asrwt>0</asrwt>
<pdfrwt beam="1">  1        2 0.12494232E+00 0.54815314E+02</pdfrwt>
<pdfrwt beam="2">  1        1 0.29672621E-01 0.49228086E+02</pdfrwt>
<totfact> 0.74969892E+02</totfact>
</mgrwt>
</event>
<event>
 7    1  0.4251803E-004  0.9132603E+02  0.7546771E-02  0.1400672E+00
         -1   -1    0    0    0  501 -0.00000000000E+00  0.00000000000E+00  0.20222423826E+03  0.20222423826E+03  0.00000000000E+00 0.  1.
          2   -1    0    0  503    0  0.00000000000E+00 -0.00000000000E+00 -0.10510885178E+04  0.10510885178E+04  0.00000000000E+00 0. -1.
         25    2    1    2    0    0  0.61928260292E+01 -0.76861227841E+02 -0.26079097328E+03  0.29930220349E+03  0.12499551124E+03 0.  0.
          4    1    3    3  502    0  0.40434599658E+02 -0.97937636973E+02 -0.17567945305E+03  0.20516242519E+03  0.12700000000E+01 0. -1.
         -4    1    3    3    0  502 -0.34241773629E+02  0.21076409132E+02 -0.85111520228E+02  0.94139778302E+02  0.12700000000E+01 0. -1.
          2    1    1    2  503    0 -0.44190470916E+02  0.83313502951E+02 -0.76608821086E+03  0.77187115784E+03  0.00000000000E+00 0. -1.
         -1    1    1    2    0  501  0.37997644887E+02 -0.64522751100E+01  0.17801490457E+03  0.18213939475E+03  0.00000000000E+00 0.  1.
<mgrwt>
<rscale>  0 0.59328315E+02</rscale>
<asrwt>0</asrwt>
<pdfrwt beam="2">  1        2 0.16170593E+00 0.91326032E+02</pdfrwt>
<pdfrwt beam="1">  1       -1 0.31111421E-01 0.38541573E+02</pdfrwt>
<totfact> 0.27608328E+02</totfact>
</mgrwt>
</event>
<event>
 7    1  0.4251803E-004  0.8085994E+02  0.7546771E-02  0.1327277E+00
          1   -1    0    0  503    0 -0.00000000000E+00  0.00000000000E+00  0.28063353340E+02  0.28063353340E+02  0.00000000000E+00 0. -1.
          2   -1    0    0  502    0  0.00000000000E+00 -0.00000000000E+00 -0.31761409745E+04  0.31761409745E+04  0.00000000000E+00 0. -1.
         25    2    1    2    0    0  0.17145713915E+02 -0.10203317998E+03 -0.65096237248E+03  0.67088130442E+03  0.12499987566E+03 0.  0.
          4    1    3    3  501    0  0.62430085082E+02 -0.76403273508E+02 -0.53135456772E+03  0.54043895609E+03  0.12700000000E+01 0.  1.
         -4    1    3    3    0  501 -0.45284371166E+02 -0.25629906477E+02 -0.11960780476E+03  0.13044234833E+03  0.12700000000E+01 0.  1.
          2    1    1    2  502    0 -0.70234826261E+02  0.41656625681E+02 -0.24217443311E+04  0.24231206760E+04  0.00000000000E+00 0. -1.
          1    1    1    2  503    0  0.53089112346E+02  0.60376554304E+02 -0.75370917602E+02  0.11020234743E+03  0.00000000000E+00 0. -1.
<mgrwt>
<rscale>  0 0.80628463E+02</rscale>
<asrwt>0</asrwt>
<pdfrwt beam="2">  1        2 0.48863712E+00 0.80859939E+02</pdfrwt>
<pdfrwt beam="1">  1        1 0.43174386E-02 0.80397650E+02</pdfrwt>
<totfact> 0.49365181E+02</totfact>
</mgrwt>
</event>
<event>
 7    1  0.4251803E-004  0.1577099E+03  0.7546771E-02  0.1330143E+00
          2   -1    0    0  502    0  0.00000000000E+00  0.00000000000E+00  0.13045621429E+04  0.13045621429E+04  0.00000000000E+00 0. -1.
          1   -1    0    0  503    0 -0.00000000000E+00 -0.00000000000E+00 -0.49143692645E+03  0.49143692645E+03  0.00000000000E+00 0. -1.
         25    2    1    2    0    0  0.15611738755E+03 -0.11976882298E+03  0.42828279572E+03  0.48762113391E+03  0.12502402755E+03 0.  0.
          4    1    3    3  501    0  0.59282107094E+02 -0.89585085786E+01  0.39218995801E+02  0.71654487850E+02  0.12700000000E+01 0. -1.
         -4    1    3    3    0  501  0.96835280455E+02 -0.11081031440E+03  0.38906379992E+03  0.41596664605E+03  0.12700000000E+01 0. -1.
          2    1    1    2  502    0 -0.32136948090E+02  0.24138706415E+02  0.83283853741E+03  0.83380782557E+03  0.00000000000E+00 0. -1.
          1    1    1    2  503    0 -0.12398043946E+03  0.95630116567E+02 -0.44799611672E+03  0.47457010985E+03  0.00000000000E+00 0. -1.
<mgrwt>
<rscale>  0 0.79616589E+02</rscale>
<asrwt>0</asrwt>
<pdfrwt beam="1">  1        2 0.20070187E+00 0.40192793E+02</pdfrwt>
<pdfrwt beam="2">  1        1 0.75605682E-01 0.15770990E+03</pdfrwt>
<totfact> 0.12801996E+02</totfact>
</mgrwt>
</event>
